INSANE! Membrane UpperLeaflet>PSPI:POPI:POPS:YOPS:POPE:YOPE:POPC:YOPC:ERGO=6.0:14.0:21.0:9.0:9.0:21.0:12.0:48.0:60.0 LowerLeaflet>PSPI:POPI:POPS:YOPS:POPE:YOPE:POPC:YOPC:ERGO=6.0:14.0:21.0:9.0:9.0:21.0:12.0:48.0:60.0
49592
    1PSPI    C1    1  18.035   8.254  10.977 -0.0725 -0.3620  0.2023
    1PSPI    C2    2  18.245   7.930  10.872  0.4266  0.0438 -0.0988
    1PSPI    C3    3  18.365   8.154  11.180  0.1730  0.0327  0.0102
    1PSPI   PO4    4  18.060   8.415  10.732 -0.0821  0.1016 -0.0686
    1PSPI   GL1    5  18.225   8.499  10.333 -0.2113 -0.1419  0.2976
    1PSPI   GL2    6  18.534   8.528  10.286 -0.2401  0.0097 -0.2634
    1PSPI   C1A    7  18.010   8.555  10.011 -0.3444  0.1704  0.1948
    1PSPI   C2A    8  18.099   8.636   9.557  0.0315  0.0775 -0.4619
    1PSPI   C3A    9  18.039   8.650   9.099 -0.1838  0.5704  0.1964
    1PSPI   C4A   10  17.687   8.507   8.917  0.0913 -0.1436 -0.1432
    1PSPI   C1B   11  18.482   8.510   9.841  0.2506 -0.0453  0.1589
    1PSPI   C2B   12  18.572   8.486   9.436 -0.0426  0.1489 -0.4922
    1PSPI   C3B   13  18.575   8.788   9.097 -0.0675 -0.0430 -0.0109
    1PSPI   C4B   14  18.432   8.868   8.651  0.4085 -0.0678 -0.0255
    2PSPI    C1   15   5.796   0.066  10.251 -0.1453  0.1736 -0.2395
    2PSPI    C2   16   5.873   0.458  10.237  0.0622  0.1533  0.1647
    2PSPI    C3   17   5.621   0.313  10.512 -0.0492  0.0061 -0.0125
    2PSPI   PO4   18   5.840  -0.056   9.959 -0.2457  0.1572  0.3179
    2PSPI   GL1   19   5.798  -0.165   9.491 -0.0530  0.1176  0.0510
    2PSPI   GL2   20   5.884   0.066   9.261 -0.2688  0.1644 -0.1971
    2PSPI   C1A   21   5.531  -0.190   9.018  0.0283 -0.1631  0.2016
    2PSPI   C2A   22   5.342  -0.109   8.570  0.3999  0.0649  0.3628
    2PSPI   C3A   23   5.218   0.175   8.285 -0.0969  0.1071 -0.1176
    2PSPI   C4A   24   5.469   0.398   8.016 -0.0091  0.3012 -0.1470
    2PSPI   C1B   25   5.795   0.188   8.875 -0.2095 -0.0847  0.0113
    2PSPI   C2B   26   5.789  -0.049   8.489 -0.0633  0.0621  0.0861
    2PSPI   C3B   27   5.901  -0.010   8.054  0.3977  0.1390  0.2009
    2PSPI   C4B   28   5.886  -0.146   7.649  0.0771 -0.3973 -0.1202
    3PSPI    C1   29   2.204   3.026  10.589 -0.0117  0.1252 -0.0179
    3PSPI    C2   30   2.180   2.889  10.964 -0.0661  0.0637 -0.0438
    3PSPI    C3   31   1.965   3.207  10.853  0.1259  0.2243  0.0395
    3PSPI   PO4   32   2.074   2.785  10.416  0.0258 -0.0470 -0.4360
    3PSPI   GL1   33   1.881   2.677  10.068  0.1057 -0.1482  0.2464
    3PSPI   GL2   34   1.804   2.310   9.997 -0.0079  0.3420 -0.2829
    3PSPI   C1A   35   1.893   2.767   9.676 -0.0086 -0.1754  0.2495
    3PSPI   C2A   36   1.838   2.774   9.187  0.3504 -0.0701  0.3862
    3PSPI   C3A   37   1.908   3.019   8.803 -0.1080  0.2176 -0.1868
    3PSPI   C4A   38   1.657   3.104   8.542 -0.0910 -0.0451  0.0286
    3PSPI   C1B   39   1.749   2.325   9.504 -0.0142 -0.0529  0.0284
    3PSPI   C2B   40   1.660   2.255   9.133  0.0609 -0.1849  0.0121
    3PSPI   C3B   41   1.837   2.392   8.730 -0.0404 -0.1522  0.0067
    3PSPI   C4B   42   2.121   2.615   8.730  0.1596  0.0105  0.0848
    4PSPI    C1   43  12.937   0.245   9.905 -0.2058 -0.3046  0.1755
    4PSPI    C2   44  13.194   0.542   9.981 -0.1552 -0.2004 -0.3626
    4PSPI    C3   45  12.837   0.536  10.161 -0.0364  0.0150 -0.1132
    4PSPI   PO4   46  12.996   0.190   9.650  0.0059 -0.2647  0.0127
    4PSPI   GL1   47  12.986   0.248   9.308  0.1182  0.1594 -0.0909
    4PSPI   GL2   48  12.721  -0.063   9.329 -0.1273  0.0335  0.1921
    4PSPI   C1A   49  13.106   0.404   8.900 -0.1046  0.0264 -0.2701
    4PSPI   C2A   50  13.174   0.382   8.400 -0.1081 -0.0566 -0.1164
    4PSPI   C3A   51  12.968   0.520   7.920 -0.2312 -0.4919  0.1911
    4PSPI   C4A   52  12.603   0.508   7.645 -0.1597  0.0934  0.2009
    4PSPI   C1B   53  12.815  -0.089   8.893 -0.0557 -0.0577  0.4657
    4PSPI   C2B   54  12.876  -0.090   8.525 -0.1242 -0.3780 -0.1198
    4PSPI   C3B   55  12.804  -0.075   7.982 -0.1809  0.2288 -0.2827
    4PSPI   C4B   56  12.740  -0.302   7.676  0.0759 -0.1509  0.0485
    5PSPI    C1   57   4.312   4.436  10.721 -0.0943 -0.0819  0.0130
    5PSPI    C2   58   4.303   4.735  10.456 -0.0667  0.0214  0.1275
    5PSPI    C3   59   4.095   4.763  10.796 -0.1679 -0.1458  0.0808
    5PSPI   PO4   60   4.271   4.161  10.470 -0.2215 -0.1847 -0.1154
    5PSPI   GL1   61   4.122   3.911  10.166 -0.2417  0.2401 -0.2438
    5PSPI   GL2   62   3.714   3.969  10.292  0.3254 -0.1272  0.2012
    5PSPI   C1A   63   4.292   3.675   9.960 -0.0505 -0.0469 -0.1715
    5PSPI   C2A   64   4.253   3.303   9.596 -0.1032 -0.0179 -0.1361
    5PSPI   C3A   65   4.361   3.205   9.150  0.0697 -0.1466 -0.0192
    5PSPI   C4A   66   4.614   3.001   8.868  0.2231  0.1864  0.3184
    5PSPI   C1B   67   3.616   3.801   9.875 -0.0084  0.1865  0.0409
    5PSPI   C2B   68   3.928   3.722   9.595  0.2564 -0.1725  0.4458
    5PSPI   C3B   69   4.097   3.732   9.217  0.1849  0.4034 -0.0179
    5PSPI   C4B   70   4.248   3.843   8.726  0.2162 -0.0586  0.0322
    6PSPI    C1   71   3.648  11.172  10.618 -0.1154 -0.1697  0.1877
    6PSPI    C2   72   3.700  11.561  10.696  0.0344 -0.1534  0.0139
    6PSPI    C3   73   3.844  11.285  10.948  0.1871 -0.0981 -0.0114
    6PSPI   PO4   74   3.560  11.207  10.349  0.0361 -0.1415 -0.0085
    6PSPI   GL1   75   3.579  11.403   9.854 -0.4339 -0.0186 -0.1550
    6PSPI   GL2   76   3.764  11.692   9.629 -0.0367  0.0791  0.1785
    6PSPI   C1A   77   3.411  11.362   9.393  0.5197  0.3543 -0.0952
    6PSPI   C2A   78   3.449  11.131   8.943 -0.2933 -0.0948 -0.1501
    6PSPI   C3A   79   3.578  11.412   8.607 -0.0817  0.2746 -0.2182
    6PSPI   C4A   80   3.510  11.696   8.211  0.3163 -0.2058  0.2576
    6PSPI   C1B   81   4.044  11.601   9.268 -0.0598  0.2351  0.0585
    6PSPI   C2B   82   3.929  11.737   8.887 -0.0045 -0.0541  0.1309
    6PSPI   C3B   83   3.648  11.917   8.608  0.0330  0.0491  0.3622
    6PSPI   C4B   84   3.548  12.214   8.251 -0.0393  0.6151  0.2794
    7PSPI    C1   85  15.561  12.958  10.527  0.2134  0.1391  0.0431
    7PSPI    C2   86  15.223  12.745  10.546  0.1918  0.1338 -0.3345
    7PSPI    C3   87  15.485  12.731  10.848 -0.0908  0.0502 -0.0885
    7PSPI   PO4   88  15.565  12.930  10.261 -0.0984  0.2067  0.0355
    7PSPI   GL1   89  15.901  12.769  10.020 -0.0872  0.0105 -0.3071
    7PSPI   GL2   90  16.170  12.637  10.107 -0.3742  0.0466  0.3603
    7PSPI   C1A   91  15.891  12.882   9.571 -0.2321  0.2212  0.1376
    7PSPI   C2A   92  16.047  13.098   9.184  0.1432  0.0602  0.2903
    7PSPI   C3A   93  15.737  13.105   8.814 -0.0866 -0.3019  0.0439
    7PSPI   C4A   94  15.458  12.910   8.528  0.0484  0.0933 -0.0472
    7PSPI   C1B   95  16.225  12.516   9.642  0.1076  0.1735 -0.0199
    7PSPI   C2B   96  16.257  12.599   9.204  0.1130 -0.2341 -0.3587
    7PSPI   C3B   97  16.045  12.670   8.780  0.0124 -0.1400 -0.1798
    7PSPI   C4B   98  16.129  12.972   8.473 -0.0451 -0.1164 -0.3220
    8PSPI    C1   99   9.690  14.128  10.275 -0.0220 -0.2888 -0.1711
    8PSPI    C2  100   9.625  14.454  10.496  0.3140 -0.2523 -0.1209
    8PSPI    C3  101   9.424  14.117  10.573  0.1870 -0.1450  0.0239
    8PSPI   PO4  102   9.914  14.111  10.190 -0.2128 -0.0296  0.1763
    8PSPI   GL1  103  10.068  13.856   9.886 -0.1342 -0.0746 -0.2920
    8PSPI   GL2  104   9.884  13.689   9.799 -0.0109  0.2208 -0.1710
    8PSPI   C1A  105  10.260  13.841   9.465 -0.2230 -0.3981  0.0142
    8PSPI   C2A  106  10.193  13.850   9.036  0.2937 -0.0105  0.0827
    8PSPI   C3A  107  10.033  13.945   8.731 -0.0199  0.0675 -0.1667
    8PSPI   C4A  108   9.924  13.883   8.351  0.0929 -0.2757  0.2295
    8PSPI   C1B  109   9.767  13.696   9.325 -0.4592 -0.3015  0.2058
    8PSPI   C2B  110   9.725  13.670   8.963  0.0428 -0.1854  0.1309
    8PSPI   C3B  111   9.619  13.573   8.604 -0.1464 -0.0079 -0.0162
    8PSPI   C4B  112   9.525  13.706   8.187  0.0412 -0.1444 -0.0219
    9PSPI    C1  113  15.468  10.880  10.527 -0.1662 -0.1412 -0.0092
    9PSPI    C2  114  15.648  10.699  10.835  0.0879  0.0732 -0.0275
    9PSPI    C3  115  15.306  10.898  10.892 -0.0652 -0.2043  0.0392
    9PSPI   PO4  116  15.664  11.050  10.442 -0.2237  0.0526  0.3664
    9PSPI   GL1  117  15.511  11.106   9.947  0.0710 -0.0691  0.0598
    9PSPI   GL2  118  15.867  11.235   9.957  0.0895  0.0245 -0.2089
    9PSPI   C1A  119  15.519  11.335   9.544 -0.1783  0.2475 -0.2711
    9PSPI   C2A  120  15.498  11.407   9.106 -0.1065  0.1367  0.2393
    9PSPI   C3A  121  15.675  11.544   8.790 -0.0448 -0.0864  0.0398
    9PSPI   C4A  122  16.075  11.716   8.695 -0.2151  0.2873  0.1136
    9PSPI   C1B  123  16.012  10.943   9.627  0.0149  0.4276  0.2010
    9PSPI   C2B  124  16.075  10.807   9.155 -0.0057 -0.0635  0.0371
    9PSPI   C3B  125  16.075  10.421   8.911  0.1033 -0.1223  0.2601
    9PSPI   C4B  126  16.134  10.021   8.692 -0.0004  0.0590 -0.1000
   10PSPI    C1  127  12.427   9.329  10.624  0.0955  0.1512  0.0852
   10PSPI    C2  128  12.407   9.630  10.887 -0.0166  0.0384  0.2069
   10PSPI    C3  129  12.623   9.304  10.972  0.0318  0.0458  0.1138
   10PSPI   PO4  130  12.141   9.278  10.572 -0.2233 -0.0100 -0.0227
   10PSPI   GL1  131  12.008   9.243  10.136  0.2687  0.0557  0.0713
   10PSPI   GL2  132  12.221   9.487  10.135  0.0732  0.0519 -0.2822
   10PSPI   C1A  133  11.797   9.215   9.776 -0.0415 -0.1574 -0.2308
   10PSPI   C2A  134  11.638   9.187   9.368 -0.2227 -0.2379 -0.2632
   10PSPI   C3A  135  11.951   9.148   9.126 -0.2354  0.1407  0.0875
   10PSPI   C4A  136  12.228   8.905   8.904  0.0177  0.3318  0.1765
   10PSPI   C1B  137  12.275   9.416   9.685  0.1463 -0.0477 -0.0787
   10PSPI   C2B  138  12.075   9.521   9.438  0.1171 -0.2033 -0.0451
   10PSPI   C3B  139  11.871   9.612   9.011 -0.0749  0.3513 -0.0071
   10PSPI   C4B  140  11.532   9.391   8.842 -0.4044  0.0742  0.2226
   11PSPI    C1  141   9.987   0.715   9.640 -0.0918  0.1775 -0.1268
   11PSPI    C2  142  10.222   0.463   9.436 -0.0397 -0.0147  0.1641
   11PSPI    C3  143   9.879   0.332   9.597 -0.0226  0.1049  0.2998
   11PSPI   PO4  144   9.925   0.883   9.494 -0.0567  0.0033  0.0577
   11PSPI   GL1  145   9.936   1.093   9.133 -0.2428  0.0645  0.2082
   11PSPI   GL2  146   9.986   0.716   9.026  0.0229 -0.0286 -0.1252
   11PSPI   C1A  147  10.359   1.135   8.858 -0.0167  0.0018  0.0962
   11PSPI   C2A  148  10.474   1.016   8.495 -0.0389 -0.0910  0.1574
   11PSPI   C3A  149  10.675   0.768   8.288 -0.2384 -0.4171 -0.0306
   11PSPI   C4A  150  10.758   0.601   7.915  0.2566  0.1159  0.0583
   11PSPI   C1B  151   9.982   0.726   8.631  0.0366  0.0238  0.0148
   11PSPI   C2B  152  10.046   0.779   8.225  0.0288  0.3188  0.0397
   11PSPI   C3B  153   9.899   0.900   7.925 -0.1844  0.0976  0.2363
   11PSPI   C4B  154   9.624   1.074   7.623  0.3443 -0.1305 -0.0000
   12PSPI    C1  155  14.235   3.340  10.158 -0.1632  0.1032 -0.0248
   12PSPI    C2  156  13.954   3.080  10.042  0.0543 -0.1594  0.0257
   12PSPI    C3  157  13.932   3.250  10.403 -0.0914 -0.1027 -0.0091
   12PSPI   PO4  158  14.349   3.318   9.886  0.1068  0.1316  0.1679
   12PSPI   GL1  159  14.038   3.371   9.526  0.4686  0.0288  0.1778
   12PSPI   GL2  160  14.308   3.429   9.379  0.0129 -0.1655 -0.3043
   12PSPI   C1A  161  14.077   3.099   9.136  0.0474  0.3316 -0.1124
   12PSPI   C2A  162  14.061   2.872   8.804  0.0276 -0.1240 -0.1648
   12PSPI   C3A  163  14.143   2.707   8.471  0.1595  0.0752  0.1405
   12PSPI   C4A  164  14.288   2.431   8.049 -0.0186 -0.2214 -0.1827
   12PSPI   C1B  165  14.511   3.448   9.058  0.1370 -0.2616  0.1201
   12PSPI   C2B  166  14.597   3.483   8.599 -0.0778  0.1922  0.0823
   12PSPI   C3B  167  14.348   3.519   8.331  0.2674 -0.1403 -0.1328
   12PSPI   C4B  168  13.980   3.610   8.179 -0.0691  0.3118 -0.3591
   13PSPI    C1  169   9.171   3.776  10.162  0.4047 -0.0499 -0.0164
   13PSPI    C2  170   9.215   4.170  10.218 -0.0200 -0.0321  0.2297
   13PSPI    C3  171   9.356   3.912  10.490  0.3307 -0.0578  0.0288
   13PSPI   PO4  172   9.296   3.697   9.857 -0.2693  0.0054  0.0336
   13PSPI   GL1  173   9.111   3.601   9.527 -0.3772  0.0822  0.0093
   13PSPI   GL2  174   9.002   3.877   9.498 -0.0589 -0.2318 -0.1101
   13PSPI   C1A  175   9.149   3.652   9.070 -0.0769  0.1070 -0.1417
   13PSPI   C2A  176   9.212   3.561   8.668  0.1762  0.2492 -0.0047
   13PSPI   C3A  177   9.264   3.348   8.257  0.1962  0.0730 -0.0292
   13PSPI   C4A  178   9.011   3.151   7.869 -0.1039  0.0816  0.0998
   13PSPI   C1B  179   8.705   3.574   9.269  0.2720 -0.0356  0.3310
   13PSPI   C2B  180   8.585   3.557   8.911 -0.1084  0.1165  0.1590
   13PSPI   C3B  181   8.619   3.653   8.552 -0.2691  0.0082  0.1542
   13PSPI   C4B  182   8.472   3.937   8.156  0.0025 -0.0521 -0.3364
   14PSPI    C1  183   1.270   6.913  11.120 -0.1553  0.1767  0.0326
   14PSPI    C2  184   1.554   6.712  11.318 -0.2587 -0.0098 -0.0057
   14PSPI    C3  185   1.254   6.885  11.519 -0.0574  0.2878  0.0446
   14PSPI   PO4  186   1.484   6.958  10.873 -0.2560  0.0799  0.2853
   14PSPI   GL1  187   1.739   6.714  10.611 -0.2769  0.1265 -0.2185
   14PSPI   GL2  188   1.552   6.746  10.381 -0.1466  0.1677 -0.2596
   14PSPI   C1A  189   2.024   6.578  10.335 -0.2085  0.3128 -0.3566
   14PSPI   C2A  190   2.108   6.441   9.907 -0.1449 -0.1632 -0.1280
   14PSPI   C3A  191   1.931   6.216   9.640 -0.0719  0.1895 -0.0773
   14PSPI   C4A  192   1.852   6.089   9.263 -0.1026 -0.0696 -0.0174
   14PSPI   C1B  193   1.610   6.599  10.001 -0.1454 -0.3207 -0.2108
   14PSPI   C2B  194   1.753   6.670   9.590 -0.1137 -0.1238  0.0761
   14PSPI   C3B  195   1.837   6.567   9.235 -0.1785  0.0774  0.0925
   14PSPI   C4B  196   2.226   6.305   8.928  0.1703 -0.1140  0.1526
   15PSPI    C1  197  15.143  14.927  10.261 -0.0638  0.1511  0.1940
   15PSPI    C2  198  15.129  14.708  10.595 -0.5499 -0.0197  0.0706
   15PSPI    C3  199  14.831  14.961  10.510 -0.2033  0.3736 -0.0060
   15PSPI   PO4  200  15.394  14.656  10.119 -0.0658  0.4220 -0.1547
   15PSPI   GL1  201  15.655  14.526   9.753  0.2161  0.0175 -0.2226
   15PSPI   GL2  202  15.883  14.658   9.944  0.0665 -0.0132  0.0521
   15PSPI   C1A  203  15.943  14.529   9.430 -0.0117 -0.0928 -0.0433
   15PSPI   C2A  204  16.089  14.532   8.993  0.2632 -0.1390 -0.0802
   15PSPI   C3A  205  16.244  14.684   8.556  0.1980 -0.1626  0.3883
   15PSPI   C4A  206  16.413  14.799   8.082 -0.1419  0.4595 -0.0910
   15PSPI   C1B  207  16.156  14.902   9.733 -0.1851  0.4375 -0.0168
   15PSPI   C2B  208  16.259  15.081   9.352  0.2383  0.1081 -0.0765
   15PSPI   C3B  209  16.425  14.908   8.935 -0.0293 -0.1237 -0.3488
   15PSPI   C4B  210  16.674  14.974   8.548  0.1268  0.0048 -0.2323
   16PSPI    C1  211  16.133  17.235  10.317  0.1039 -0.0575 -0.2281
   16PSPI    C2  212  16.191  17.618  10.419  0.0003 -0.0859 -0.0570
   16PSPI    C3  213  15.834  17.447  10.477  0.0216 -0.1855 -0.2105
   16PSPI   PO4  214  16.187  17.237  10.092  0.1080  0.2133 -0.0775
   16PSPI   GL1  215  16.417  17.353   9.788 -0.0609  0.2900  0.2943
   16PSPI   GL2  216  16.437  16.990   9.760 -0.0308 -0.0745 -0.1676
   16PSPI   C1A  217  16.441  17.353   9.323 -0.1456  0.1217 -0.0320
   16PSPI   C2A  218  16.387  17.426   8.964  0.0542 -0.1362 -0.0364
   16PSPI   C3A  219  16.397  17.374   8.514  0.0350  0.1575 -0.0163
   16PSPI   C4A  220  16.467  17.289   8.073 -0.0330  0.2646 -0.0144
   16PSPI   C1B  221  16.613  16.873   9.292  0.3593  0.0511 -0.1566
   16PSPI   C2B  222  16.619  16.976   8.812 -0.1685 -0.5236  0.0110
   16PSPI   C3B  223  16.584  16.781   8.485  0.0289 -0.0094 -0.0103
   16PSPI   C4B  224  16.495  16.447   8.155 -0.1069 -0.0237  0.2031
   17PSPI    C1  225  13.558  17.815   9.995  0.1188  0.0070  0.0977
   17PSPI    C2  226  13.197  17.969  10.073  0.1262 -0.0187  0.1826
   17PSPI    C3  227  13.515  18.085  10.287  0.1404 -0.1145  0.2141
   17PSPI   PO4  228  13.643  17.872   9.727 -0.0096 -0.0139  0.1125
   17PSPI   GL1  229  13.849  18.093   9.420 -0.1001  0.2426  0.2095
   17PSPI   GL2  230  13.721  17.757   9.259 -0.0143 -0.0572  0.0139
   17PSPI   C1A  231  13.970  18.362   9.084  0.1355 -0.0242  0.4153
   17PSPI   C2A  232  13.878  18.365   8.635  0.2042 -0.1998 -0.1233
   17PSPI   C3A  233  13.741  18.426   8.252  0.0000 -0.0339  0.0264
   17PSPI   C4A  234  13.918  18.635   7.901 -0.0860 -0.0211  0.0137
   17PSPI   C1B  235  13.589  17.618   8.783 -0.1540  0.1847 -0.0979
   17PSPI   C2B  236  13.552  17.530   8.354  0.0272 -0.3272 -0.1162
   17PSPI   C3B  237  13.410  17.436   7.996  0.1463 -0.0685  0.2864
   17PSPI   C4B  238  13.292  17.383   7.624  0.0769 -0.2190 -0.1011
   18PSPI    C1  239  13.054   9.837  10.998  0.0134  0.1679 -0.2630
   18PSPI    C2  240  12.855   9.581  11.232 -0.1623  0.2456 -0.3262
   18PSPI    C3  241  13.250   9.626  11.275 -0.1997  0.2929 -0.0131
   18PSPI   PO4  242  12.993   9.780  10.715 -0.2269  0.0767  0.1622
   18PSPI   GL1  243  13.269   9.914  10.359  0.0931 -0.1899  0.2133
   18PSPI   GL2  244  13.424   9.502  10.434 -0.1334  0.0211 -0.1289
   18PSPI   C1A  245  13.290   9.711   9.969 -0.0027 -0.1451 -0.0279
   18PSPI   C2A  246  13.198   9.588   9.569  0.2392  0.1306 -0.1516
   18PSPI   C3A  247  13.163   9.709   9.184  0.0520 -0.0672 -0.0017
   18PSPI   C4A  248  13.074  10.119   9.101 -0.2238  0.2466  0.4336
   18PSPI   C1B  249  13.709   9.441  10.088 -0.1650 -0.1551  0.1020
   18PSPI   C2B  250  13.654   9.494   9.584  0.0031 -0.1643  0.0781
   18PSPI   C3B  251  13.854   9.645   9.281 -0.0206  0.2420 -0.3901
   18PSPI   C4B  252  14.082   9.401   9.029  0.1117  0.0983 -0.2402
   19PSPI    C1  253   8.140   1.550   9.544  0.1818 -0.0431 -0.0035
   19PSPI    C2  254   8.062   1.282   9.831  0.0607  0.0619  0.0626
   19PSPI    C3  255   8.277   1.609   9.915  0.0231  0.0940  0.0344
   19PSPI   PO4  256   7.834   1.684   9.450  0.1807  0.1410  0.1116
   19PSPI   GL1  257   7.805   1.649   9.041  0.1131 -0.1580  0.0075
   19PSPI   GL2  258   7.582   1.913   9.068 -0.0390  0.1685 -0.0722
   19PSPI   C1A  259   7.711   1.574   8.519  0.2814 -0.0381  0.1447
   19PSPI   C2A  260   7.758   1.814   8.154  0.0102 -0.1854 -0.0886
   19PSPI   C3A  261   7.747   1.905   7.623 -0.0669  0.0864 -0.0179
   19PSPI   C4A  262   7.711   1.619   7.352  0.1451  0.0014  0.1687
   19PSPI   C1B  263   7.611   2.063   8.601 -0.0461 -0.0514 -0.2224
   19PSPI   C2B  264   7.386   2.168   8.303 -0.2736  0.2134 -0.2001
   19PSPI   C3B  265   7.288   1.941   8.004 -0.1250  0.0647 -0.3884
   19PSPI   C4B  266   7.233   1.741   7.563 -0.3144 -0.0375  0.1885
   20PSPI    C1  267  13.995   6.252  10.721  0.0056 -0.0947  0.0671
   20PSPI    C2  268  13.800   5.903  10.736  0.1265 -0.1644  0.0300
   20PSPI    C3  269  14.121   5.963  10.967  0.1185 -0.0854  0.0209
   20PSPI   PO4  270  14.062   6.269  10.501 -0.2158 -0.0815  0.3080
   20PSPI   GL1  271  14.065   6.303  10.147  0.0010  0.0463  0.1502
   20PSPI   GL2  272  14.329   6.128   9.894  0.0560  0.0282  0.0864
   20PSPI   C1A  273  14.120   6.589   9.856 -0.0682 -0.2705  0.2645
   20PSPI   C2A  274  13.958   6.777   9.464 -0.3768  0.1274 -0.2783
   20PSPI   C3A  275  13.984   7.118   9.142 -0.0757  0.0059 -0.1756
   20PSPI   C4A  276  13.912   7.302   8.806 -0.0092 -0.0484 -0.0570
   20PSPI   C1B  277  14.254   6.118   9.591 -0.3510 -0.1846  0.0919
   20PSPI   C2B  278  14.212   6.237   9.204 -0.1897  0.3761  0.1468
   20PSPI   C3B  279  14.310   5.910   8.777 -0.0240  0.1909 -0.1795
   20PSPI   C4B  280  14.680   5.710   8.497 -0.2031 -0.0711  0.0774
   21POPI    C1  281  10.516   3.675  10.021  0.0317 -0.0562  0.0169
   21POPI    C2  282  10.404   3.922  10.315  0.0232  0.0901 -0.1077
   21POPI    C3  283  10.128   3.760  10.074  0.0231 -0.0935  0.0136
   21POPI   PO4  284  10.760   3.776   9.989 -0.2237  0.0143 -0.1213
   21POPI   GL1  285  10.776   4.016   9.631  0.0765 -0.1777 -0.2699
   21POPI   GL2  286  10.559   3.909   9.431  0.1141 -0.2484  0.0760
   21POPI   C1A  287  10.861   4.247   9.227 -0.3514 -0.1072  0.0630
   21POPI   D2A  288  10.979   4.261   8.870 -0.2822 -0.1116 -0.1147
   21POPI   C3A  289  10.862   4.329   8.463 -0.2232  0.1556  0.2673
   21POPI   C4A  290  11.017   4.204   8.060  0.1613 -0.1156  0.2409
   21POPI   C1B  291  10.441   3.930   9.074 -0.0765 -0.1791 -0.1253
   21POPI   C2B  292  10.517   3.907   8.619  0.1334 -0.0667 -0.0670
   21POPI   C3B  293  10.275   4.189   8.296 -0.1824  0.0814  0.4491
   21POPI   C4B  294  10.217   3.831   7.912 -0.0611 -0.1075  0.1800
   22POPI    C1  295  11.379   1.863   9.986  0.0765 -0.1299 -0.0041
   22POPI    C2  296  11.469   1.500  10.127 -0.3102 -0.2559 -0.0686
   22POPI    C3  297  11.657   1.822  10.271 -0.1126 -0.4596  0.1393
   22POPI   PO4  298  11.410   1.915   9.730 -0.1260 -0.1176 -0.0743
   22POPI   GL1  299  11.404   2.164   9.459 -0.0427 -0.0762 -0.0292
   22POPI   GL2  300  11.124   2.089   9.311 -0.0791 -0.1074  0.0199
   22POPI   C1A  301  11.455   2.262   8.960 -0.0355 -0.2965  0.1831
   22POPI   D2A  302  11.471   2.176   8.592  0.0454  0.3099  0.1079
   22POPI   C3A  303  11.528   2.008   8.137  0.0968  0.3141 -0.0995
   22POPI   C4A  304  11.384   1.772   7.830  0.0430 -0.1045  0.0117
   22POPI   C1B  305  10.901   2.183   8.992  0.1817  0.0307  0.1589
   22POPI   C2B  306  10.923   2.121   8.590 -0.3467  0.0907 -0.2673
   22POPI   C3B  307  11.146   2.375   8.216 -0.1324 -0.0097 -0.0545
   22POPI   C4B  308  11.382   2.353   7.821 -0.1233  0.3733  0.2241
   23POPI    C1  309   5.456   4.419  10.945 -0.1576  0.0790  0.1143
   23POPI    C2  310   5.291   4.177  11.217 -0.1824 -0.0378 -0.0032
   23POPI    C3  311   5.612   4.056  11.011 -0.3603 -0.0820 -0.2588
   23POPI   PO4  312   5.279   4.472  10.701 -0.0529  0.1390 -0.0832
   23POPI   GL1  313   5.316   4.320  10.295  0.2622  0.0085 -0.0956
   23POPI   GL2  314   4.977   4.350  10.379  0.1897  0.0344  0.3192
   23POPI   C1A  315   5.141   4.298   9.879  0.2459  0.1505 -0.0215
   23POPI   D2A  316   4.885   4.324   9.512 -0.3583 -0.2048  0.0650
   23POPI   C3A  317   5.093   4.146   9.079  0.2109  0.0076  0.0479
   23POPI   C4A  318   4.958   3.823   8.708 -0.3093 -0.3960 -0.1232
   23POPI   C1B  319   4.738   3.973  10.009  0.1400 -0.5671 -0.0897
   23POPI   C2B  320   4.576   3.865   9.546 -0.0501 -0.2712 -0.1139
   23POPI   C3B  321   4.588   3.916   9.050 -0.0623  0.0477 -0.2510
   23POPI   C4B  322   4.619   4.262   8.654  0.2574  0.1631  0.1373
   24POPI    C1  323  11.575  14.551  10.299  0.1538 -0.1865  0.1245
   24POPI    C2  324  11.244  14.568  10.524  0.0622  0.3193 -0.0350
   24POPI    C3  325  11.599  14.659  10.684  0.0729  0.1559  0.0368
   24POPI   PO4  326  11.474  14.309  10.061  0.3132 -0.1379 -0.1146
   24POPI   GL1  327  11.414  14.243   9.614  0.1079  0.0035 -0.0225
   24POPI   GL2  328  11.691  14.387   9.595  0.1828  0.2948 -0.0470
   24POPI   C1A  329  11.093  14.001   9.353  0.0074  0.0986 -0.1174
   24POPI   D2A  330  10.832  14.003   8.979  0.0857 -0.0430  0.2445
   24POPI   C3A  331  10.952  13.872   8.587  0.0261 -0.2213 -0.2253
   24POPI   C4A  332  10.829  13.662   8.308  0.0908  0.1131 -0.2873
   24POPI   C1B  333  11.702  14.780   9.313  0.0443  0.0294 -0.1125
   24POPI   C2B  334  11.606  14.669   8.909 -0.1366 -0.0288  0.1156
   24POPI   C3B  335  11.525  14.755   8.592  0.0712 -0.0481  0.0105
   24POPI   C4B  336  11.572  15.007   8.214 -0.0801  0.0705  0.1735
   25POPI    C1  337   1.213  11.102  10.831  0.0202  0.1265  0.1140
   25POPI    C2  338   1.162  10.839  11.128 -0.0815 -0.0218 -0.0328
   25POPI    C3  339   1.317  11.200  11.204 -0.3133  0.0242  0.2376
   25POPI   PO4  340   1.239  10.937  10.620  0.2174  0.1110 -0.0113
   25POPI   GL1  341   1.435  11.069  10.189 -0.0993 -0.2274  0.2389
   25POPI   GL2  342   1.124  11.034  10.097 -0.0046  0.0995  0.0828
   25POPI   C1A  343   1.543  11.204   9.759  0.1019 -0.1963 -0.2174
   25POPI   D2A  344   1.544  10.925   9.402  0.0987 -0.0761  0.1072
   25POPI   C3A  345   1.175  10.699   9.212  0.0515  0.2641  0.1068
   25POPI   C4A  346   0.925  10.777   8.766 -0.2638  0.3391  0.1303
   25POPI   C1B  347   1.238  10.686   9.797  0.0590 -0.1030 -0.0934
   25POPI   C2B  348   1.083  10.358   9.594  0.0257  0.0331  0.1444
   25POPI   C3B  349   1.004  10.234   9.071 -0.1947 -0.1865 -0.0456
   25POPI   C4B  350   1.097  10.301   8.752 -0.4975  0.0300 -0.1409
   26POPI    C1  351   1.172   2.836  10.601  0.0810 -0.0912  0.1479
   26POPI    C2  352   1.044   2.948  10.963 -0.0515 -0.0088  0.0763
   26POPI    C3  353   0.891   3.118  10.635  0.1398 -0.0118 -0.0159
   26POPI   PO4  354   1.166   2.590  10.559  0.0078  0.1160  0.0049
   26POPI   GL1  355   1.195   2.373  10.139  0.0412 -0.2779 -0.0687
   26POPI   GL2  356   1.358   2.577   9.968  0.0653 -0.3255 -0.3111
   26POPI   C1A  357   0.957   2.121   9.834  0.0818 -0.0897  0.1803
   26POPI   D2A  358   0.694   1.733   9.826  0.0189  0.1069  0.1266
   26POPI   C3A  359   0.517   1.530   9.475  0.1242 -0.0987 -0.1751
   26POPI   C4A  360   0.205   1.763   9.154  0.0562 -0.2459 -0.1290
   26POPI   C1B  361   1.301   2.504   9.615  0.1238  0.2232  0.1089
   26POPI   C2B  362   1.361   2.655   9.232  0.0317 -0.1851 -0.3451
   26POPI   C3B  363   1.464   2.675   8.887  0.0465  0.1929  0.1336
   26POPI   C4B  364   1.362   2.723   8.430  0.1757 -0.2079  0.0751
   27POPI    C1  365  10.074  17.851   9.414 -0.0334  0.2246 -0.4069
   27POPI    C2  366  10.278  18.190   9.359  0.1201  0.2138  0.0515
   27POPI    C3  367  10.120  18.108   9.717  0.2864 -0.3064  0.0146
   27POPI   PO4  368  10.049  17.823   9.095  0.1435 -0.4060  0.1611
   27POPI   GL1  369  10.366  17.915   8.764 -0.1394 -0.2895  0.0016
   27POPI   GL2  370  10.604  18.022   9.057 -0.0438  0.0178  0.2354
   27POPI   C1A  371  10.528  18.180   8.490  0.3045 -0.1471 -0.2868
   27POPI   D2A  372  10.761  18.448   8.264 -0.0128  0.0569 -0.2234
   27POPI   C3A  373  10.846  18.227   7.821  0.1163 -0.1857  0.0434
   27POPI   C4A  374  10.941  18.157   7.390  0.0513  0.1096 -0.0259
   27POPI   C1B  375  10.855  17.853   8.748 -0.1924 -0.0823 -0.2098
   27POPI   C2B  376  10.996  17.887   8.307 -0.1547 -0.0587 -0.0356
   27POPI   C3B  377  11.051  17.780   7.913  0.0029 -0.1165 -0.1137
   27POPI   C4B  378  11.340  18.060   7.724 -0.3312  0.1585 -0.0374
   28POPI    C1  379   6.221   0.741   9.863 -0.0561 -0.0012  0.1780
   28POPI    C2  380   6.385   0.602  10.200  0.2522  0.2903  0.1528
   28POPI    C3  381   6.373   0.996  10.131  0.0878  0.2387 -0.1258
   28POPI   PO4  382   6.407   0.632   9.667  0.1161 -0.2685  0.2247
   28POPI   GL1  383   6.225   0.533   9.259 -0.0042  0.0116  0.0406
   28POPI   GL2  384   6.322   0.965   9.211 -0.1570  0.0333 -0.3451
   28POPI   C1A  385   6.327   0.267   8.924 -0.1450 -0.3683 -0.1737
   28POPI   D2A  386   6.175   0.257   8.469  0.0054 -0.0500 -0.3087
   28POPI   C3A  387   6.382   0.226   8.097 -0.2720 -0.0060  0.0109
   28POPI   C4A  388   6.621   0.101   7.717 -0.1114 -0.5120  0.0270
   28POPI   C1B  389   6.191   1.082   8.769 -0.0904 -0.0399  0.1407
   28POPI   C2B  390   6.119   1.189   8.385 -0.1113 -0.0315  0.0586
   28POPI   C3B  391   5.987   1.413   7.964  0.0201 -0.0429 -0.2241
   28POPI   C4B  392   5.916   1.559   7.517 -0.0778  0.0797 -0.0200
   29POPI    C1  393  17.900   4.318  10.779 -0.1563 -0.4486  0.0867
   29POPI    C2  394  17.566   4.523  10.862  0.1652 -0.0111  0.3478
   29POPI    C3  395  17.906   4.718  10.783  0.3308 -0.4482 -0.0707
   29POPI   PO4  396  17.798   4.160  10.508  0.0936 -0.2366  0.0277
   29POPI   GL1  397  17.633   3.864  10.149 -0.0241 -0.1809 -0.0363
   29POPI   GL2  398  17.547   4.182   9.998 -0.2645 -0.0825 -0.1031
   29POPI   C1A  399  17.448   3.651   9.777  0.1862  0.0368 -0.0503
   29POPI   D2A  400  17.309   3.563   9.317  0.2094  0.0898 -0.0290
   29POPI   C3A  401  17.344   3.548   8.948 -0.0583  0.1369 -0.1522
   29POPI   C4A  402  17.452   3.338   8.625 -0.1407 -0.1192  0.2164
   29POPI   C1B  403  17.461   4.096   9.619 -0.0231  0.0340 -0.4459
   29POPI   C2B  404  17.634   3.942   9.287  0.3706 -0.1786  0.0235
   29POPI   C3B  405  17.669   4.036   8.940  0.0951 -0.0351 -0.0649
   29POPI   C4B  406  17.608   3.867   8.513 -0.0265 -0.0082 -0.0066
   30POPI    C1  407   3.476   9.075  10.843  0.1984  0.0829  0.1905
   30POPI    C2  408   3.451   9.371  10.576 -0.0607 -0.0634  0.0489
   30POPI    C3  409   3.182   9.344  10.871  0.2255  0.0985  0.3309
   30POPI   PO4  410   3.606   8.903  10.669  0.1025 -0.1554 -0.1074
   30POPI   GL1  411   3.705   9.087  10.274 -0.1680  0.1034 -0.0285
   30POPI   GL2  412   3.400   9.002  10.221 -0.1780  0.1178 -0.1099
   30POPI   C1A  413   3.897   9.166   9.913 -0.2856 -0.1409  0.0016
   30POPI   D2A  414   3.791   9.087   9.496  0.0112 -0.2569  0.1657
   30POPI   C3A  415   3.820   9.252   9.150 -0.2984 -0.2051  0.1046
   30POPI   C4A  416   3.888   9.381   8.718 -0.1381  0.1262  0.1149
   30POPI   C1B  417   3.588   8.776   9.847 -0.2187  0.2939  0.2028
   30POPI   C2B  418   3.627   8.625   9.420  0.0441 -0.4531  0.2835
   30POPI   C3B  419   3.847   8.691   9.051 -0.3207 -0.0927  0.0190
   30POPI   C4B  420   4.143   8.975   8.832 -0.2256  0.0234 -0.0635
   31POPI    C1  421   8.831   5.962  10.446  0.1409 -0.2041  0.2099
   31POPI    C2  422   8.481   6.122  10.338  0.2851 -0.0985 -0.1129
   31POPI    C3  423   8.512   5.726  10.390  0.0536 -0.0815  0.1874
   31POPI   PO4  424   8.957   6.128  10.260  0.4378  0.2268 -0.3216
   31POPI   GL1  425   8.729   6.019   9.921  0.0486 -0.2427 -0.4342
   31POPI   GL2  426   8.674   6.334   9.824  0.1803  0.0776  0.3084
   31POPI   C1A  427   8.808   5.823   9.611  0.0898  0.0137  0.1718
   31POPI   D2A  428   8.790   5.544   9.301 -0.0071  0.1536 -0.1652
   31POPI   C3A  429   8.562   5.630   8.949 -0.1254  0.0159 -0.0437
   31POPI   C4A  430   8.545   6.030   8.672 -0.1111  0.0468 -0.0465
   31POPI   C1B  431   8.981   6.278   9.484  0.1385  0.1565 -0.0606
   31POPI   C2B  432   8.879   6.039   9.120  0.0345 -0.0009  0.0888
   31POPI   C3B  433   8.985   5.830   8.756 -0.1358 -0.0514 -0.1158
   31POPI   C4B  434   8.898   5.871   8.294 -0.2720  0.0076  0.0612
   32POPI    C1  435  16.308   5.763  10.359 -0.0292 -0.0713  0.1050
   32POPI    C2  436  15.931   5.674  10.259 -0.0109 -0.1479  0.1033
   32POPI    C3  437  16.206   5.384  10.282  0.0655 -0.0819  0.0286
   32POPI   PO4  438  16.287   6.004  10.202  0.1242 -0.0793  0.2729
   32POPI   GL1  439  15.965   6.162   9.982  0.0560  0.2124  0.0212
   32POPI   GL2  440  15.752   5.857   9.831 -0.2543  0.0444 -0.0158
   32POPI   C1A  441  16.024   6.431   9.665  0.0003  0.0332  0.3102
   32POPI   D2A  442  15.948   6.600   9.251 -0.2082  0.1343 -0.0206
   32POPI   C3A  443  16.034   6.841   8.970 -0.1127  0.0271 -0.0885
   32POPI   C4A  444  16.234   7.252   8.670  0.1723  0.0308  0.1424
   32POPI   C1B  445  15.699   5.767   9.375 -0.3756 -0.1935  0.3500
   32POPI   C2B  446  15.710   5.924   8.940  0.0863 -0.1035 -0.1987
   32POPI   C3B  447  15.588   6.055   8.575 -0.1027  0.1520  0.2560
   32POPI   C4B  448  15.544   6.104   8.127 -0.0224 -0.0093  0.1043
   33POPI    C1  449   3.474   0.361  10.324  0.1274 -0.0758  0.3138
   33POPI    C2  450   3.625   0.683  10.507  0.1803  0.1361 -0.0906
   33POPI    C3  451   3.229   0.642  10.468  0.1704  0.1082  0.0362
   33POPI   PO4  452   3.622   0.383  10.090  0.0249 -0.0610  0.0893
   33POPI   GL1  453   3.676   0.281   9.769 -0.0736  0.2403  0.0651
   33POPI   GL2  454   4.024   0.377   9.815  0.0806  0.2536 -0.1348
   33POPI   C1A  455   3.823   0.729   9.571  0.1284 -0.0355 -0.0804
   33POPI   D2A  456   3.988   0.939   9.343 -0.0316 -0.2476  0.1518
   33POPI   C3A  457   3.956   0.791   8.958  0.1096 -0.1117 -0.1708
   33POPI   C4A  458   3.995   1.046   8.679  0.1477  0.0631 -0.2596
   33POPI   C1B  459   4.152   0.371   9.418 -0.0835  0.0098  0.2317
   33POPI   C2B  460   4.114   0.328   9.094 -0.0096  0.0865 -0.1932
   33POPI   C3B  461   4.209   0.483   8.732 -0.1162  0.0512 -0.0978
   33POPI   C4B  462   4.483   0.669   8.403  0.0747  0.3175 -0.0244
   34POPI    C1  463   9.749  17.012   9.782  0.0371  0.1191  0.0508
   34POPI    C2  464   9.916  16.743  10.026  0.0651  0.1646  0.0819
   34POPI    C3  465   9.523  16.815  10.046  0.0811  0.2289  0.1716
   34POPI   PO4  466   9.948  17.183   9.683 -0.2616  0.2438 -0.1595
   34POPI   GL1  467   9.998  17.369   9.321  0.1252  0.3209  0.0583
   34POPI   GL2  468   9.759  17.445   9.069  0.1143 -0.1105  0.0876
   34POPI   C1A  469  10.054  17.056   9.049  0.0931  0.0637  0.3405
   34POPI   D2A  470  10.388  16.913   8.777  0.1228 -0.0680  0.1441
   34POPI   C3A  471  10.414  16.894   8.312  0.0585 -0.1754 -0.1206
   34POPI   C4A  472  10.536  17.052   7.932 -0.0194  0.0289 -0.0995
   34POPI   C1B  473   9.620  17.508   8.637  0.3405  0.1203  0.1624
   34POPI   C2B  474   9.759  17.598   8.230 -0.1022 -0.1350 -0.0236
   34POPI   C3B  475   9.920  17.591   7.893  0.2072  0.0267  0.2505
   34POPI   C4B  476  10.199  17.410   7.639 -0.0205  0.0556  0.1984
   35POPI    C1  477  12.362  17.912  10.149 -0.1194 -0.0173  0.1318
   35POPI    C2  478  12.712  18.096  10.212  0.0941 -0.3214 -0.1383
   35POPI    C3  479  12.570  17.838  10.483 -0.0125 -0.0638  0.0552
   35POPI   PO4  480  12.427  17.778   9.887  0.1438  0.0115  0.0105
   35POPI   GL1  481  12.383  17.795   9.507  0.3156  0.1150  0.0894
   35POPI   GL2  482  12.572  17.548   9.299  0.2076  0.1196 -0.4427
   35POPI   C1A  483  11.953  17.643   9.269  0.1792 -0.0109  0.2838
   35POPI   D2A  484  11.705  17.389   9.097 -0.1696  0.0299 -0.0218
   35POPI   C3A  485  11.656  17.450   8.716  0.1610 -0.0709  0.3618
   35POPI   C4A  486  11.877  17.685   8.414 -0.0727  0.4947 -0.1045
   35POPI   C1B  487  12.842  17.305   9.048 -0.1319 -0.0725  0.1149
   35POPI   C2B  488  13.120  17.227   8.806 -0.0126 -0.1495  0.2486
   35POPI   C3B  489  13.285  17.171   8.462 -0.0283 -0.0948 -0.1208
   35POPI   C4B  490  13.159  17.009   8.130  0.1408 -0.0648 -0.0375
   36POPI    C1  491   6.331   8.849  10.998 -0.0953  0.2370 -0.1076
   36POPI    C2  492   6.576   9.121  11.157 -0.2048  0.1861  0.1536
   36POPI    C3  493   6.223   9.234  11.008 -0.0778  0.2420 -0.1110
   36POPI   PO4  494   6.656   8.780  10.782 -0.1193  0.1692 -0.0826
   36POPI   GL1  495   6.608   8.771  10.301  0.0394 -0.4327  0.1290
   36POPI   GL2  496   6.435   8.621  10.075 -0.2358 -0.0161  0.1635
   36POPI   C1A  497   6.846   8.946   9.927  0.2971 -0.0890  0.0166
   36POPI   D2A  498   6.952   9.010   9.557  0.1988 -0.0328 -0.0686
   36POPI   C3A  499   6.953   8.678   9.204 -0.1792  0.2179 -0.0060
   36POPI   C4A  500   7.015   8.762   8.769 -0.1325 -0.2321 -0.0077
   36POPI   C1B  501   6.559   8.658   9.648  0.6209 -0.1402 -0.2384
   36POPI   C2B  502   6.440   8.716   9.255 -0.0633  0.0995 -0.3314
   36POPI   C3B  503   6.601   8.456   8.907  0.1476 -0.0211 -0.1824
   36POPI   C4B  504   6.495   8.317   8.472  0.1321 -0.1940 -0.0575
   37POPI    C1  505   9.748   5.050  10.268  0.0761 -0.1324  0.0823
   37POPI    C2  506   9.934   4.715  10.384 -0.1124 -0.2627  0.0128
   37POPI    C3  507   9.863   5.007  10.649  0.2281 -0.1921  0.0304
   37POPI   PO4  508   9.823   5.131  10.045  0.3358  0.1839  0.3797
   37POPI   GL1  509   9.691   5.181   9.695  0.0570 -0.0324 -0.0586
   37POPI   GL2  510   9.559   4.844   9.571 -0.0857 -0.5048 -0.1504
   37POPI   C1A  511   9.728   5.229   9.242 -0.0485 -0.1310 -0.1550
   37POPI   D2A  512   9.895   5.201   8.784  0.0811 -0.1817 -0.0419
   37POPI   C3A  513   9.695   5.170   8.381  0.5069 -0.0447  0.0843
   37POPI   C4A  514   9.233   5.335   8.280  0.2151  0.0275  0.2908
   37POPI   C1B  515   9.486   4.736   9.217  0.0147  0.5037  0.1941
   37POPI   C2B  516   9.590   4.706   8.722 -0.0942  0.0830 -0.3424
   37POPI   C3B  517   9.761   4.601   8.260  0.1175  0.0172 -0.2665
   37POPI   C4B  518  10.099   4.627   8.070  0.2801  0.4552  0.1084
   38POPI    C1  519  13.885   9.867  10.862  0.1721  0.1060  0.0575
   38POPI    C2  520  13.706   9.685  11.170  0.0529  0.1173 -0.0042
   38POPI    C3  521  13.507   9.740  10.828  0.1906  0.0887 -0.0896
   38POPI   PO4  522  14.150   9.702  10.822  0.3660  0.2267  0.0059
   38POPI   GL1  523  14.194   9.585  10.424 -0.1104  0.0381 -0.0455
   38POPI   GL2  524  14.558   9.460  10.313 -0.1010 -0.2166 -0.1856
   38POPI   C1A  525  14.150   9.697  10.018 -0.1406 -0.0386 -0.0737
   38POPI   D2A  526  13.858   9.943   9.791  0.0557  0.3771 -0.3023
   38POPI   C3A  527  13.916  10.140   9.356 -0.0249 -0.1202 -0.0600
   38POPI   C4A  528  13.821  10.392   8.936 -0.1921  0.3507 -0.0135
   38POPI   C1B  529  14.607   9.518   9.914  0.0499  0.0208  0.1993
   38POPI   C2B  530  14.849   9.681   9.552  0.3178  0.2137  0.1179
   38POPI   C3B  531  15.144   9.802   9.269 -0.3049  0.1406  0.1794
   38POPI   C4B  532  15.339   9.830   8.872  0.1028 -0.0515  0.0044
   39POPI    C1  533   9.657  14.902  10.260 -0.2380  0.0168  0.0140
   39POPI    C2  534   9.892  15.142  10.477 -0.1099 -0.2592  0.1863
   39POPI    C3  535   9.496  15.141  10.537 -0.1404  0.0835  0.0135
   39POPI   PO4  536   9.692  14.982   9.988 -0.1252  0.1201  0.0412
   39POPI   GL1  537   9.692  14.878   9.578  0.0319 -0.0134 -0.0504
   39POPI   GL2  538   9.933  14.672   9.488  0.0752 -0.0046 -0.4540
   39POPI   C1A  539   9.458  14.730   9.146 -0.1608 -0.1974 -0.3858
   39POPI   D2A  540   9.587  14.726   8.872  0.1585  0.1515 -0.1071
   39POPI   C3A  541   9.570  14.630   8.486  0.1766 -0.0044  0.1775
   39POPI   C4A  542   9.624  14.290   8.220 -0.1673 -0.0701 -0.0212
   39POPI   C1B  543  10.140  14.492   9.214 -0.1107 -0.1855  0.0315
   39POPI   C2B  544  10.037  14.473   8.717 -0.1085 -0.1312  0.3278
   39POPI   C3B  545  10.100  14.324   8.439 -0.0519  0.0665 -0.0615
   39POPI   C4B  546  10.248  14.254   8.035  0.0771  0.1223  0.1096
   40POPI    C1  547  16.776  15.422  10.595 -0.4230  0.0261 -0.2367
   40POPI    C2  548  16.989  15.147  10.397  0.0917  0.2099  0.0423
   40POPI    C3  549  16.844  15.063  10.760  0.0494  0.2272  0.0294
   40POPI   PO4  550  16.664  15.560  10.368 -0.3067 -0.0241  0.0290
   40POPI   GL1  551  16.725  15.451  10.038 -0.1662 -0.0080 -0.0241
   40POPI   GL2  552  16.782  15.829   9.924  0.0002 -0.2473  0.1613
   40POPI   C1A  553  16.473  15.355   9.730 -0.0424 -0.1817  0.0721
   40POPI   D2A  554  16.052  15.409   9.748  0.0416 -0.1350  0.2362
   40POPI   C3A  555  15.825  15.216   9.411  0.0899  0.1958  0.3240
   40POPI   C4A  556  15.794  15.071   8.986 -0.0417  0.2640 -0.1108
   40POPI   C1B  557  16.759  15.645   9.487  0.1293  0.0484 -0.2255
   40POPI   C2B  558  16.833  15.687   9.050 -0.1940 -0.0209  0.1082
   40POPI   C3B  559  16.994  15.839   8.607 -0.2142  0.0614  0.0048
   40POPI   C4B  560  16.897  15.858   8.232 -0.1172 -0.0657 -0.0952
   41POPI    C1  561  10.946  15.775   9.929  0.1420 -0.1898 -0.1018
   41POPI    C2  562  10.766  15.683  10.275  0.0474 -0.0413 -0.1106
   41POPI    C3  563  11.149  15.799  10.273  0.0270  0.0282 -0.0469
   41POPI   PO4  564  10.897  15.556   9.767 -0.0628  0.1883 -0.0534
   41POPI   GL1  565  10.918  15.446   9.365  0.0348  0.0072 -0.0900
   41POPI   GL2  566  11.160  15.619   9.321  0.1705  0.1032 -0.1765
   41POPI   C1A  567  10.953  15.403   8.879  0.0777 -0.2283  0.2093
   41POPI   D2A  568  11.239  15.254   8.562  0.1329  0.0405 -0.1362
   41POPI   C3A  569  11.058  15.221   8.123 -0.4116 -0.2236  0.1758
   41POPI   C4A  570  10.753  15.381   7.783  0.0929 -0.2467  0.1849
   41POPI   C1B  571  11.321  15.692   8.964  0.0363  0.1225 -0.1131
   41POPI   C2B  572  11.568  15.892   8.685 -0.0089  0.1488  0.1521
   41POPI   C3B  573  11.686  16.046   8.292  0.0623 -0.0615 -0.0075
   41POPI   C4B  574  11.526  16.237   7.864  0.1176 -0.0452 -0.1057
   42POPI    C1  575  13.688   7.775  11.166 -0.0560  0.0820 -0.0536
   42POPI    C2  576  13.790   7.474  10.923  0.0265  0.1012 -0.0431
   42POPI    C3  577  13.983   7.526  11.269  0.1651  0.3005 -0.1481
   42POPI   PO4  578  13.581   7.959  10.940  0.1702 -0.3608 -0.1133
   42POPI   GL1  579  13.282   8.001  10.634  0.2755 -0.1603  0.1852
   42POPI   GL2  580  12.883   8.075  10.576  0.2585  0.2207 -0.1675
   42POPI   C1A  581  13.568   7.962  10.236 -0.1966 -0.1220  0.2368
   42POPI   D2A  582  13.947   8.018  10.013  0.0564 -0.1207  0.0494
   42POPI   C3A  583  14.077   8.333   9.721  0.1196 -0.1753  0.1146
   42POPI   C4A  584  14.431   8.329   9.482  0.1501  0.0373  0.1872
   42POPI   C1B  585  13.118   8.172  10.243  0.0899  0.1399 -0.1545
   42POPI   C2B  586  13.161   8.145   9.784  0.0309  0.3032  0.2814
   42POPI   C3B  587  13.394   8.107   9.419  0.2939 -0.0316  0.2016
   42POPI   C4B  588  13.624   8.118   8.999 -0.1227  0.0968  0.1262
   43POPI    C1  589   2.082  12.024  10.607 -0.2617  0.2229 -0.1017
   43POPI    C2  590   1.736  11.865  10.730 -0.1305  0.0675  0.0721
   43POPI    C3  591   2.055  11.630  10.673 -0.1012  0.1828 -0.2660
   43POPI   PO4  592   2.079  12.182  10.391  0.2720 -0.0392  0.4050
   43POPI   GL1  593   2.210  12.362  10.018 -0.0580 -0.0770  0.1788
   43POPI   GL2  594   2.170  12.666  10.070 -0.0062  0.1519  0.0642
   43POPI   C1A  595   2.257  12.258   9.512 -0.1119 -0.2023  0.2727
   43POPI   D2A  596   2.188  12.249   8.984 -0.1133 -0.2905  0.0811
   43POPI   C3A  597   2.354  12.364   8.624  0.0636  0.0275  0.1400
   43POPI   C4A  598   2.490  12.372   8.141  0.0773  0.0037 -0.2158
   43POPI   C1B  599   2.421  12.725   9.669  0.2295  0.2859  0.2476
   43POPI   C2B  600   2.586  12.564   9.283 -0.4462 -0.0578 -0.0059
   43POPI   C3B  601   2.759  12.390   8.940  0.1687  0.1975  0.1026
   43POPI   C4B  602   2.853  12.376   8.455 -0.0630 -0.4239 -0.1359
   44POPI    C1  603  17.059   9.763  10.742 -0.2380 -0.1071  0.3372
   44POPI    C2  604  17.069   9.779  11.141 -0.0488  0.0539  0.3278
   44POPI    C3  605  17.368   9.936  10.927 -0.0929 -0.1340  0.1242
   44POPI   PO4  606  16.861   9.911  10.659  0.1334  0.0814 -0.0333
   44POPI   GL1  607  16.732   9.965  10.311 -0.0994  0.0623  0.2385
   44POPI   GL2  608  16.447  10.170  10.361  0.0880 -0.0242  0.0512
   44POPI   C1A  609  16.558   9.657  10.025 -0.3149 -0.3406  0.2109
   44POPI   D2A  610  16.270   9.395   9.812  0.1066  0.0702 -0.0217
   44POPI   C3A  611  16.327   9.266   9.356 -0.0754 -0.0566 -0.0141
   44POPI   C4A  612  16.170   9.238   9.013 -0.1140  0.2848  0.0276
   44POPI   C1B  613  16.468  10.122   9.884 -0.0866  0.5268  0.1012
   44POPI   C2B  614  16.749  10.152   9.553  0.0521  0.3630 -0.1321
   44POPI   C3B  615  17.108  10.110   9.241  0.0261 -0.0134 -0.0398
   44POPI   C4B  616  17.361  10.246   8.878 -0.2592  0.1598  0.1876
   45POPI    C1  617   6.293   2.812  10.475 -0.0454 -0.3430  0.0380
   45POPI    C2  618   5.911   2.927  10.511 -0.0000 -0.1138 -0.1874
   45POPI    C3  619   6.060   2.649  10.757 -0.2692 -0.0958  0.0000
   45POPI   PO4  620   6.291   2.951  10.137  0.1412  0.2713  0.1483
   45POPI   GL1  621   6.135   3.098   9.734  0.1417  0.1785  0.2400
   45POPI   GL2  622   5.871   2.971   9.916  0.1573 -0.2652  0.0762
   45POPI   C1A  623   6.011   3.121   9.275 -0.0239 -0.1355  0.4309
   45POPI   D2A  624   5.873   3.272   8.854 -0.0560  0.1882  0.1129
   45POPI   C3A  625   6.188   3.423   8.590  0.0642 -0.0894  0.1788
   45POPI   C4A  626   6.474   3.402   8.291  0.0379  0.1915  0.1013
   45POPI   C1B  627   5.602   3.024   9.598  0.0246  0.1016 -0.0450
   45POPI   C2B  628   5.449   3.162   9.123 -0.3247 -0.0422 -0.1065
   45POPI   C3B  629   5.469   3.384   8.571 -0.1828 -0.0848 -0.2089
   45POPI   C4B  630   5.760   3.664   8.402  0.0043 -0.0650  0.0520
   46POPI    C1  631  16.814  10.753  11.005  0.0489 -0.0741  0.0472
   46POPI    C2  632  16.826  11.001  11.318 -0.1618 -0.1362  0.1065
   46POPI    C3  633  17.151  10.791  11.217 -0.0876 -0.1031  0.2724
   46POPI   PO4  634  16.737  10.859  10.867 -0.2005 -0.3371 -0.1170
   46POPI   GL1  635  16.702  10.935  10.348 -0.1988 -0.0307  0.0563
   46POPI   GL2  636  16.514  10.654  10.157  0.0249  0.3664  0.3854
   46POPI   C1A  637  16.792  11.202   9.970  0.1485 -0.2484 -0.0947
   46POPI   D2A  638  16.483  11.006   9.756 -0.0211  0.0488  0.0335
   46POPI   C3A  639  16.468  11.029   9.320 -0.0664  0.3185 -0.0125
   46POPI   C4A  640  16.502  10.850   8.846  0.1250  0.1123 -0.0846
   46POPI   C1B  641  16.229  10.554   9.770 -0.0092 -0.1353 -0.3574
   46POPI   C2B  642  15.921  10.404   9.474  0.0146  0.0612 -0.1100
   46POPI   C3B  643  15.696  10.491   9.178 -0.1645 -0.1554 -0.1604
   46POPI   C4B  644  15.589  10.291   8.828 -0.0889 -0.0282 -0.1948
   47POPI    C1  645  13.922   4.016  10.200  0.2166 -0.3067  0.0372
   47POPI    C2  646  14.120   4.350  10.298 -0.2724 -0.0203  0.0802
   47POPI    C3  647  13.962   4.119  10.584  0.0308 -0.2736  0.0484
   47POPI   PO4  648  13.750   4.127   9.985 -0.0266 -0.1027  0.0659
   47POPI   GL1  649  13.570   4.094   9.621  0.2057 -0.0943 -0.1340
   47POPI   GL2  650  13.568   3.754   9.593  0.1828 -0.0511  0.1039
   47POPI   C1A  651  13.288   4.152   9.304  0.1118 -0.0224  0.2889
   47POPI   D2A  652  12.953   4.325   9.055 -0.2044  0.1072  0.5380
   47POPI   C3A  653  12.812   4.318   8.654 -0.0876  0.3741 -0.3555
   47POPI   C4A  654  12.644   4.154   8.331 -0.0635 -0.0289 -0.0191
   47POPI   C1B  655  13.464   3.669   9.234  0.2196 -0.3498  0.4527
   47POPI   C2B  656  13.420   3.537   8.772 -0.1608  0.1262 -0.3223
   47POPI   C3B  657  13.537   3.701   8.504  0.1842  0.1647 -0.3163
   47POPI   C4B  658  13.527   3.487   8.220  0.0633  0.0054  0.3055
   48POPI    C1  659   0.801  15.046  10.519 -0.0482  0.0064  0.0544
   48POPI    C2  660   0.881  15.418  10.396  0.1266 -0.0221  0.0787
   48POPI    C3  661   0.738  15.356  10.764  0.3901 -0.0019  0.1866
   48POPI   PO4  662   0.993  14.962  10.272 -0.0621  0.1799  0.2923
   48POPI   GL1  663   1.122  14.983   9.878  0.0341  0.1386  0.0815
   48POPI   GL2  664   1.400  14.889   9.864  0.2254 -0.0394 -0.0121
   48POPI   C1A  665   1.045  14.852   9.404  0.3956  0.3677  0.0079
   48POPI   D2A  666   0.902  14.799   8.934 -0.1415 -0.2113  0.3977
   48POPI   C3A  667   0.683  14.573   8.585 -0.0415 -0.3231 -0.2623
   48POPI   C4A  668   0.695  14.739   8.173 -0.2561 -0.2395  0.2179
   48POPI   C1B  669   1.505  14.877   9.491 -0.3661  0.0620  0.0984
   48POPI   C2B  670   1.386  14.727   9.113 -0.1001  0.1291  0.2446
   48POPI   C3B  671   1.434  14.841   8.747  0.0713  0.1643 -0.3788
   48POPI   C4B  672   1.176  14.836   8.423  0.1899  0.2959 -0.3056
   49POPI    C1  673  11.463  10.652  10.941 -0.0739  0.2102  0.1600
   49POPI    C2  674  11.861  10.668  10.975 -0.0563  0.3734 -0.0974
   49POPI    C3  675  11.630  10.842  11.251  0.0450  0.1245  0.1493
   49POPI   PO4  676  11.454  10.740  10.645 -0.1933  0.0792 -0.1023
   49POPI   GL1  677  11.260  10.793  10.312  0.2175 -0.5181  0.1470
   49POPI   GL2  678  11.085  10.994  10.324  0.0583  0.0942 -0.1057
   49POPI   C1A  679  11.614  10.833  10.048  0.4060  0.1955  0.0122
   49POPI   D2A  680  11.748  10.695   9.762  0.2122  0.1079  0.0008
   49POPI   C3A  681  11.571  10.740   9.356 -0.1086  0.0381 -0.0816
   49POPI   C4A  682  11.321  10.869   8.997  0.2407 -0.3732  0.2580
   49POPI   C1B  683  10.996  11.238  10.021  0.2963  0.0509 -0.2087
   49POPI   C2B  684  10.866  11.287   9.580  0.3039 -0.1759 -0.2715
   49POPI   C3B  685  10.882  11.180   9.157  0.0796 -0.1530  0.0483
   49POPI   C4B  686  10.784  11.247   8.705 -0.1141 -0.1161 -0.1121
   50POPI    C1  687   8.270  13.958  10.634 -0.0205  0.0660 -0.1189
   50POPI    C2  688   8.232  13.567  10.706 -0.2670  0.0674 -0.2282
   50POPI    C3  689   7.907  13.791  10.648 -0.1390  0.3311  0.0444
   50POPI   PO4  690   8.477  13.992  10.415  0.0981 -0.0604 -0.2861
   50POPI   GL1  691   8.655  13.839  10.110 -0.0023  0.1976  0.0237
   50POPI   GL2  692   8.779  13.987   9.996 -0.0426  0.3237  0.0733
   50POPI   C1A  693   8.437  13.753   9.734  0.1877 -0.1860 -0.2341
   50POPI   D2A  694   8.425  13.721   9.259 -0.0036  0.5067 -0.3099
   50POPI   C3A  695   8.630  13.525   8.893 -0.1737 -0.0003 -0.2611
   50POPI   C4A  696   8.546  13.300   8.434 -0.1718 -0.0130  0.0376
   50POPI   C1B  697   8.877  13.982   9.571 -0.0186 -0.2266  0.0303
   50POPI   C2B  698   8.862  14.049   9.166 -0.2600  0.1670  0.3188
   50POPI   C3B  699   8.779  13.979   8.697 -0.1511  0.2997  0.4212
   50POPI   C4B  700   8.594  13.790   8.353 -0.0926 -0.0186  0.0249
   51POPI    C1  701   3.418  17.813  10.138 -0.1855 -0.0535  0.1201
   51POPI    C2  702   3.412  18.189  10.002 -0.0991 -0.0192  0.2097
   51POPI    C3  703   3.224  18.096  10.343 -0.1248 -0.0582  0.1849
   51POPI   PO4  704   3.733  17.780  10.138 -0.1594 -0.1279 -0.2823
   51POPI   GL1  705   4.026  17.950   9.779  0.3094  0.2671 -0.1378
   51POPI   GL2  706   3.768  18.036   9.683  0.2627  0.5420 -0.0858
   51POPI   C1A  707   4.110  17.695   9.350 -0.0264  0.3279  0.0621
   51POPI   D2A  708   4.129  17.684   8.951 -0.4126  0.3050  0.1584
   51POPI   C3A  709   4.365  17.267   8.890  0.1251 -0.2589  0.0608
   51POPI   C4A  710   4.550  16.930   8.786 -0.0742  0.0695 -0.0483
   51POPI   C1B  711   3.805  18.086   9.293 -0.0157  0.0860 -0.0942
   51POPI   C2B  712   3.847  18.158   8.958  0.2108 -0.1303 -0.3218
   51POPI   C3B  713   3.817  18.032   8.553 -0.2423 -0.0340 -0.0943
   51POPI   C4B  714   3.996  18.083   8.194 -0.3787 -0.2355 -0.3226
   52POPI    C1  715  11.385  15.045  10.158  0.0518 -0.1558  0.2379
   52POPI    C2  716  11.334  15.097  10.551 -0.1400 -0.2017  0.2201
   52POPI    C3  717  11.097  15.288  10.292 -0.0757 -0.2457  0.1286
   52POPI   PO4  718  11.496  15.010  10.077  0.1624  0.0718 -0.2874
   52POPI   GL1  719  11.390  14.845   9.682 -0.1323  0.0220  0.1107
   52POPI   GL2  720  11.116  14.958   9.631  0.2619 -0.2486 -0.0856
   52POPI   C1A  721  11.482  15.207   9.463 -0.0293  0.0211  0.1114
   52POPI   D2A  722  11.467  15.196   9.077  0.0860  0.1389  0.0663
   52POPI   C3A  723  11.644  15.371   8.752  0.1719  0.2265 -0.1379
   52POPI   C4A  724  11.610  15.516   8.368 -0.3643  0.1135  0.0759
   52POPI   C1B  725  11.053  15.030   9.190  0.0052  0.0643 -0.1059
   52POPI   C2B  726  10.886  14.918   8.742 -0.2014 -0.0137 -0.0835
   52POPI   C3B  727  11.039  14.816   8.425 -0.1942 -0.1771 -0.0130
   52POPI   C4B  728  11.324  14.549   8.223  0.1435  0.1436 -0.0919
   53POPI    C1  729  13.027   6.281  10.703  0.2896 -0.0694  0.2852
   53POPI    C2  730  13.142   6.020  10.983  0.2727 -0.1231  0.2421
   53POPI    C3  731  13.075   6.401  11.082  0.0448 -0.1907  0.3568
   53POPI   PO4  732  13.195   6.248  10.492 -0.0559 -0.1537  0.0541
   53POPI   GL1  733  13.223   6.396  10.145 -0.0511  0.0057  0.0623
   53POPI   GL2  734  13.251   6.739  10.133  0.0795  0.2865  0.2736
   53POPI   C1A  735  13.302   6.522   9.709 -0.3366 -0.3617 -0.1512
   53POPI   D2A  736  13.140   6.677   9.355  0.0276 -0.0159  0.1593
   53POPI   C3A  737  13.103   6.608   8.928  0.0527 -0.1913  0.0814
   53POPI   C4A  738  13.196   6.770   8.560 -0.0242 -0.0404 -0.0716
   53POPI   C1B  739  13.374   7.042   9.762  0.0618  0.1668 -0.1535
   53POPI   C2B  740  13.493   7.009   9.280  0.1896  0.1812  0.0115
   53POPI   C3B  741  13.552   6.996   8.872  0.0473 -0.2306 -0.1032
   53POPI   C4B  742  13.563   7.033   8.400  0.1512 -0.0089  0.1085
   54POPI    C1  743   6.321  17.272  10.099 -0.1854  0.1088 -0.0511
   54POPI    C2  744   5.988  17.375  10.295 -0.0258 -0.0201  0.2967
   54POPI    C3  745   6.346  17.459  10.452  0.1064 -0.2014  0.0984
   54POPI   PO4  746   6.302  17.406   9.916 -0.0977 -0.0550 -0.0959
   54POPI   GL1  747   6.299  17.236   9.545 -0.1551  0.0866  0.1711
   54POPI   GL2  748   6.384  17.607   9.414 -0.0849 -0.0352  0.1999
   54POPI   C1A  749   6.196  17.028   9.244 -0.3485 -0.2537  0.2232
   54POPI   D2A  750   6.198  17.085   8.759 -0.3672  0.1930  0.0419
   54POPI   C3A  751   5.965  17.019   8.485 -0.0590  0.3809  0.1128
   54POPI   C4A  752   6.227  16.978   8.022  0.0332  0.3207 -0.0048
   54POPI   C1B  753   6.365  17.530   8.924 -0.2099  0.0126  0.1090
   54POPI   C2B  754   6.290  17.488   8.576 -0.1009 -0.1378 -0.0249
   54POPI   C3B  755   6.336  17.455   8.185 -0.2860 -0.0009  0.0381
   54POPI   C4B  756   6.389  17.383   7.760  0.0524  0.2100 -0.3159
   55POPI    C1  757   2.364  14.079  10.315 -0.0684 -0.1003 -0.0928
   55POPI    C2  758   1.993  14.158  10.441  0.0237 -0.1798  0.2389
   55POPI    C3  759   2.203  14.439  10.249 -0.1149 -0.0487  0.2765
   55POPI   PO4  760   2.252  13.805  10.207  0.0483 -0.0699 -0.1815
   55POPI   GL1  761   2.095  13.477   9.969 -0.3450 -0.2126  0.0051
   55POPI   GL2  762   1.962  13.233   9.982 -0.2684 -0.2018 -0.0397
   55POPI   C1A  763   1.935  13.601   9.532 -0.0894 -0.0961  0.1949
   55POPI   D2A  764   2.035  13.540   9.146  0.0329  0.1050  0.0644
   55POPI   C3A  765   1.963  13.200   9.012 -0.0874 -0.0056  0.1353
   55POPI   C4A  766   1.738  12.908   8.794  0.0641 -0.0659 -0.1580
   55POPI   C1B  767   1.975  13.140   9.570  0.3308 -0.2347 -0.0450
   55POPI   C2B  768   2.103  12.762   9.311  0.1108  0.0885  0.3068
   55POPI   C3B  769   2.195  12.737   8.935  0.3298  0.1592 -0.2541
   55POPI   C4B  770   2.148  12.874   8.438 -0.0634  0.4111 -0.2443
   56POPI    C1  771  18.081   7.321  10.473 -0.0111 -0.0270 -0.1120
   56POPI    C2  772  18.357   7.036  10.524 -0.2100 -0.2294 -0.1501
   56POPI    C3  773  17.993   6.992  10.683 -0.1914  0.0820 -0.0149
   56POPI   PO4  774  18.036   7.308  10.255 -0.1649 -0.2272  0.0385
   56POPI   GL1  775  18.186   7.340   9.939  0.0357  0.0049 -0.3379
   56POPI   GL2  776  18.460   7.130  10.059  0.1066 -0.2844  0.0982
   56POPI   C1A  777  18.186   7.287   9.423 -0.0674  0.1191 -0.2933
   56POPI   D2A  778  18.270   7.223   9.035  0.0220  0.2803 -0.0235
   56POPI   C3A  779  17.880   7.227   8.741 -0.1352  0.0341  0.0725
   56POPI   C4A  780  17.867   6.931   8.423 -0.0210  0.1409 -0.0851
   56POPI   C1B  781  18.539   6.896   9.724 -0.4288 -0.2768  0.0315
   56POPI   C2B  782  18.521   6.898   9.346 -0.1868  0.1314  0.1201
   56POPI   C3B  783  18.635   6.925   8.888 -0.1875 -0.0630 -0.3784
   56POPI   C4B  784  18.562   7.292   8.571 -0.1187  0.1386 -0.2249
   57POPI    C1  785  14.891  17.341   9.608  0.2406 -0.2192 -0.1300
   57POPI    C2  786  14.638  17.177   9.872 -0.1028 -0.0149 -0.3239
   57POPI    C3  787  14.975  17.350   9.999 -0.1670 -0.0934 -0.0396
   57POPI   PO4  788  14.690  17.584   9.486 -0.0243 -0.0542  0.1532
   57POPI   GL1  789  14.508  17.611   9.132 -0.3210  0.1388 -0.3520
   57POPI   GL2  790  14.184  17.877   9.148 -0.1497 -0.2810  0.1998
   57POPI   C1A  791  14.417  17.692   8.710  0.0306 -0.1294  0.0105
   57POPI   D2A  792  14.515  17.799   8.233  0.0286  0.2114 -0.1105
   57POPI   C3A  793  14.776  17.858   7.938 -0.0568  0.0637 -0.2935
   57POPI   C4A  794  14.730  18.136   7.636  0.1578 -0.0896 -0.1566
   57POPI   C1B  795  14.035  17.932   8.837  0.3778  0.1809  0.3370
   57POPI   C2B  796  13.965  17.968   8.383  0.0673 -0.0476  0.2239
   57POPI   C3B  797  13.818  17.945   8.028  0.0579  0.2387  0.0491
   57POPI   C4B  798  13.641  18.163   7.790  0.1028  0.2207  0.4895
   58POPI    C1  799  16.113   8.130  10.857  0.1057  0.0261  0.0544
   58POPI    C2  800  16.296   8.055  10.509 -0.1395  0.1263 -0.0982
   58POPI    C3  801  16.488   8.257  10.796  0.1750 -0.2242 -0.0544
   58POPI   PO4  802  15.823   7.906  10.633 -0.2461 -0.1127 -0.0046
   58POPI   GL1  803  15.667   7.682  10.284  0.0533 -0.1336  0.0168
   58POPI   GL2  804  15.971   7.900  10.155 -0.1500 -0.0099 -0.0395
   58POPI   C1A  805  15.618   7.597   9.828  0.0648  0.0220  0.2626
   58POPI   D2A  806  15.882   7.435   9.553  0.0193 -0.0690 -0.0724
   58POPI   C3A  807  15.958   7.331   9.038  0.2630 -0.0453 -0.2070
   58POPI   C4A  808  15.824   7.548   8.515 -0.2368 -0.0220  0.0995
   58POPI   C1B  809  16.090   7.842   9.774  0.3672 -0.1512 -0.1103
   58POPI   C2B  810  15.955   7.831   9.311 -0.1138  0.1639 -0.3644
   58POPI   C3B  811  15.766   7.785   8.971 -0.2856 -0.1210  0.0470
   58POPI   C4B  812  15.527   8.102   8.664  0.1313 -0.1436 -0.0572
   59POPI    C1  813  12.316   5.632  10.509 -0.2381 -0.1263  0.2402
   59POPI    C2  814  12.442   5.331  10.279 -0.1283  0.1006 -0.0017
   59POPI    C3  815  12.455   5.297  10.677  0.1877 -0.0901 -0.0250
   59POPI   PO4  816  12.399   5.833  10.374 -0.3852 -0.0060 -0.3690
   59POPI   GL1  817  12.336   5.897   9.933 -0.0745  0.2205  0.2319
   59POPI   GL2  818  12.481   5.526   9.779  0.5637  0.2442 -0.0906
   59POPI   C1A  819  12.425   6.180   9.647 -0.0236  0.3105  0.0525
   59POPI   D2A  820  12.284   6.582   9.441 -0.1702  0.0323 -0.0201
   59POPI   C3A  821  11.993   6.637   9.145  0.0767 -0.2681  0.2081
   59POPI   C4A  822  11.738   7.036   9.083  0.1316 -0.2187 -0.0094
   59POPI   C1B  823  12.286   5.517   9.284 -0.0429 -0.0951 -0.0077
   59POPI   C2B  824  12.346   5.618   8.976 -0.1722  0.3442 -0.1395
   59POPI   C3B  825  12.372   5.894   8.658 -0.0968  0.0787  0.2596
   59POPI   C4B  826  12.036   6.098   8.325  0.2406 -0.2193 -0.3383
   60POPI    C1  827  16.689   0.742  10.777  0.2298 -0.0718 -0.1919
   60POPI    C2  828  16.843   1.067  10.603  0.1159  0.0622 -0.0458
   60POPI    C3  829  16.541   1.104  10.863  0.1048 -0.1607 -0.0254
   60POPI   PO4  830  16.677   0.561  10.597  0.0436 -0.0666 -0.3144
   60POPI   GL1  831  16.961   0.265  10.298  0.0553 -0.3476 -0.0666
   60POPI   GL2  832  17.126   0.023  10.025 -0.0609  0.0384  0.2149
   60POPI   C1A  833  16.853   0.446   9.857 -0.3129  0.0014 -0.0828
   60POPI   D2A  834  16.512   0.312   9.525 -0.0447 -0.0587  0.0378
   60POPI   C3A  835  16.478   0.012   9.299  0.2465 -0.0953  0.1427
   60POPI   C4A  836  16.365  -0.290   9.045 -0.3369 -0.4991  0.0399
   60POPI   C1B  837  16.962   0.000   9.704 -0.3031  0.0710 -0.0238
   60POPI   C2B  838  17.001   0.010   9.212 -0.2817 -0.3175  0.1913
   60POPI   C3B  839  16.863  -0.052   8.819 -0.0458  0.0679  0.0671
   60POPI   C4B  840  16.607  -0.381   8.562 -0.0009  0.1537 -0.0231
   61POPI    C1  841   9.191   6.934  10.403  0.0408  0.0006  0.0878
   61POPI    C2  842   9.287   7.091  10.759  0.0234  0.1900  0.0104
   61POPI    C3  843   9.573   6.937  10.525  0.0311  0.0384  0.1176
   61POPI   PO4  844   8.986   7.086  10.323 -0.0730  0.0601  0.1603
   61POPI   GL1  845   8.768   7.393  10.094 -0.0574  0.1841  0.0758
   61POPI   GL2  846   9.004   7.370   9.902 -0.1211  0.0407 -0.1427
   61POPI   C1A  847   8.600   7.673   9.845 -0.0238 -0.2136  0.1725
   61POPI   D2A  848   8.288   7.704   9.525 -0.3779  0.0159  0.0714
   61POPI   C3A  849   8.514   7.826   9.223 -0.3295 -0.0264 -0.1471
   61POPI   C4A  850   8.728   7.779   8.774  0.0416  0.1606  0.0604
   61POPI   C1B  851   9.242   7.210   9.616  0.1664 -0.1976 -0.3089
   61POPI   C2B  852   9.298   7.291   9.218 -0.0725 -0.1193 -0.1564
   61POPI   C3B  853   9.281   7.093   8.879  0.1859 -0.2109  0.1928
   61POPI   C4B  854   9.354   6.692   8.718  0.2150  0.1984  0.0345
   62POPI    C1  855   2.575   2.414  10.429 -0.1714 -0.2621 -0.1709
   62POPI    C2  856   2.323   2.476  10.733 -0.0053 -0.0405 -0.0759
   62POPI    C3  857   2.645   2.246  10.785  0.2631  0.3536  0.0502
   62POPI   PO4  858   2.614   2.692  10.329  0.0404  0.0747  0.0114
   62POPI   GL1  859   2.345   2.940  10.029  0.0256  0.0853 -0.2690
   62POPI   GL2  860   2.085   3.136  10.071  0.2757 -0.4999  0.2917
   62POPI   C1A  861   2.411   3.011   9.565 -0.0033 -0.0550 -0.1253
   62POPI   D2A  862   2.322   2.937   9.153 -0.0455  0.1102 -0.1797
   62POPI   C3A  863   2.674   2.980   8.834 -0.1270  0.0208  0.0188
   62POPI   C4A  864   2.766   3.041   8.367 -0.0449 -0.2038 -0.2594
   62POPI   C1B  865   1.991   3.271   9.629  0.2481 -0.0803 -0.1786
   62POPI   C2B  866   1.953   3.366   9.279 -0.2115  0.0396 -0.1083
   62POPI   C3B  867   1.755   3.510   8.857 -0.0586  0.1063 -0.0251
   62POPI   C4B  868   1.746   3.885   8.637  0.3547  0.2807  0.1198
   63POPI    C1  869   1.307  11.937  10.504 -0.0087  0.0637  0.0821
   63POPI    C2  870   1.275  12.121  10.858 -0.2127 -0.1107  0.1561
   63POPI    C3  871   0.996  11.858  10.743 -0.2118  0.0342 -0.1878
   63POPI   PO4  872   1.494  12.206  10.382 -0.1043  0.0350  0.2190
   63POPI   GL1  873   1.441  12.404  10.002 -0.0433 -0.0049 -0.0114
   63POPI   GL2  874   1.750  12.289   9.946  0.0121 -0.2280  0.2129
   63POPI   C1A  875   1.256  12.348   9.591  0.1002 -0.1624  0.0104
   63POPI   D2A  876   0.953  12.251   9.260  0.0770  0.0908 -0.5435
   63POPI   C3A  877   1.047  11.924   8.976 -0.3385  0.2352  0.0207
   63POPI   C4A  878   1.143  11.713   8.783  0.0473 -0.1840 -0.0624
   63POPI   C1B  879   1.740  12.205   9.515  0.3404  0.1754 -0.1565
   63POPI   C2B  880   1.499  12.060   9.225  0.0503  0.3025 -0.0756
   63POPI   C3B  881   1.570  11.900   8.784  0.3636 -0.0458  0.0457
   63POPI   C4B  882   1.625  11.860   8.312  0.1822 -0.0443 -0.0098
   64POPI    C1  883  13.610  16.989   9.792 -0.1201  0.1621  0.1089
   64POPI    C2  884  13.643  17.353   9.629 -0.3386  0.1698  0.0790
   64POPI    C3  885  13.611  17.314  10.025 -0.0484  0.1654  0.1039
   64POPI   PO4  886  13.742  16.807   9.622  0.1164  0.0244  0.1209
   64POPI   GL1  887  13.965  16.822   9.291  0.0638 -0.1643 -0.0525
   64POPI   GL2  888  13.961  17.099   9.269 -0.1280 -0.1037 -0.2341
   64POPI   C1A  889  13.891  16.743   8.886  0.1573 -0.0977 -0.0081
   64POPI   D2A  890  13.915  16.680   8.356 -0.0409 -0.1026 -0.1847
   64POPI   C3A  891  14.239  16.812   8.136 -0.1806 -0.1875  0.1944
   64POPI   C4A  892  14.349  16.865   7.750  0.3985 -0.1787  0.0236
   64POPI   C1B  893  13.990  17.402   8.940 -0.1648  0.3076 -0.1125
   64POPI   C2B  894  14.071  17.514   8.464  0.2639  0.3418 -0.1590
   64POPI   C3B  895  13.993  17.456   8.004 -0.1534 -0.0230  0.0505
   64POPI   C4B  896  13.764  17.578   7.622  0.1835 -0.0273 -0.5147
   65POPI    C1  897   2.514  11.956  10.237  0.1871  0.0092  0.0600
   65POPI    C2  898   2.547  11.994  10.633  0.0299  0.1738  0.0587
   65POPI    C3  899   2.865  12.057  10.399  0.0915  0.2024  0.1497
   65POPI   PO4  900   2.268  11.740  10.189 -0.0239  0.1098  0.0534
   65POPI   GL1  901   1.989  11.492   9.863  0.0926  0.2445  0.1298
   65POPI   GL2  902   1.980  11.761   9.703 -0.0358  0.2723 -0.2301
   65POPI   C1A  903   1.851  11.353   9.398  0.1753 -0.1339 -0.2582
   65POPI   D2A  904   1.752  11.487   9.020 -0.0639 -0.0310 -0.0573
   65POPI   C3A  905   1.653  11.445   8.593 -0.0926 -0.0782 -0.2246
   65POPI   C4A  906   1.258  11.540   8.334  0.1103 -0.4094  0.1378
   65POPI   C1B  907   1.991  11.835   9.201  0.0367 -0.1221  0.1197
   65POPI   C2B  908   2.068  11.702   8.737 -0.4938  0.0436 -0.1828
   65POPI   C3B  909   2.111  11.942   8.417 -0.0497 -0.0198  0.0212
   65POPI   C4B  910   2.033  12.210   8.118  0.0703 -0.0547  0.1054
   66POPI    C1  911   4.633   0.733  10.349  0.1075  0.0225  0.1144
   66POPI    C2  912   4.507   0.968  10.648 -0.1179  0.1884 -0.1055
   66POPI    C3  913   4.539   0.573  10.703 -0.1173  0.2221  0.1484
   66POPI   PO4  914   4.484   0.843  10.151  0.1993 -0.1026 -0.0228
   66POPI   GL1  915   4.612   1.199   9.817  0.1771  0.0380  0.1138
   66POPI   GL2  916   4.254   1.213   9.684  0.1503 -0.2894  0.3290
   66POPI   C1A  917   4.743   1.650   9.504  0.3937 -0.2125 -0.2849
   66POPI   D2A  918   4.770   2.004   9.289 -0.2163  0.0569 -0.0680
   66POPI   C3A  919   4.844   2.414   9.516  0.2161 -0.0070 -0.0997
   66POPI   C4A  920   4.564   2.614   9.857 -0.0730  0.1044 -0.3509
   66POPI   C1B  921   4.264   1.349   9.293 -0.1221 -0.1787 -0.0425
   66POPI   C2B  922   4.200   1.447   8.888  0.4152 -0.1428  0.0340
   66POPI   C3B  923   3.952   1.481   8.399 -0.0442  0.1235  0.1955
   66POPI   C4B  924   3.779   1.722   8.028  0.1510 -0.1332  0.0783
   67POPI    C1  925   2.802  17.980  10.088 -0.1756 -0.1709  0.2913
   67POPI    C2  926   2.632  18.326   9.980  0.0190 -0.1246  0.1258
   67POPI    C3  927   2.405  18.021  10.105 -0.1631  0.0218  0.1561
   67POPI   PO4  928   3.020  17.857   9.858 -0.0267  0.0557 -0.0124
   67POPI   GL1  929   3.121  17.869   9.405  0.0871 -0.0856 -0.1634
   67POPI   GL2  930   3.333  18.087   9.525  0.3717 -0.0605  0.1825
   67POPI   C1A  931   3.019  17.478   9.273  0.0597  0.0565  0.2116
   67POPI   D2A  932   3.130  17.227   9.004  0.2120 -0.0546 -0.1621
   67POPI   C3A  933   3.034  17.309   8.620  0.1002 -0.1457  0.0734
   67POPI   C4A  934   2.816  17.097   8.251  0.2270  0.3767 -0.0170
   67POPI   C1B  935   3.360  18.118   9.062  0.0442  0.4080  0.0476
   67POPI   C2B  936   3.359  18.192   8.716 -0.1843 -0.1253 -0.1627
   67POPI   C3B  937   3.271  18.205   8.334  0.0643  0.0991  0.2654
   67POPI   C4B  938   3.187  18.421   7.960 -0.0842  0.1733  0.0807
   68POPS   CNO  939   1.873  18.032  10.254 -0.2221 -0.1282 -0.0718
   68POPS   PO4  940   2.010  18.224   9.923 -0.0515 -0.0450  0.0012
   68POPS   GL1  941   2.041  18.154   9.546 -0.1119  0.1462  0.5684
   68POPS   GL2  942   1.773  17.968   9.415  0.0957  0.0337  0.0199
   68POPS   C1A  943   2.325  18.224   9.213 -0.1456  0.0789 -0.1038
   68POPS   D2A  944   2.377  18.009   8.805  0.4392 -0.1104  0.3122
   68POPS   C3A  945   2.087  17.615   8.750 -0.3954  0.0522 -0.0519
   68POPS   C4A  946   1.898  17.331   8.414  0.1854 -0.0253 -0.0618
   68POPS   C1B  947   1.890  18.005   8.935  0.0256  0.1608  0.1188
   68POPS   C2B  948   1.888  18.229   8.645  0.2708 -0.0440 -0.0375
   68POPS   C3B  949   1.817  18.670   8.421 -0.1044  0.2368  0.0035
   68POPS   C4B  950   1.898  18.996   8.154 -0.1265 -0.2266 -0.0053
   69POPS   CNO  951   1.516   8.154  11.074  0.2224  0.0492 -0.1351
   69POPS   PO4  952   1.762   8.188  10.801 -0.1580  0.1138 -0.0025
   69POPS   GL1  953   1.554   8.534  10.580 -0.0120 -0.4185  0.0621
   69POPS   GL2  954   1.340   8.357  10.500 -0.0219 -0.2929  0.0690
   69POPS   C1A  955   1.653   8.888  10.315  0.1215 -0.0546 -0.2587
   69POPS   D2A  956   1.636   9.243  10.035  0.0737  0.0200  0.2945
   69POPS   C3A  957   1.679   9.215   9.670 -0.0290 -0.1640 -0.1065
   69POPS   C4A  958   1.696   9.057   9.326 -0.3974 -0.0450  0.0064
   69POPS   C1B  959   1.330   8.586  10.081  0.0111  0.1229  0.2277
   69POPS   C2B  960   1.228   8.620   9.656  0.1620 -0.2130  0.2196
   69POPS   C3B  961   1.436   8.579   9.221  0.0213 -0.3682 -0.1684
   69POPS   C4B  962   1.660   8.702   8.853 -0.1327 -0.0675  0.0462
   70POPS   CNO  963  15.351   5.341  10.263  0.0757 -0.0371 -0.1015
   70POPS   PO4  964  15.612   5.390   9.981  0.0774  0.1114 -0.2290
   70POPS   GL1  965  15.812   5.349   9.683  0.0422 -0.2060  0.4618
   70POPS   GL2  966  16.083   5.526   9.772  0.1454  0.0237 -0.1718
   70POPS   C1A  967  15.975   5.418   9.311 -0.1294  0.1630 -0.0589
   70POPS   D2A  968  16.135   5.614   8.940 -0.0142 -0.0557  0.0128
   70POPS   C3A  969  16.356   5.771   8.570  0.0866  0.2269 -0.1459
   70POPS   C4A  970  16.529   6.146   8.558 -0.1595 -0.3033  0.5585
   70POPS   C1B  971  16.210   5.840   9.609 -0.1152 -0.2250 -0.0213
   70POPS   C2B  972  16.097   6.057   9.294  0.0235 -0.1778  0.1350
   70POPS   C3B  973  16.140   6.182   8.865  0.0308  0.2502  0.2704
   70POPS   C4B  974  16.059   6.450   8.545  0.2068 -0.0081 -0.4874
   71POPS   CNO  975   7.128   2.289  10.200 -0.0559 -0.0087 -0.1129
   71POPS   PO4  976   6.692   2.307  10.001  0.3419  0.2628  0.1666
   71POPS   GL1  977   6.541   2.656   9.751  0.1055 -0.3129  0.5009
   71POPS   GL2  978   6.793   2.919   9.769 -0.1605 -0.1921  0.1874
   71POPS   C1A  979   6.376   2.682   9.442  0.1831 -0.0832  0.0506
   71POPS   D2A  980   6.263   2.717   9.010  0.1431  0.2583 -0.1116
   71POPS   C3A  981   6.425   3.133   8.980  0.0703  0.0952  0.0818
   71POPS   C4A  982   6.364   3.496   9.025  0.0571 -0.2767  0.1323
   71POPS   C1B  983   6.629   3.108   9.470  0.2665  0.3049 -0.1251
   71POPS   C2B  984   6.452   3.404   9.458  0.0763  0.0655  0.0485
   71POPS   C3B  985   6.306   3.688   9.730  0.0610 -0.0487  0.2860
   71POPS   C4B  986   6.569   4.109   9.828 -0.0813  0.1150  0.0274
   72POPS   CNO  987   4.311   9.191  11.132 -0.0941  0.0736  0.1168
   72POPS   PO4  988   4.484   9.328  10.674 -0.2432 -0.0234 -0.1028
   72POPS   GL1  989   4.397   9.335  10.347 -0.0373 -0.1083 -0.0362
   72POPS   GL2  990   4.424   9.103  10.143  0.1142  0.0589 -0.2529
   72POPS   C1A  991   4.364   9.556   9.944  0.1913  0.1665 -0.3307
   72POPS   D2A  992   4.254   9.562   9.470 -0.3571 -0.0245 -0.0853
   72POPS   C3A  993   3.806   9.578   9.506 -0.2456  0.1023 -0.1077
   72POPS   C4A  994   3.798   9.746   9.928  0.1054  0.3922  0.1220
   72POPS   C1B  995   4.729   9.167   9.800  0.1374 -0.0858 -0.4265
   72POPS   C2B  996   4.812   9.289   9.412 -0.0577 -0.0891  0.1026
   72POPS   C3B  997   4.887   9.374   8.982  0.3108  0.1177 -0.0388
   72POPS   C4B  998   4.874   9.582   8.569 -0.1321 -0.0310  0.0400
   73POPS   CNO  999   0.184  14.449  10.879 -0.1943 -0.0366 -0.0443
   73POPS   PO4 1000   0.225  14.210  10.489 -0.1080  0.1747 -0.0064
   73POPS   GL1 1001   0.272  14.094  10.077  0.0995  0.0919 -0.2029
   73POPS   GL2 1002   0.127  13.912   9.943  0.3257  0.2212 -0.0291
   73POPS   C1A 1003   0.198  14.382   9.729  0.1118  0.0369  0.1091
   73POPS   D2A 1004   0.071  14.432   9.312 -0.2061 -0.1348 -0.1061
   73POPS   C3A 1005  -0.381  14.330   9.167  0.0782  0.0977 -0.3322
   73POPS   C4A 1006  -0.612  14.370   8.837 -0.0367  0.0280 -0.1316
   73POPS   C1B 1007   0.033  13.953   9.543 -0.1050 -0.0857 -0.1148
   73POPS   C2B 1008   0.016  13.984   9.102 -0.2580 -0.1495  0.0457
   73POPS   C3B 1009  -0.302  13.951   8.730 -0.1388  0.0794 -0.0301
   73POPS   C4B 1010  -0.400  13.969   8.192 -0.2255 -0.2602 -0.0341
   74POPS   CNO 1011   6.631  17.909  10.271  0.1155 -0.0166  0.1673
   74POPS   PO4 1012   6.732  18.236   9.939 -0.0001 -0.1131  0.1810
   74POPS   GL1 1013   6.674  18.154   9.521 -0.0135  0.2452 -0.1680
   74POPS   GL2 1014   6.585  18.385   9.412 -0.1024  0.1414 -0.1212
   74POPS   C1A 1015   6.363  18.051   9.131 -0.0883 -0.0502  0.0126
   74POPS   D2A 1016   6.378  18.024   8.683 -0.0479 -0.0322  0.2162
   74POPS   C3A 1017   6.230  17.973   8.336 -0.1829  0.0573 -0.0636
   74POPS   C4A 1018   6.387  17.957   8.003 -0.3255 -0.2127 -0.3847
   74POPS   C1B 1019   6.774  18.379   8.979 -0.1752 -0.1862 -0.2551
   74POPS   C2B 1020   6.716  18.420   8.597 -0.0635 -0.1184 -0.1800
   74POPS   C3B 1021   6.855  18.495   8.274 -0.0435  0.0295 -0.0075
   74POPS   C4B 1022   6.854  18.802   7.959 -0.0509 -0.3583 -0.0800
   75POPS   CNO 1023  13.198   6.792  10.632 -0.1302 -0.1074  0.2070
   75POPS   PO4 1024  12.817   6.670  10.377  0.0763 -0.0224 -0.0150
   75POPS   GL1 1025  12.791   6.731   9.969  0.1169  0.0055  0.0826
   75POPS   GL2 1026  12.823   6.418   9.839  0.2767  0.2683  0.1802
   75POPS   C1A 1027  12.699   6.828   9.557 -0.1561 -0.0024  0.0261
   75POPS   D2A 1028  12.629   6.822   9.127  0.0220  0.0529 -0.1394
   75POPS   C3A 1029  12.580   6.570   8.722 -0.0924  0.1590 -0.1316
   75POPS   C4A 1030  12.533   6.316   8.455  0.0814  0.2144  0.1627
   75POPS   C1B 1031  12.771   6.371   9.379  0.0207 -0.0588  0.0770
   75POPS   C2B 1032  12.393   6.292   9.061 -0.1565  0.2298 -0.0069
   75POPS   C3B 1033  12.032   6.393   8.721 -0.0990 -0.1547  0.2293
   75POPS   C4B 1034  11.772   6.576   8.300  0.3102 -0.2736  0.3596
   76POPS   CNO 1035  14.140  15.014   9.833  0.1285 -0.0717 -0.0049
   76POPS   PO4 1036  13.945  14.669   9.957  0.3628  0.1434 -0.3219
   76POPS   GL1 1037  13.704  14.651   9.630  0.0484  0.2364  0.1145
   76POPS   GL2 1038  13.844  14.964   9.448 -0.0249  0.3925  0.3810
   76POPS   C1A 1039  13.432  14.747   9.289  0.1085  0.1116  0.2451
   76POPS   D2A 1040  13.260  14.636   8.854 -0.1049 -0.0784  0.0182
   76POPS   C3A 1041  13.538  14.449   8.566 -0.2049 -0.2577  0.3992
   76POPS   C4A 1042  13.553  14.509   8.150  0.0893 -0.1709  0.0037
   76POPS   C1B 1043  13.801  14.764   9.008 -0.2003  0.1702  0.1019
   76POPS   C2B 1044  14.005  14.491   8.708  0.1235  0.0579 -0.5026
   76POPS   C3B 1045  13.928  14.168   8.446  0.0344  0.0502 -0.1312
   76POPS   C4B 1046  13.847  14.020   8.099  0.0569  0.1586  0.0403
   77POPS   CNO 1047   8.477  13.160  10.794 -0.0236  0.0392 -0.1802
   77POPS   PO4 1048   8.666  12.765  10.770  0.0034 -0.0843 -0.1513
   77POPS   GL1 1049   8.589  12.853  10.350  0.2557 -0.0566 -0.0917
   77POPS   GL2 1050   8.322  12.781  10.185  0.1586 -0.1667 -0.2814
   77POPS   C1A 1051   8.871  12.640   9.996 -0.0597  0.1325 -0.3439
   77POPS   D2A 1052   8.888  12.510   9.562 -0.2747  0.0404 -0.0562
   77POPS   C3A 1053   8.927  12.402   9.106 -0.0408 -0.1022 -0.1872
   77POPS   C4A 1054   9.217  12.411   8.799  0.0116 -0.0034 -0.4018
   77POPS   C1B 1055   8.440  12.699   9.770  0.0502 -0.0394  0.2380
   77POPS   C2B 1056   8.409  12.672   9.321 -0.1036  0.0364 -0.0208
   77POPS   C3B 1057   8.407  12.481   8.912  0.0173  0.0146 -0.0925
   77POPS   C4B 1058   8.632  12.190   8.770 -0.0326 -0.1187 -0.2652
   78POPS   CNO 1059   0.544   7.865  10.833 -0.3450  0.0247 -0.0658
   78POPS   PO4 1060   0.272   7.536  10.692 -0.5385 -0.0528 -0.1358
   78POPS   GL1 1061   0.219   7.677  10.310 -0.0284 -0.2611 -0.0322
   78POPS   GL2 1062   0.304   7.994  10.421 -0.1302 -0.0261  0.0810
   78POPS   C1A 1063   0.438   7.604   9.901  0.0554 -0.1173  0.1120
   78POPS   D2A 1064   0.433   7.325   9.574  0.1579  0.0229 -0.1062
   78POPS   C3A 1065   0.740   7.506   9.259 -0.4560  0.0081 -0.0592
   78POPS   C4A 1066   0.767   7.395   8.868 -0.2327 -0.0298 -0.0612
   78POPS   C1B 1067   0.568   8.073  10.051  0.0505 -0.0008  0.1980
   78POPS   C2B 1068   0.734   8.340   9.762 -0.3164  0.1475  0.2056
   78POPS   C3B 1069   0.827   8.387   9.422 -0.0929 -0.0498 -0.2044
   78POPS   C4B 1070   0.941   8.342   9.014 -0.0760 -0.0300  0.0639
   79POPS   CNO 1071  14.555   6.157  10.338 -0.3138  0.0711 -0.2248
   79POPS   PO4 1072  14.863   5.732  10.287 -0.2024  0.2830  0.0273
   79POPS   GL1 1073  14.726   5.770   9.861 -0.2321 -0.1819  0.0345
   79POPS   GL2 1074  14.681   5.477   9.560 -0.0734  0.0063 -0.0749
   79POPS   C1A 1075  14.722   5.949   9.400 -0.0427 -0.0283  0.1005
   79POPS   D2A 1076  14.729   6.130   9.040 -0.3703  0.0891  0.0657
   79POPS   C3A 1077  15.002   6.140   8.661  0.0159  0.1540 -0.1498
   79POPS   C4A 1078  15.086   5.949   8.277  0.1450 -0.0641 -0.1177
   79POPS   C1B 1079  14.934   5.270   9.276 -0.2306  0.1971  0.0156
   79POPS   C2B 1080  15.224   5.198   8.903  0.2656  0.2722 -0.1129
   79POPS   C3B 1081  15.404   5.049   8.527 -0.1627 -0.0532  0.0259
   79POPS   C4B 1082  15.717   5.098   8.330 -0.1299 -0.1970  0.3182
   80POPS   CNO 1083   4.646   5.470  11.263 -0.0461 -0.0822  0.1507
   80POPS   PO4 1084   4.498   5.553  10.930 -0.0463 -0.3089  0.1193
   80POPS   GL1 1085   4.590   5.679  10.554 -0.1690 -0.1267  0.2471
   80POPS   GL2 1086   4.763   5.625  10.267 -0.2292 -0.1683 -0.0566
   80POPS   C1A 1087   4.425   6.022  10.248 -0.3294 -0.0655  0.2786
   80POPS   D2A 1088   4.362   5.886   9.858 -0.3844  0.1096  0.1858
   80POPS   C3A 1089   4.455   6.154   9.597  0.0485  0.2827  0.6633
   80POPS   C4A 1090   4.442   6.127   9.162  0.1101 -0.4101  0.0040
   80POPS   C1B 1091   4.376   5.419  10.110  0.2219  0.0487  0.2080
   80POPS   C2B 1092   4.124   5.433   9.789  0.1146 -0.0261  0.1562
   80POPS   C3B 1093   4.132   5.382   9.270 -0.0501  0.1476 -0.0751
   80POPS   C4B 1094   4.219   5.354   8.826 -0.1072 -0.0181 -0.3166
   81POPS   CNO 1095  11.305  11.874  10.752 -0.1160 -0.1351  0.1006
   81POPS   PO4 1096  11.459  12.137  10.558 -0.2570 -0.1712 -0.0076
   81POPS   GL1 1097  11.151  12.010  10.174  0.0685 -0.0945 -0.0655
   81POPS   GL2 1098  11.189  11.705   9.997 -0.2109 -0.1444  0.2429
   81POPS   C1A 1099  11.095  12.291   9.810 -0.1137 -0.0268 -0.2101
   81POPS   D2A 1100  11.135  12.300   9.320  0.0213  0.1795 -0.2620
   81POPS   C3A 1101  11.052  12.234   9.045 -0.1993 -0.1863  0.0550
   81POPS   C4A 1102  11.100  12.225   8.644 -0.0120  0.0584  0.1460
   81POPS   C1B 1103  10.986  11.824   9.658  0.5230  0.0023 -0.1668
   81POPS   C2B 1104  10.912  11.763   9.211  0.1158  0.1272  0.2274
   81POPS   C3B 1105  10.969  11.750   8.858  0.2328  0.2133  0.2358
   81POPS   C4B 1106  11.019  11.658   8.444 -0.0118  0.0593 -0.4045
   82POPS   CNO 1107   9.587   2.729   9.778  0.1913 -0.0709  0.3262
   82POPS   PO4 1108   9.385   3.110   9.611 -0.3627 -0.3435 -0.0784
   82POPS   GL1 1109   9.085   3.146   9.306 -0.1825 -0.5607 -0.1937
   82POPS   GL2 1110   9.311   2.878   9.123 -0.0067  0.0677  0.1589
   82POPS   C1A 1111   8.951   3.196   8.946  0.0768 -0.0343 -0.0827
   82POPS   D2A 1112   8.870   3.082   8.482 -0.2828  0.0396 -0.0805
   82POPS   C3A 1113   8.624   3.258   8.215  0.1342  0.2292 -0.0804
   82POPS   C4A 1114   8.379   3.196   7.855  0.1881  0.0974  0.1416
   82POPS   C1B 1115   9.385   3.004   8.660 -0.2396  0.2061 -0.0321
   82POPS   C2B 1116   9.685   3.010   8.338  0.0371  0.2905  0.3771
   82POPS   C3B 1117   9.859   2.714   8.113 -0.1103  0.1991  0.0458
   82POPS   C4B 1118  10.140   2.295   8.238 -0.1026  0.0991  0.0967
   83POPS   CNO 1119   2.191   8.340  11.092  0.0525  0.1309  0.2535
   83POPS   PO4 1120   2.306   8.181  10.647 -0.2733  0.2309  0.0124
   83POPS   GL1 1121   2.169   8.062  10.268 -0.3517  0.2976  0.5499
   83POPS   GL2 1122   1.727   8.052  10.301 -0.1153 -0.0949 -0.2971
   83POPS   C1A 1123   2.064   7.966   9.892  0.1093 -0.0903 -0.1348
   83POPS   D2A 1124   2.006   8.029   9.486 -0.2645 -0.1131 -0.0229
   83POPS   C3A 1125   1.599   8.117   9.187  0.0584  0.2273 -0.1011
   83POPS   C4A 1126   1.395   8.259   8.749  0.1121  0.0329  0.0105
   83POPS   C1B 1127   1.836   8.403  10.138  0.0096 -0.1774 -0.2049
   83POPS   C2B 1128   2.179   8.518   9.917 -0.0650  0.1360 -0.1226
   83POPS   C3B 1129   2.506   8.518   9.564  0.1062 -0.0564  0.0646
   83POPS   C4B 1130   2.502   8.537   9.085  0.0255 -0.1131  0.2769
   84POPS   CNO 1131   6.086   1.504  10.082  0.0654 -0.1125 -0.0324
   84POPS   PO4 1132   5.713   1.335  10.188 -0.2655 -0.2690 -0.0066
   84POPS   GL1 1133   5.451   1.235   9.927  0.1147 -0.0557  0.0712
   84POPS   GL2 1134   5.602   1.248   9.638 -0.0803  0.0996  0.2955
   84POPS   C1A 1135   5.078   1.161   9.644 -0.2303 -0.3603 -0.2147
   84POPS   D2A 1136   4.869   1.244   9.320  0.2379 -0.1337  0.0532
   84POPS   C3A 1137   4.731   1.582   8.992  0.0552  0.1618 -0.3731
   84POPS   C4A 1138   4.458   1.892   8.881 -0.0342 -0.0779 -0.0513
   84POPS   C1B 1139   5.323   1.171   9.226 -0.2000 -0.0116 -0.0265
   84POPS   C2B 1140   5.128   1.335   8.818  0.2858  0.0656 -0.2594
   84POPS   C3B 1141   5.161   1.288   8.469  0.2562  0.0644  0.4054
   84POPS   C4B 1142   5.600   1.312   8.257 -0.2138 -0.2619  0.0563
   85POPS   CNO 1143   2.929   4.056  10.817  0.1224  0.0343 -0.3079
   85POPS   PO4 1144   2.799   4.001  10.387  0.4571  0.1538 -0.1106
   85POPS   GL1 1145   2.742   4.131   9.947  0.2616 -0.0259 -0.1549
   85POPS   GL2 1146   2.499   3.910   9.756  0.2169  0.0475  0.1477
   85POPS   C1A 1147   2.642   4.502   9.570  0.0665 -0.0981 -0.2463
   85POPS   D2A 1148   2.528   4.407   9.112  0.1140  0.4449 -0.1022
   85POPS   C3A 1149   2.750   4.750   8.947 -0.1300 -0.0650 -0.0378
   85POPS   C4A 1150   3.174   4.745   8.706 -0.0994 -0.0141 -0.1464
   85POPS   C1B 1151   2.594   4.050   9.435  0.0752 -0.0659  0.0728
   85POPS   C2B 1152   2.631   3.916   9.019 -0.1542 -0.1666  0.1409
   85POPS   C3B 1153   2.725   3.671   8.700  0.2847 -0.0931  0.1504
   85POPS   C4B 1154   2.887   3.482   8.292 -0.2302  0.1045  0.0871
   86POPS   CNO 1155   6.444  12.500  10.725  0.1275  0.1310  0.1847
   86POPS   PO4 1156   6.723  12.208  10.730  0.3828  0.2848 -0.2163
   86POPS   GL1 1157   6.762  12.215  10.402 -0.3394 -0.2286 -0.1972
   86POPS   GL2 1158   6.496  12.183  10.292  0.2565  0.1238 -0.1967
   86POPS   C1A 1159   6.888  12.358  10.004  0.0812 -0.0065 -0.0990
   86POPS   D2A 1160   6.771  12.212   9.657 -0.4165  0.0365 -0.0482
   86POPS   C3A 1161   6.479  11.906   9.776 -0.1580  0.2117  0.0825
   86POPS   C4A 1162   6.470  11.511   9.962  0.0456 -0.1655 -0.0629
   86POPS   C1B 1163   6.364  12.345   9.933  0.1369  0.0342 -0.0851
   86POPS   C2B 1164   6.194  12.243   9.557 -0.4136 -0.0866 -0.0655
   86POPS   C3B 1165   6.303  12.174   9.262 -0.0139 -0.2021 -0.1228
   86POPS   C4B 1166   6.324  12.113   8.768  0.0071 -0.3545 -0.0063
   87POPS   CNO 1167   7.888   4.531  10.066 -0.1156 -0.4155  0.1305
   87POPS   PO4 1168   8.298   4.797  10.117 -0.0785  0.1333  0.2392
   87POPS   GL1 1169   8.191   5.114   9.725  0.0590 -0.1057 -0.2495
   87POPS   GL2 1170   8.006   5.410   9.842 -0.1685  0.1013  0.2823
   87POPS   C1A 1171   8.227   5.364   9.338  0.1483  0.0313  0.1399
   87POPS   D2A 1172   8.112   5.584   9.073 -0.1396 -0.0062  0.3262
   87POPS   C3A 1173   7.881   5.588   8.722 -0.1092 -0.1254  0.2107
   87POPS   C4A 1174   7.716   5.651   8.326 -0.4076 -0.1427 -0.0542
   87POPS   C1B 1175   7.805   5.549   9.553 -0.1378  0.1134 -0.1082
   87POPS   C2B 1176   7.640   5.540   9.216 -0.0771  0.0118 -0.2453
   87POPS   C3B 1177   7.418   5.504   8.767  0.2689  0.2824 -0.1206
   87POPS   C4B 1178   7.226   5.543   8.454  0.0918  0.0766  0.1104
   88POPS   CNO 1179   5.539   8.658  10.841 -0.1141 -0.3170 -0.1148
   88POPS   PO4 1180   5.688   8.727  10.393  0.0629  0.0937 -0.0540
   88POPS   GL1 1181   5.865   8.614   9.999 -0.1431  0.1414  0.0774
   88POPS   GL2 1182   5.684   8.983   9.934  0.0603  0.3300  0.1711
   88POPS   C1A 1183   6.103   8.566   9.629 -0.1800 -0.1208 -0.0147
   88POPS   D2A 1184   5.991   8.499   9.208 -0.0309  0.0743 -0.0322
   88POPS   C3A 1185   6.111   8.222   8.824 -0.1700 -0.1313 -0.1369
   88POPS   C4A 1186   6.237   7.942   8.450  0.2435  0.1579  0.0066
   88POPS   C1B 1187   5.728   8.871   9.483  0.0031 -0.2158  0.0222
   88POPS   C2B 1188   5.737   8.968   9.089 -0.1397  0.1018  0.0770
   88POPS   C3B 1189   5.609   9.052   8.601 -0.3444 -0.1838  0.2192
   88POPS   C4B 1190   5.993   9.098   8.343  0.3496 -0.1025  0.1304
   89POPS   CNO 1191   2.963   6.358  11.159 -0.0381  0.2336  0.2126
   89POPS   PO4 1192   3.313   6.373  10.910  0.0590  0.0197  0.0165
   89POPS   GL1 1193   3.142   6.582  10.566 -0.1667  0.0658  0.0261
   89POPS   GL2 1194   3.427   6.617  10.403  0.0107  0.2744 -0.0225
   89POPS   C1A 1195   2.993   6.723  10.210  0.1791 -0.0390  0.2714
   89POPS   D2A 1196   3.066   6.734   9.781  0.1965 -0.0954  0.2805
   89POPS   C3A 1197   2.771   6.561   9.463 -0.2963 -0.2531 -0.1634
   89POPS   C4A 1198   2.362   6.255   9.411 -0.0571  0.1501  0.0404
   89POPS   C1B 1199   3.836   6.536  10.288  0.0381 -0.1986  0.0372
   89POPS   C2B 1200   4.232   6.445  10.016  0.1906  0.2806 -0.2582
   89POPS   C3B 1201   4.253   6.670   9.612 -0.1351 -0.0734  0.1754
   89POPS   C4B 1202   4.421   6.676   9.130  0.2357 -0.1897  0.4904
   90POPS   CNO 1203   4.644  12.726  10.464 -0.1681 -0.2054 -0.1538
   90POPS   PO4 1204   4.996  12.908  10.670 -0.2754  0.0035 -0.1297
   90POPS   GL1 1205   5.000  12.966  10.237  0.0919 -0.0163 -0.0197
   90POPS   GL2 1206   5.210  12.703  10.083  0.1260 -0.1748  0.2855
   90POPS   C1A 1207   4.957  13.079   9.801 -0.3058  0.0542  0.2225
   90POPS   D2A 1208   4.954  12.949   9.356 -0.0710  0.0853  0.0907
   90POPS   C3A 1209   5.253  13.144   9.046  0.3071  0.0906 -0.1683
   90POPS   C4A 1210   5.483  13.332   8.688  0.0820  0.2127  0.0968
   90POPS   C1B 1211   5.179  12.572   9.650  0.0136 -0.0147  0.0665
   90POPS   C2B 1212   5.261  12.608   9.252  0.0191  0.3761  0.0856
   90POPS   C3B 1213   5.305  12.302   8.878 -0.1909 -0.2477  0.1583
   90POPS   C4B 1214   5.245  11.914   8.659 -0.0526  0.1424  0.2967
   91POPS   CNO 1215  13.069   8.507  10.805 -0.0242  0.0548  0.1401
   91POPS   PO4 1216  12.708   8.477  11.053 -0.0011 -0.0247 -0.1561
   91POPS   GL1 1217  12.668   8.524  10.508  0.0068 -0.2372  0.0158
   91POPS   GL2 1218  12.344   8.488  10.561  0.0298  0.2189 -0.4154
   91POPS   C1A 1219  12.891   8.566  10.148  0.1203 -0.0925 -0.1590
   91POPS   D2A 1220  12.971   8.760   9.766  0.1381  0.2513 -0.0663
   91POPS   C3A 1221  13.138   8.618   9.412  0.0356 -0.1686  0.0019
   91POPS   C4A 1222  13.103   8.374   8.986 -0.2164 -0.0452 -0.1055
   91POPS   C1B 1223  12.415   8.478  10.088  0.1427  0.0077 -0.3240
   91POPS   C2B 1224  12.590   8.370   9.679 -0.4231 -0.3030  0.1404
   91POPS   C3B 1225  12.855   8.251   9.414  0.1720 -0.0421  0.1776
   91POPS   C4B 1226  12.704   8.081   9.006  0.0688  0.0889 -0.1015
   92POPS   CNO 1227   5.711   5.407   9.970 -0.1122 -0.0171 -0.3086
   92POPS   PO4 1228   5.476   5.144  10.205  0.2618  0.2948  0.0644
   92POPS   GL1 1229   5.380   4.731   9.954  0.0628 -0.0572 -0.1389
   92POPS   GL2 1230   5.652   4.539   9.929  0.1234 -0.0501 -0.0057
   92POPS   C1A 1231   5.315   4.626   9.588 -0.1240 -0.0943  0.0946
   92POPS   D2A 1232   5.314   4.670   9.162 -0.1786 -0.1966 -0.5546
   92POPS   C3A 1233   5.097   4.799   8.855  0.1605 -0.5076  0.0338
   92POPS   C4A 1234   5.149   4.894   8.439  0.2257  0.2763 -0.0726
   92POPS   C1B 1235   5.797   4.694   9.568 -0.0640  0.0736  0.0142
   92POPS   C2B 1236   5.788   4.879   9.189  0.0079 -0.2735 -0.3086
   92POPS   C3B 1237   6.028   4.932   8.836 -0.0773 -0.0968 -0.1036
   92POPS   C4B 1238   6.147   5.199   8.530 -0.0528  0.2178 -0.1808
   93POPS   CNO 1239  11.537   5.400  10.598 -0.0328  0.0901  0.4069
   93POPS   PO4 1240  11.528   5.742  10.268 -0.1603 -0.0442 -0.0573
   93POPS   GL1 1241  11.359   5.805   9.831 -0.1647  0.1682 -0.0053
   93POPS   GL2 1242  11.461   6.104   9.913  0.2446 -0.0393  0.1718
   93POPS   C1A 1243  11.241   5.677   9.452 -0.1271 -0.2278  0.1471
   93POPS   D2A 1244  11.371   5.855   9.034 -0.0221 -0.1382 -0.1325
   93POPS   C3A 1245  11.318   5.700   8.672  0.1516  0.0213 -0.0534
   93POPS   C4A 1246  11.271   5.396   8.430 -0.0938  0.0128 -0.0683
   93POPS   C1B 1247  11.542   6.103   9.457  0.2227 -0.1925 -0.0180
   93POPS   C2B 1248  11.682   6.307   9.131 -0.5182 -0.0418  0.1169
   93POPS   C3B 1249  11.561   6.669   8.850  0.0209  0.2415  0.2370
   93POPS   C4B 1250  11.625   6.963   8.548 -0.0380  0.0889 -0.3739
   94POPS   CNO 1251   8.404   7.069  10.376  0.1814 -0.2372  0.0053
   94POPS   PO4 1252   8.437   7.511  10.406 -0.3637 -0.2364  0.0794
   94POPS   GL1 1253   8.110   7.354  10.030 -0.0207 -0.0351 -0.3969
   94POPS   GL2 1254   8.171   7.017   9.920 -0.0709  0.2820  0.3141
   94POPS   C1A 1255   7.847   7.589   9.759 -0.2709 -0.2325  0.1448
   94POPS   D2A 1256   7.806   7.725   9.341 -0.2229 -0.1368  0.2076
   94POPS   C3A 1257   7.976   7.757   9.044  0.0218 -0.0538 -0.1418
   94POPS   C4A 1258   8.305   7.498   8.895  0.1246  0.2991 -0.2070
   94POPS   C1B 1259   8.464   7.226   9.620 -0.1130 -0.3245 -0.2623
   94POPS   C2B 1260   8.798   7.452   9.452  0.0099  0.3125 -0.0555
   94POPS   C3B 1261   8.838   7.333   9.012  0.3344 -0.3916  0.1037
   94POPS   C4B 1262   8.649   7.322   8.650  0.0628  0.1375 -0.1953
   95POPS   CNO 1263   3.378   4.723  10.889  0.0431  0.4182  0.0752
   95POPS   PO4 1264   3.123   4.917  10.581  0.1586  0.2146 -0.1713
   95POPS   GL1 1265   3.006   4.811  10.199 -0.0995 -0.1858  0.2797
   95POPS   GL2 1266   2.952   4.612   9.971  0.0678 -0.3004 -0.1453
   95POPS   C1A 1267   2.628   4.930   9.842 -0.0201 -0.3074  0.0508
   95POPS   D2A 1268   2.590   4.974   9.399 -0.1592  0.0254  0.0310
   95POPS   C3A 1269   2.665   5.301   9.192  0.0915 -0.0195 -0.1450
   95POPS   C4A 1270   2.526   5.714   8.972 -0.1264  0.2183  0.0942
   95POPS   C1B 1271   3.118   4.789   9.668  0.1070 -0.1756 -0.1067
   95POPS   C2B 1272   3.195   4.804   9.211  0.1570  0.2810  0.3114
   95POPS   C3B 1273   3.100   5.133   8.966 -0.2255 -0.1872  0.2663
   95POPS   C4B 1274   2.988   5.631   8.983 -0.1545  0.1758 -0.0596
   96POPS   CNO 1275   4.656  15.429   9.665  0.1246 -0.0757  0.1427
   96POPS   PO4 1276   4.397  15.759   9.683 -0.1581  0.0368  0.0393
   96POPS   GL1 1277   4.276  15.751   9.375 -0.1822  0.0666 -0.1300
   96POPS   GL2 1278   4.386  15.413   9.225  0.0468 -0.0726  0.2726
   96POPS   C1A 1279   4.220  15.813   8.905 -0.2331  0.0958 -0.0924
   96POPS   D2A 1280   4.110  15.910   8.441  0.2406  0.0322  0.0518
   96POPS   C3A 1281   4.184  16.088   8.225 -0.1100 -0.0178  0.1783
   96POPS   C4A 1282   4.245  16.559   8.040 -0.1308 -0.2385 -0.2039
   96POPS   C1B 1283   4.285  15.273   8.950  0.2039 -0.0970  0.2955
   96POPS   C2B 1284   4.295  15.390   8.520  0.1108 -0.0129 -0.1734
   96POPS   C3B 1285   4.182  15.529   8.134  0.2096 -0.0835  0.1414
   96POPS   C4B 1286   3.945  15.454   7.747 -0.1609  0.0601  0.1241
   97POPS   CNO 1287  17.786  14.649  10.165 -0.0202  0.0988  0.0526
   97POPS   PO4 1288  17.573  14.926  10.351  0.0519  0.0736  0.2530
   97POPS   GL1 1289  17.496  15.205  10.177 -0.1245  0.1319 -0.1754
   97POPS   GL2 1290  17.773  15.365  10.099  0.0905 -0.1621  0.2906
   97POPS   C1A 1291  17.322  15.330   9.861  0.2126 -0.0401 -0.2391
   97POPS   D2A 1292  17.270  15.450   9.537  0.1264 -0.0532  0.0960
   97POPS   C3A 1293  17.282  15.514   9.149  0.4045  0.2334  0.1289
   97POPS   C4A 1294  17.472  15.650   8.780 -0.1475 -0.1165 -0.0123
   97POPS   C1B 1295  17.785  15.135   9.749 -0.0984 -0.1540  0.1309
   97POPS   C2B 1296  17.707  15.252   9.341  0.1087 -0.2107 -0.0400
   97POPS   C3B 1297  17.924  15.443   8.985  0.0783  0.0501 -0.0606
   97POPS   C4B 1298  17.931  15.758   8.587  0.0143  0.0713  0.0216
   98POPS   CNO 1299   7.456   3.145  10.284  0.0661 -0.0698  0.1655
   98POPS   PO4 1300   7.010   3.241  10.158 -0.2812  0.1073 -0.3246
   98POPS   GL1 1301   7.192   3.236   9.806  0.2290 -0.2669  0.1878
   98POPS   GL2 1302   7.362   3.614   9.608  0.2316  0.1096  0.4447
   98POPS   C1A 1303   7.124   3.136   9.378  0.4826  0.0583  0.0516
   98POPS   D2A 1304   6.922   3.213   9.048 -0.2237  0.1014  0.1562
   98POPS   C3A 1305   6.893   3.548   8.848  0.0907  0.0237 -0.1548
   98POPS   C4A 1306   6.561   3.888   8.804  0.2475 -0.0666 -0.1062
   98POPS   C1B 1307   7.382   3.476   9.163  0.1836 -0.0493  0.2258
   98POPS   C2B 1308   7.636   3.688   8.747 -0.0219  0.0349  0.2792
   98POPS   C3B 1309   7.729   3.632   8.328 -0.0500 -0.0160  0.0816
   98POPS   C4B 1310   7.848   3.723   7.944  0.1485 -0.0073 -0.0042
   99POPS   CNO 1311  12.018   9.777  11.301  0.1752 -0.2331  0.2792
   99POPS   PO4 1312  12.146  10.044  10.885 -0.1007  0.0417 -0.0905
   99POPS   GL1 1313  12.204   9.908  10.450  0.1291  0.1314  0.0811
   99POPS   GL2 1314  12.573   9.817  10.411  0.2773  0.3428 -0.0122
   99POPS   C1A 1315  12.277  10.032  10.078 -0.0265 -0.1944 -0.0122
   99POPS   D2A 1316  12.425   9.882   9.711 -0.3024  0.0901 -0.0491
   99POPS   C3A 1317  12.652   9.697   9.414 -0.2666 -0.2755 -0.3790
   99POPS   C4A 1318  12.755   9.727   8.953  0.1866 -0.2281  0.0577
   99POPS   C1B 1319  12.794   9.889  10.044  0.1730  0.0282  0.0521
   99POPS   C2B 1320  12.852  10.070   9.684  0.1323 -0.3208 -0.0173
   99POPS   C3B 1321  12.591  10.168   9.289  0.1129  0.1448  0.3877
   99POPS   C4B 1322  12.264   9.872   9.213 -0.1654 -0.1378  0.0385
  100POPS   CNO 1323  12.213   7.656  11.072 -0.0484  0.5747  0.0634
  100POPS   PO4 1324  12.455   7.614  10.867  0.0382  0.1360  0.0311
  100POPS   GL1 1325  12.554   7.753  10.472 -0.0312 -0.1303  0.0954
  100POPS   GL2 1326  12.819   7.579  10.436 -0.2800  0.1186  0.0067
  100POPS   C1A 1327  12.692   8.012  10.070 -0.0345 -0.0287 -0.3641
  100POPS   D2A 1328  12.741   7.852   9.650 -0.3088 -0.0019 -0.0430
  100POPS   C3A 1329  12.917   7.714   9.293  0.3552 -0.1049 -0.0956
  100POPS   C4A 1330  13.211   7.849   8.943 -0.1467 -0.0176 -0.0894
  100POPS   C1B 1331  12.712   7.460  10.024  0.2018 -0.1399  0.0528
  100POPS   C2B 1332  12.813   7.305   9.636  0.1498  0.0635  0.2424
  100POPS   C3B 1333  13.065   7.216   9.432  0.1894 -0.0776 -0.0766
  100POPS   C4B 1334  13.077   7.085   8.962  0.0106 -0.2979  0.1201
  101POPS   CNO 1335  13.770   0.637   9.987 -0.0345 -0.1511  0.1598
  101POPS   PO4 1336  14.049   0.354   9.701 -0.0312 -0.1270 -0.0411
  101POPS   GL1 1337  13.779   0.571   9.510  0.0320  0.0706  0.2882
  101POPS   GL2 1338  13.597   0.332   9.411  0.1120 -0.1401  0.3018
  101POPS   C1A 1339  13.745   0.858   9.217 -0.1710 -0.0001  0.0265
  101POPS   D2A 1340  13.768   1.044   8.904 -0.0390 -0.3713  0.2490
  101POPS   C3A 1341  13.584   1.351   8.860  0.1617 -0.0325 -0.1006
  101POPS   C4A 1342  13.483   1.738   8.659 -0.0822 -0.0488  0.1186
  101POPS   C1B 1343  13.586   0.436   8.985 -0.3907  0.0920 -0.1560
  101POPS   C2B 1344  13.651   0.628   8.540  0.0999 -0.0124  0.1671
  101POPS   C3B 1345  13.794   1.008   8.366 -0.0013 -0.2056 -0.0290
  101POPS   C4B 1346  13.754   1.400   8.345 -0.1784 -0.0801 -0.2431
  102POPS   CNO 1347  13.386  12.564  10.600 -0.1410  0.0587  0.0561
  102POPS   PO4 1348  13.324  12.315  10.203  0.0233  0.1244 -0.0708
  102POPS   GL1 1349  13.424  12.018   9.893 -0.1098  0.0520  0.2336
  102POPS   GL2 1350  13.752  12.029   9.896  0.0342  0.3231 -0.2105
  102POPS   C1A 1351  13.433  12.052   9.504 -0.1017 -0.3696 -0.2874
  102POPS   D2A 1352  13.545  12.035   9.087  0.1991 -0.1484  0.2768
  102POPS   C3A 1353  13.410  11.875   8.659 -0.1819  0.1396  0.0232
  102POPS   C4A 1354  13.229  11.885   8.198  0.0165  0.1020 -0.1500
  102POPS   C1B 1355  13.961  11.916   9.560 -0.0073  0.0997  0.2478
  102POPS   C2B 1356  14.067  11.922   9.088 -0.2628  0.0831 -0.0146
  102POPS   C3B 1357  14.053  11.778   8.736  0.0861  0.1166 -0.1259
  102POPS   C4B 1358  14.212  11.605   8.440 -0.2449  0.3791  0.1801
  103POPS   CNO 1359   7.968   3.952  10.536  0.0897 -0.0660 -0.4375
  103POPS   PO4 1360   7.754   3.995  10.210 -0.1458  0.2332 -0.2145
  103POPS   GL1 1361   7.661   4.020   9.816  0.1272 -0.2454 -0.0940
  103POPS   GL2 1362   7.678   4.307   9.717  0.0892 -0.0896  0.0412
  103POPS   C1A 1363   7.675   3.962   9.391 -0.2361 -0.1121  0.2221
  103POPS   D2A 1364   7.859   4.046   9.025 -0.1262 -0.1957 -0.1620
  103POPS   C3A 1365   7.638   4.242   8.775 -0.1758  0.0157 -0.0676
  103POPS   C4A 1366   7.298   4.490   8.541  0.3596  0.1524  0.0984
  103POPS   C1B 1367   7.679   4.512   9.323  0.2013  0.0723  0.0265
  103POPS   C2B 1368   7.555   4.660   8.987  0.1502  0.0738 -0.0353
  103POPS   C3B 1369   7.449   4.876   8.800  0.2045 -0.0649 -0.2771
  103POPS   C4B 1370   7.324   5.028   8.449 -0.2548  0.3273 -0.1992
  104POPS   CNO 1371   4.123  12.895  10.514  0.0544  0.2827 -0.0764
  104POPS   PO4 1372   3.788  12.751  10.468  0.1715 -0.2756 -0.0892
  104POPS   GL1 1373   3.714  13.120  10.171 -0.0840  0.0722  0.1569
  104POPS   GL2 1374   4.026  12.954   9.991  0.3023 -0.0278  0.2524
  104POPS   C1A 1375   3.580  13.086   9.750  0.1366 -0.0327 -0.1096
  104POPS   D2A 1376   3.547  13.110   9.340 -0.5178  0.6285 -0.1231
  104POPS   C3A 1377   4.028  13.144   9.041 -0.1104  0.2110  0.0855
  104POPS   C4A 1378   4.321  13.224   8.711 -0.0167  0.0226  0.2546
  104POPS   C1B 1379   4.135  13.194   9.613 -0.2603  0.2616  0.0613
  104POPS   C2B 1380   4.202  13.552   9.323  0.3293  0.1165 -0.0850
  104POPS   C3B 1381   4.107  13.634   8.867 -0.2634  0.3171 -0.2629
  104POPS   C4B 1382   4.182  13.702   8.386 -0.0162  0.0960 -0.4122
  105POPS   CNO 1383   3.270   7.671  10.892 -0.2530  0.3051 -0.0558
  105POPS   PO4 1384   3.269   7.588  10.518 -0.1582  0.1303  0.1366
  105POPS   GL1 1385   3.299   7.796  10.079  0.0313 -0.3480  0.2237
  105POPS   GL2 1386   3.529   8.028  10.031  0.2910  0.0616  0.1841
  105POPS   C1A 1387   3.307   7.737   9.685 -0.0792  0.2430 -0.2462
  105POPS   D2A 1388   3.260   7.625   9.328  0.1548 -0.0734  0.0047
  105POPS   C3A 1389   3.123   7.299   9.099 -0.0568  0.3203 -0.0785
  105POPS   C4A 1390   2.964   7.196   8.628 -0.0239  0.0886 -0.2268
  105POPS   C1B 1391   3.403   8.194   9.661  0.2522 -0.1621 -0.0724
  105POPS   C2B 1392   3.573   8.111   9.201 -0.2109  0.0841  0.1507
  105POPS   C3B 1393   3.634   8.052   8.678 -0.0863 -0.1413 -0.0989
  105POPS   C4B 1394   3.411   8.082   8.370  0.1631 -0.0675  0.1356
  106POPS   CNO 1395  14.094  11.477  11.009 -0.0405 -0.1750 -0.2305
  106POPS   PO4 1396  14.217  11.180  10.757 -0.1632 -0.3240 -0.0494
  106POPS   GL1 1397  14.391  11.222  10.390 -0.1413  0.1601 -0.0439
  106POPS   GL2 1398  14.651  11.396  10.393 -0.1870  0.4168  0.0717
  106POPS   C1A 1399  14.073  11.255  10.004 -0.2823  0.0874 -0.4088
  106POPS   D2A 1400  13.902  11.063   9.694 -0.0330 -0.1108  0.0019
  106POPS   C3A 1401  13.998  10.684   9.480  0.0361  0.0779  0.0296
  106POPS   C4A 1402  14.183  10.306   9.719 -0.0147  0.0932  0.0587
  106POPS   C1B 1403  14.629  11.360   9.971  0.1219 -0.1024  0.1514
  106POPS   C2B 1404  14.767  11.471   9.595 -0.1806 -0.0504 -0.0060
  106POPS   C3B 1405  14.972  11.308   9.227  0.1245  0.0752 -0.0768
  106POPS   C4B 1406  15.204  10.976   9.025 -0.1528 -0.3788  0.0200
  107POPS   CNO 1407   2.665  15.563  10.571  0.2101 -0.0338  0.0692
  107POPS   PO4 1408   2.903  15.593  10.179 -0.1225 -0.0364 -0.1241
  107POPS   GL1 1409   2.826  15.386   9.763  0.1366  0.0564 -0.0286
  107POPS   GL2 1410   2.672  15.102   9.788 -0.1291 -0.0395  0.3013
  107POPS   C1A 1411   2.748  15.320   9.235 -0.1279 -0.0684  0.0187
  107POPS   D2A 1412   2.841  15.322   8.802 -0.0613  0.1587 -0.0568
  107POPS   C3A 1413   2.645  15.378   8.494 -0.2009 -0.0219 -0.1397
  107POPS   C4A 1414   2.548  15.491   8.164 -0.1889 -0.0783 -0.1768
  107POPS   C1B 1415   2.362  15.026   9.369 -0.0008 -0.3348 -0.0613
  107POPS   C2B 1416   2.368  14.957   8.923  0.0994 -0.2032  0.0349
  107POPS   C3B 1417   2.494  14.937   8.588 -0.0144  0.0333  0.1044
  107POPS   C4B 1418   2.569  14.816   8.091 -0.0287 -0.0222 -0.2351
  108POPS   CNO 1419  12.854   4.583   9.894  0.0175 -0.2124  0.2329
  108POPS   PO4 1420  12.482   4.403  10.044  0.0531 -0.1408 -0.1043
  108POPS   GL1 1421  12.386   4.166   9.711  0.1259  0.0258  0.1562
  108POPS   GL2 1422  12.633   4.140   9.531  0.2091  0.0438  0.1795
  108POPS   C1A 1423  12.071   4.226   9.474  0.0125  0.1530  0.1597
  108POPS   D2A 1424  12.138   4.582   9.150  0.1569  0.0507  0.0287
  108POPS   C3A 1425  12.523   4.753   8.760  0.0891  0.0256 -0.2063
  108POPS   C4A 1426  12.406   4.791   8.328 -0.0626  0.1332 -0.1909
  108POPS   C1B 1427  12.480   4.176   9.139 -0.0848 -0.1416 -0.0629
  108POPS   C2B 1428  12.315   4.250   8.711  0.3660  0.1503 -0.1303
  108POPS   C3B 1429  12.126   4.024   8.343  0.2398  0.2294 -0.0595
  108POPS   C4B 1430  11.802   4.001   8.134  0.2712  0.0421  0.0113
  109POPS   CNO 1431   9.969   6.119  10.808 -0.1286  0.0754  0.0723
  109POPS   PO4 1432  10.031   6.013  10.493  0.1775 -0.1639  0.0936
  109POPS   GL1 1433   9.911   6.102   9.977  0.1975 -0.1455  0.0516
  109POPS   GL2 1434   9.687   5.810   9.862  0.4379  0.0393 -0.1483
  109POPS   C1A 1435   9.654   6.273   9.685  0.0094 -0.2799 -0.0210
  109POPS   D2A 1436   9.477   6.183   9.361  0.0977 -0.0382  0.2105
  109POPS   C3A 1437   9.267   6.358   9.065  0.2715 -0.0490 -0.0171
  109POPS   C4A 1438   8.962   6.323   8.702 -0.0223 -0.1623 -0.1136
  109POPS   C1B 1439   9.870   5.750   9.511 -0.0834  0.1418 -0.1029
  109POPS   C2B 1440   9.862   6.001   9.085 -0.0315  0.0142  0.2879
  109POPS   C3B 1441   9.675   6.277   8.856  0.0895  0.1582  0.0791
  109POPS   C4B 1442   9.395   6.075   8.628 -0.0004  0.3718 -0.2568
  110POPS   CNO 1443  15.499  11.805  10.594  0.2092  0.0823  0.2187
  110POPS   PO4 1444  15.550  11.935  10.174  0.0030 -0.1495 -0.1062
  110POPS   GL1 1445  15.423  11.720   9.846 -0.0738  0.2454 -0.1584
  110POPS   GL2 1446  14.953  11.740  10.011 -0.3169  0.1851  0.0478
  110POPS   C1A 1447  15.198  11.707   9.473  0.0375  0.1472 -0.0672
  110POPS   D2A 1448  15.124  11.754   9.031 -0.1778 -0.1412  0.0208
  110POPS   C3A 1449  15.156  11.491   8.729  0.2808 -0.1501  0.2927
  110POPS   C4A 1450  15.237  11.185   8.441 -0.0434  0.1656 -0.1170
  110POPS   C1B 1451  14.828  12.053   9.762  0.1441  0.1582 -0.0282
  110POPS   C2B 1452  14.869  12.171   9.368  0.0661 -0.1844 -0.1692
  110POPS   C3B 1453  14.608  12.020   8.988  0.2554 -0.0178  0.0530
  110POPS   C4B 1454  14.663  11.934   8.553  0.0502  0.0056 -0.0032
  111POPS   CNO 1455  10.843   8.745  10.456 -0.0486  0.1251 -0.2817
  111POPS   PO4 1456  11.326   8.807  10.484 -0.0851  0.0038 -0.0530
  111POPS   GL1 1457  11.435   8.417  10.181 -0.1660 -0.2150 -0.0137
  111POPS   GL2 1458  11.075   8.401  10.122 -0.0648 -0.0659 -0.0522
  111POPS   C1A 1459  11.336   8.242   9.678  0.3284 -0.1698 -0.0614
  111POPS   D2A 1460  11.498   8.071   9.275  0.2127  0.1526  0.1185
  111POPS   C3A 1461  11.837   8.128   9.022 -0.1046  0.0443 -0.0546
  111POPS   C4A 1462  12.115   8.348   8.733 -0.1932 -0.2078  0.3982
  111POPS   C1B 1463  11.055   8.770   9.905  0.0050 -0.2313 -0.3920
  111POPS   C2B 1464  10.919   8.798   9.597 -0.0036  0.1597 -0.0846
  111POPS   C3B 1465  10.963   8.642   9.215  0.2887  0.0653 -0.1968
  111POPS   C4B 1466  10.664   8.492   8.921  0.0102  0.0058 -0.0110
  112POPS   CNO 1467  16.310  16.791  10.561  0.2188 -0.1957 -0.2313
  112POPS   PO4 1468  15.899  16.795  10.339 -0.0502 -0.3010  0.0090
  112POPS   GL1 1469  15.972  16.822   9.951 -0.0831 -0.0016 -0.1357
  112POPS   GL2 1470  15.692  16.756   9.727 -0.2601 -0.1579  0.0322
  112POPS   C1A 1471  16.139  16.552   9.608 -0.0708  0.0184 -0.0501
  112POPS   D2A 1472  16.337  16.476   9.227 -0.2898 -0.0769  0.0415
  112POPS   C3A 1473  16.174  16.375   8.769  0.0055  0.1107  0.2341
  112POPS   C4A 1474  16.269  16.135   8.455 -0.3604  0.1337  0.2700
  112POPS   C1B 1475  15.592  16.522   9.365  0.0379 -0.3229 -0.0170
  112POPS   C2B 1476  15.623  16.384   8.967  0.1182  0.0962 -0.1078
  112POPS   C3B 1477  15.659  16.088   8.543  0.1041  0.1511  0.2155
  112POPS   C4B 1478  15.461  16.217   8.095  0.0965 -0.0718  0.2158
  113POPS   CNO 1479  10.702   2.305  10.105 -0.0647 -0.1230  0.1660
  113POPS   PO4 1480  10.844   2.722  10.097 -0.2345  0.2087  0.3425
  113POPS   GL1 1481  10.821   2.873   9.674 -0.0280 -0.2172 -0.0423
  113POPS   GL2 1482  10.543   3.023   9.587 -0.0149  0.1995 -0.0943
  113POPS   C1A 1483  11.015   3.167   9.316  0.1877 -0.0562  0.0639
  113POPS   D2A 1484  10.919   3.197   8.811 -0.1681  0.0651 -0.1559
  113POPS   C3A 1485  11.058   3.305   8.425  0.1131 -0.0364 -0.0988
  113POPS   C4A 1486  11.087   3.469   7.914 -0.2974 -0.0802  0.1679
  113POPS   C1B 1487  10.511   2.933   9.119 -0.0354 -0.0383  0.1167
  113POPS   C2B 1488  10.501   2.908   8.629 -0.0303 -0.0433 -0.0354
  113POPS   C3B 1489  10.532   2.551   8.429 -0.2453  0.0297 -0.2754
  113POPS   C4B 1490  10.623   2.529   8.052  0.0030  0.1675  0.0503
  114POPS   CNO 1491   1.598   0.276  10.205  0.0401 -0.0869  0.0712
  114POPS   PO4 1492   1.491   0.524  10.588  0.1094 -0.0096  0.0370
  114POPS   GL1 1493   1.618   0.784  10.276 -0.1702 -0.2896 -0.0604
  114POPS   GL2 1494   1.452   1.050  10.112  0.0028  0.2506 -0.0255
  114POPS   C1A 1495   1.725   0.798   9.809 -0.1892 -0.0675  0.0405
  114POPS   D2A 1496   1.934   0.829   9.445 -0.0889 -0.0786  0.0224
  114POPS   C3A 1497   1.797   0.909   9.116 -0.1679  0.0931  0.3230
  114POPS   C4A 1498   1.758   0.833   8.711 -0.1146  0.1224  0.4036
  114POPS   C1B 1499   1.290   1.037   9.749 -0.0229  0.0909 -0.4059
  114POPS   C2B 1500   1.419   0.792   9.372 -0.2735  0.1467 -0.1354
  114POPS   C3B 1501   1.393   0.585   9.038 -0.0005  0.0121 -0.0574
  114POPS   C4B 1502   1.297   0.590   8.607  0.1762  0.0568 -0.2448
  115POPS   CNO 1503  16.049   9.433  11.022  0.0297  0.2176 -0.0402
  115POPS   PO4 1504  16.338   9.188  10.761 -0.1346  0.1840 -0.1769
  115POPS   GL1 1505  16.058   9.072  10.437 -0.1022  0.2383  0.0693
  115POPS   GL2 1506  16.120   8.763  10.287  0.1092  0.0459 -0.0961
  115POPS   C1A 1507  15.860   9.355  10.213 -0.2619 -0.1945 -0.4444
  115POPS   D2A 1508  15.780   9.391   9.837  0.0168 -0.2361 -0.2217
  115POPS   C3A 1509  15.821   9.129   9.372  0.1503  0.2437  0.2661
  115POPS   C4A 1510  15.785   8.956   8.939 -0.0235  0.2229  0.2282
  115POPS   C1B 1511  16.022   8.913   9.917 -0.0791  0.1197 -0.0054
  115POPS   C2B 1512  16.028   8.698   9.538 -0.0667 -0.2183  0.1830
  115POPS   C3B 1513  15.890   8.550   9.272  0.2637  0.0471  0.3194
  115POPS   C4B 1514  15.981   8.294   9.012  0.0416  0.0884  0.0017
  116POPS   CNO 1515   3.506  14.899  10.022  0.0691  0.0492 -0.3630
  116POPS   PO4 1516   3.104  15.077  10.009  0.0275 -0.0570 -0.0904
  116POPS   GL1 1517   3.172  15.057   9.506  0.1560  0.0078 -0.5334
  116POPS   GL2 1518   3.494  15.060   9.537 -0.2252  0.1065 -0.1231
  116POPS   C1A 1519   3.237  15.138   9.115  0.3833 -0.1741 -0.6295
  116POPS   D2A 1520   3.304  15.059   8.652 -0.1557  0.0674  0.1162
  116POPS   C3A 1521   3.653  15.142   8.282  0.0532  0.0771  0.0742
  116POPS   C4A 1522   3.830  14.915   7.867 -0.0132  0.0660  0.1312
  116POPS   C1B 1523   3.775  14.916   9.291 -0.1218  0.0387 -0.1723
  116POPS   C2B 1524   3.776  14.985   8.853 -0.1572 -0.0025 -0.0832
  116POPS   C3B 1525   3.964  14.944   8.583  0.2495 -0.0567  0.2886
  116POPS   C4B 1526   3.905  14.612   8.349  0.2656  0.0394 -0.0852
  117POPS   CNO 1527  14.899   6.878  11.027 -0.1228 -0.0113 -0.0219
  117POPS   PO4 1528  14.952   6.602  10.652  0.1769 -0.1470 -0.0357
  117POPS   GL1 1529  14.937   6.913  10.289 -0.0088  0.1665 -0.3255
  117POPS   GL2 1530  15.151   6.717   9.968 -0.1559 -0.0399 -0.1876
  117POPS   C1A 1531  14.840   7.328  10.102  0.1491  0.0444 -0.0460
  117POPS   D2A 1532  14.742   7.448   9.759 -0.2827  0.1745  0.2022
  117POPS   C3A 1533  14.717   7.336   9.398  0.2387  0.2771 -0.0045
  117POPS   C4A 1534  14.568   7.587   8.997  0.1942  0.0291 -0.0547
  117POPS   C1B 1535  14.719   6.946   9.809 -0.3547  0.0173  0.0327
  117POPS   C2B 1536  14.349   7.064   9.614  0.2346 -0.0118 -0.1356
  117POPS   C3B 1537  14.290   7.525   9.389 -0.0890 -0.0377 -0.1605
  117POPS   C4B 1538  14.104   7.739   9.056  0.0250  0.2149 -0.1601
  118POPS   CNO 1539  11.057   5.001  10.056  0.2207  0.5339 -0.2246
  118POPS   PO4 1540  10.594   4.900   9.988  0.0754  0.0066  0.0769
  118POPS   GL1 1541  10.706   5.170   9.698  0.2324  0.1606  0.4028
  118POPS   GL2 1542  10.906   5.387   9.708  0.1011  0.0192 -0.2775
  118POPS   C1A 1543  10.695   5.197   9.244  0.3128  0.1052  0.0799
  118POPS   D2A 1544  10.405   5.150   9.005 -0.2425 -0.0800 -0.0041
  118POPS   C3A 1545  10.439   5.227   8.626 -0.1621  0.1552  0.2075
  118POPS   C4A 1546  10.226   5.504   8.429 -0.0191  0.2404 -0.0492
  118POPS   C1B 1547  10.771   5.644   9.376  0.0717 -0.0905  0.0433
  118POPS   C2B 1548  10.837   5.882   8.934  0.2919 -0.1308 -0.0228
  118POPS   C3B 1549  10.940   6.051   8.574 -0.1331 -0.4034  0.1683
  118POPS   C4B 1550  11.272   6.093   8.171 -0.2402  0.1978 -0.0613
  119POPS   CNO 1551  12.432  13.960   9.756  0.2150 -0.3021  0.0699
  119POPS   PO4 1552  12.342  14.283   9.962  0.1254 -0.2855  0.1132
  119POPS   GL1 1553  12.358  14.546   9.623  0.3376  0.1129 -0.1358
  119POPS   GL2 1554  12.646  14.656   9.463  0.2251 -0.2268  0.0357
  119POPS   C1A 1555  12.140  14.633   9.243 -0.3157 -0.1289 -0.4543
  119POPS   D2A 1556  12.027  14.399   8.891  0.2184  0.0148 -0.0074
  119POPS   C3A 1557  11.967  14.518   8.543  0.0364 -0.1553 -0.0607
  119POPS   C4A 1558  11.805  14.323   8.210  0.0844  0.0659  0.1176
  119POPS   C1B 1559  12.587  14.260   9.282  0.1868  0.1711  0.1170
  119POPS   C2B 1560  12.757  13.867   8.946  0.0198 -0.0408 -0.2013
  119POPS   C3B 1561  12.625  13.744   8.564 -0.0484  0.1524 -0.1895
  119POPS   C4B 1562  12.242  13.569   8.387  0.2771 -0.2804 -0.0344
  120POPS   CNO 1563  14.566  12.044  10.291  0.0768  0.0950  0.1602
  120POPS   PO4 1564  14.745  12.490  10.394  0.1490 -0.1774  0.0120
  120POPS   GL1 1565  14.630  12.472   9.983 -0.3366  0.1398 -0.0025
  120POPS   GL2 1566  14.537  12.754   9.872  0.1755 -0.1943 -0.1392
  120POPS   C1A 1567  14.952  12.604   9.619 -0.0800  0.1366 -0.0506
  120POPS   D2A 1568  15.123  12.617   9.255  0.5692  0.0616  0.1615
  120POPS   C3A 1569  15.025  12.769   8.810 -0.1987 -0.0342  0.1748
  120POPS   C4A 1570  14.870  12.913   8.419 -0.1721  0.1296  0.3397
  120POPS   C1B 1571  14.689  12.945   9.417  0.0696 -0.3477  0.2332
  120POPS   C2B 1572  14.652  13.112   8.848 -0.1565  0.0608  0.1983
  120POPS   C3B 1573  14.585  13.283   8.443 -0.1694 -0.1216 -0.1121
  120POPS   C4B 1574  14.878  13.367   8.124  0.0503 -0.3894 -0.2127
  121POPS   CNO 1575  17.721  10.232  10.335 -0.0135 -0.0171  0.1185
  121POPS   PO4 1576  17.840   9.983  10.595 -0.1598  0.4462 -0.2512
  121POPS   GL1 1577  17.720   9.673  10.280  0.1599 -0.2405  0.1432
  121POPS   GL2 1578  17.340   9.643  10.343  0.2994 -0.2643 -0.0845
  121POPS   C1A 1579  17.536   9.548   9.876  0.0013 -0.1317  0.2003
  121POPS   D2A 1580  17.387   9.536   9.474  0.1872  0.1041 -0.1602
  121POPS   C3A 1581  17.488   9.697   9.075  0.0507 -0.0178  0.2016
  121POPS   C4A 1582  17.248   9.736   8.734  0.0522 -0.1078  0.3810
  121POPS   C1B 1583  17.112   9.745  10.054  0.2060 -0.1151  0.1277
  121POPS   C2B 1584  17.004   9.735   9.679 -0.1391 -0.0438  0.1892
  121POPS   C3B 1585  16.987   9.591   9.223 -0.0736  0.0075  0.1980
  121POPS   C4B 1586  17.148   9.320   9.036  0.0626 -0.2553 -0.1982
  122POPS   CNO 1587   8.802  16.781   9.763  0.3335 -0.2386  0.2675
  122POPS   PO4 1588   8.835  17.024   9.376 -0.0993 -0.1770  0.1241
  122POPS   GL1 1589   8.610  17.317   9.119 -0.0105 -0.1762  0.3058
  122POPS   GL2 1590   8.573  17.002   8.915 -0.2055  0.0675 -0.1489
  122POPS   C1A 1591   8.289  17.506   8.730 -0.0449  0.2255 -0.1514
  122POPS   D2A 1592   8.206  17.671   8.308  0.0220  0.3992  0.0473
  122POPS   C3A 1593   8.580  17.763   7.950  0.0483  0.1443 -0.1371
  122POPS   C4A 1594   8.738  17.462   7.814  0.0244 -0.0648 -0.2303
  122POPS   C1B 1595   8.590  17.143   8.551  0.0832 -0.2777  0.1185
  122POPS   C2B 1596   8.498  17.271   8.249  0.1405 -0.1183 -0.1281
  122POPS   C3B 1597   8.243  17.380   7.887  0.0587  0.2207  0.4023
  122POPS   C4B 1598   8.014  17.581   7.553 -0.1366  0.0301 -0.1005
  123POPS   CNO 1599  13.679   4.574  10.255  0.2481 -0.2514  0.3149
  123POPS   PO4 1600  13.312   4.825  10.134  0.0143 -0.2276  0.1230
  123POPS   GL1 1601  13.213   4.909   9.661  0.2299  0.2420  0.0346
  123POPS   GL2 1602  13.246   4.604   9.520 -0.1659 -0.2617 -0.1390
  123POPS   C1A 1603  13.399   5.071   9.200  0.2775  0.0924 -0.2170
  123POPS   D2A 1604  13.301   5.044   8.816  0.1720  0.1747  0.3168
  123POPS   C3A 1605  13.623   5.237   8.513  0.3322 -0.0097 -0.0580
  123POPS   C4A 1606  13.863   5.350   8.219 -0.0144 -0.0002 -0.0729
  123POPS   C1B 1607  13.357   4.612   9.098 -0.2199  0.2844 -0.0448
  123POPS   C2B 1608  13.189   4.582   8.681  0.0015 -0.0647 -0.1811
  123POPS   C3B 1609  13.306   4.892   8.274 -0.3358 -0.2170 -0.1470
  123POPS   C4B 1610  13.632   4.924   8.003  0.1752  0.1574 -0.1062
  124POPS   CNO 1611  10.623  13.901  10.642 -0.0190 -0.1131 -0.0043
  124POPS   PO4 1612  10.789  13.718  10.223 -0.1219 -0.1540  0.1243
  124POPS   GL1 1613  10.997  13.341  10.043 -0.0843 -0.0333 -0.0352
  124POPS   GL2 1614  10.936  13.342   9.738 -0.1391 -0.2925  0.2066
  124POPS   C1A 1615  10.857  12.891   9.848  0.0849  0.3017 -0.2666
  124POPS   D2A 1616  11.029  12.720   9.474  0.3220  0.0665 -0.0927
  124POPS   C3A 1617  11.073  12.909   9.027  0.0812  0.0065  0.3567
  124POPS   C4A 1618  10.899  12.895   8.664  0.0618 -0.2666 -0.2105
  124POPS   C1B 1619  10.794  13.168   9.372  0.2374 -0.1444  0.0328
  124POPS   C2B 1620  10.642  13.274   8.969 -0.3466 -0.0002 -0.1002
  124POPS   C3B 1621  10.614  13.623   8.786 -0.1524  0.2087  0.1141
  124POPS   C4B 1622  10.427  13.928   8.452  0.0329  0.0279 -0.0450
  125POPS   CNO 1623   9.339  15.300  10.042  0.0802  0.0956  0.2154
  125POPS   PO4 1624   9.061  15.637  10.226  0.0684 -0.0442 -0.2940
  125POPS   GL1 1625   8.874  15.379   9.826 -0.3323 -0.0085  0.0436
  125POPS   GL2 1626   9.134  15.155   9.565 -0.0061  0.1492  0.0083
  125POPS   C1A 1627   8.620  15.221   9.529  0.2692  0.1834 -0.2794
  125POPS   D2A 1628   8.269  15.426   9.217  0.1290 -0.5602 -0.2193
  125POPS   C3A 1629   8.189  15.321   8.766  0.2534  0.1339  0.0798
  125POPS   C4A 1630   8.246  15.222   8.408  0.2762 -0.0687 -0.3488
  125POPS   C1B 1631   8.946  14.984   9.159 -0.0759  0.1313  0.1389
  125POPS   C2B 1632   9.063  14.938   8.777 -0.0042  0.0300  0.1236
  125POPS   C3B 1633   9.107  15.023   8.356  0.3371  0.0172 -0.2478
  125POPS   C4B 1634   9.214  15.395   8.191 -0.2682  0.0703  0.0280
  126POPS   CNO 1635   9.968   1.773  10.230 -0.0452 -0.0677 -0.1945
  126POPS   PO4 1636  10.106   1.655   9.834 -0.1180 -0.1926  0.0677
  126POPS   GL1 1637  10.076   1.815   9.382 -0.2288  0.1029 -0.1832
  126POPS   GL2 1638   9.996   2.107   9.230 -0.2228 -0.0695 -0.1933
  126POPS   C1A 1639  10.291   1.824   9.001 -0.2308 -0.3546 -0.1316
  126POPS   D2A 1640  10.480   2.091   8.735 -0.0342  0.0496  0.2624
  126POPS   C3A 1641  10.542   2.015   8.245 -0.1461 -0.4102  0.0326
  126POPS   C4A 1642  10.832   2.121   7.883 -0.0159  0.2111  0.0585
  126POPS   C1B 1643   9.951   2.152   8.822 -0.3295  0.1206  0.1548
  126POPS   C2B 1644  10.032   1.901   8.544 -0.2801 -0.0357  0.3278
  126POPS   C3B 1645  10.115   1.800   8.092  0.2217  0.3727  0.1739
  126POPS   C4B 1646  10.328   2.014   7.765  0.0838 -0.0958  0.3053
  127POPS   CNO 1647  13.342  12.079  10.686 -0.0615  0.3162  0.0152
  127POPS   PO4 1648  13.446  11.684  10.529  0.1801 -0.0114 -0.1911
  127POPS   GL1 1649  13.510  11.605  10.162  0.0198 -0.0567 -0.1482
  127POPS   GL2 1650  13.275  11.521  10.047  0.0394  0.0876 -0.1305
  127POPS   C1A 1651  13.729  11.501   9.741  0.4054  0.1196  0.2475
  127POPS   D2A 1652  13.701  11.607   9.293  0.2459 -0.0868  0.2246
  127POPS   C3A 1653  13.640  11.473   8.960  0.2361 -0.0133  0.1468
  127POPS   C4A 1654  13.386  11.374   8.554  0.0579 -0.0282  0.1119
  127POPS   C1B 1655  13.185  11.627   9.713 -0.4562  0.1667 -0.2854
  127POPS   C2B 1656  13.165  11.593   9.397  0.2124  0.1499  0.1542
  127POPS   C3B 1657  13.085  11.590   9.042 -0.1494 -0.0428  0.3164
  127POPS   C4B 1658  12.934  11.642   8.706  0.0086  0.3366 -0.2689
  128POPS   CNO 1659  11.749   4.086  10.674 -0.3307 -0.0882 -0.0356
  128POPS   PO4 1660  11.703   4.221  10.305  0.0006  0.1049  0.3033
  128POPS   GL1 1661  11.728   4.215   9.891 -0.0394  0.0702 -0.0391
  128POPS   GL2 1662  11.691   4.499   9.809  0.0241  0.2635 -0.1917
  128POPS   C1A 1663  11.563   4.027   9.476 -0.0158  0.1984  0.1954
  128POPS   D2A 1664  11.446   4.123   9.129 -0.1755  0.0103 -0.1005
  128POPS   C3A 1665  11.807   4.147   8.839  0.2394 -0.0414 -0.0195
  128POPS   C4A 1666  11.909   4.446   8.488 -0.1498 -0.2039  0.0666
  128POPS   C1B 1667  11.715   4.577   9.439 -0.1426 -0.0620 -0.2266
  128POPS   C2B 1668  11.719   4.834   9.004 -0.0338 -0.4024  0.0686
  128POPS   C3B 1669  11.818   4.863   8.644 -0.2051  0.1249  0.1494
  128POPS   C4B 1670  11.551   4.869   8.352  0.1017  0.1277  0.1258
  129POPS   CNO 1671  16.845  16.077  10.403  0.2164 -0.0254 -0.1917
  129POPS   PO4 1672  16.889  16.418  10.254 -0.1552  0.0389  0.0080
  129POPS   GL1 1673  16.722  16.295   9.940 -0.0655 -0.2395 -0.0790
  129POPS   GL2 1674  16.352  16.221   9.879  0.1679 -0.1098  0.0067
  129POPS   C1A 1675  16.722  16.170   9.440  0.0744 -0.0190 -0.1326
  129POPS   D2A 1676  16.457  16.039   9.084 -0.3309  0.0705 -0.1619
  129POPS   C3A 1677  16.467  15.814   8.770  0.0834  0.0310  0.1560
  129POPS   C4A 1678  16.621  15.468   8.541 -0.2764 -0.2391  0.2703
  129POPS   C1B 1679  16.296  15.839   9.636 -0.1126  0.0948 -0.1390
  129POPS   C2B 1680  16.330  15.569   9.254 -0.0854 -0.0807 -0.0016
  129POPS   C3B 1681  16.305  15.372   8.920  0.2582 -0.2493  0.3729
  129POPS   C4B 1682  16.080  15.189   8.598 -0.0681 -0.1339 -0.2014
  130POPS   CNO 1683  10.859   4.092  10.441  0.0020  0.1445  0.2478
  130POPS   PO4 1684  10.707   4.275  10.049 -0.0310  0.2443 -0.0090
  130POPS   GL1 1685  10.938   4.547   9.799  0.1833 -0.2451  0.1284
  130POPS   GL2 1686  11.226   4.426   9.592  0.3015 -0.0552  0.1205
  130POPS   C1A 1687  10.879   4.773   9.411 -0.1666 -0.2215  0.0181
  130POPS   D2A 1688  10.827   4.794   8.977  0.1947  0.1937  0.2975
  130POPS   C3A 1689  11.089   4.790   8.659 -0.1241 -0.0355 -0.0867
  130POPS   C4A 1690  11.053   4.719   8.174 -0.1866 -0.0739  0.0498
  130POPS   C1B 1691  11.286   4.542   9.161  0.1216 -0.1555  0.0907
  130POPS   C2B 1692  11.401   4.421   8.698 -0.0772 -0.2512  0.0508
  130POPS   C3B 1693  11.396   4.068   8.573 -0.0700  0.1026 -0.1081
  130POPS   C4B 1694  11.311   3.829   8.182 -0.0992  0.0396  0.1081
  131POPS   CNO 1695  13.287  16.536   9.622  0.0622 -0.3509 -0.1921
  131POPS   PO4 1696  13.465  16.242   9.498 -0.0389  0.0766 -0.0364
  131POPS   GL1 1697  13.737  16.224   9.081 -0.1853 -0.1839 -0.1290
  131POPS   GL2 1698  13.441  16.103   9.052 -0.0106 -0.2213  0.1326
  131POPS   C1A 1699  13.893  16.254   8.680 -0.0006  0.0086 -0.1032
  131POPS   D2A 1700  13.879  16.062   8.296 -0.0546  0.0075 -0.0158
  131POPS   C3A 1701  14.145  16.287   8.187  0.0255 -0.4018  0.0188
  131POPS   C4A 1702  14.474  16.347   7.965  0.4390  0.1953 -0.0889
  131POPS   C1B 1703  13.476  15.977   8.521  0.1134  0.0625 -0.2997
  131POPS   C2B 1704  13.349  15.877   8.119  0.3620  0.2686  0.3185
  131POPS   C3B 1705  13.281  15.809   7.657 -0.0794  0.2377  0.4074
  131POPS   C4B 1706  13.116  16.049   7.230 -0.1236  0.1275 -0.2439
  132POPS   CNO 1707   8.453   1.188   9.493 -0.0028 -0.1002  0.0876
  132POPS   PO4 1708   8.132   0.867   9.448  0.3071 -0.1373 -0.3409
  132POPS   GL1 1709   7.935   1.135   9.158 -0.2526  0.0225  0.0402
  132POPS   GL2 1710   8.206   1.275   9.069  0.3822  0.0005 -0.0367
  132POPS   C1A 1711   7.510   1.192   8.788 -0.0335  0.1986  0.0504
  132POPS   D2A 1712   7.480   1.089   8.401  0.0475  0.1958 -0.0399
  132POPS   C3A 1713   7.506   1.318   8.147  0.2860 -0.0196 -0.1067
  132POPS   C4A 1714   7.419   1.302   7.700 -0.1218  0.3911 -0.1535
  132POPS   C1B 1715   8.025   1.255   8.674 -0.0997  0.1770 -0.0313
  132POPS   C2B 1716   8.075   1.385   8.227 -0.2238  0.0137  0.0366
  132POPS   C3B 1717   7.899   1.387   7.790  0.0683  0.3354 -0.1433
  132POPS   C4B 1718   7.890   1.172   7.426  0.4525 -0.0022  0.1039
  133POPS   CNO 1719   1.158  13.802  10.819  0.2448 -0.0481 -0.0166
  133POPS   PO4 1720   1.113  13.836  10.349  0.2506 -0.0686 -0.1363
  133POPS   GL1 1721   1.168  13.864   9.939  0.0032  0.0902 -0.3013
  133POPS   GL2 1722   1.487  13.883   9.769  0.3075 -0.0957 -0.0597
  133POPS   C1A 1723   1.099  13.678   9.474  0.1842 -0.1900  0.1694
  133POPS   D2A 1724   1.119  13.668   9.073  0.0069  0.1384 -0.2679
  133POPS   C3A 1725   1.261  13.860   8.649 -0.0267 -0.1752  0.1373
  133POPS   C4A 1726   1.579  14.014   8.385  0.1733 -0.5838  0.1828
  133POPS   C1B 1727   1.526  13.896   9.358 -0.1661 -0.1917 -0.2530
  133POPS   C2B 1728   1.633  13.779   8.993 -0.1302  0.3775 -0.2274
  133POPS   C3B 1729   1.702  13.612   8.598  0.1209 -0.0912  0.3141
  133POPS   C4B 1730   1.758  13.294   8.469  0.2168 -0.0722 -0.4953
  134POPS   CNO 1731   4.989   7.443  10.823  0.0307  0.0085  0.1548
  134POPS   PO4 1732   4.871   7.525  10.428 -0.1427 -0.0018 -0.1634
  134POPS   GL1 1733   5.038   7.441  10.093  0.1744 -0.2490  0.2021
  134POPS   GL2 1734   5.146   7.185   9.948 -0.2668 -0.0841 -0.1198
  134POPS   C1A 1735   4.887   7.772   9.770  0.0934  0.0969  0.3530
  134POPS   D2A 1736   4.844   7.776   9.297 -0.5970 -0.1737  0.2635
  134POPS   C3A 1737   4.784   7.604   8.951 -0.3487  0.1983 -0.0160
  134POPS   C4A 1738   5.078   7.420   8.681 -0.0221  0.1892  0.0058
  134POPS   C1B 1739   5.254   7.339   9.555  0.0021  0.1612  0.1836
  134POPS   C2B 1740   5.268   7.396   9.094  0.0978 -0.3665  0.0140
  134POPS   C3B 1741   5.542   7.651   8.887  0.1504 -0.0152  0.3554
  134POPS   C4B 1742   5.710   7.952   8.635  0.1369 -0.1322  0.0759
  135POPS   CNO 1743  11.394  16.851   9.966  0.1759  0.2057  0.2733
  135POPS   PO4 1744  11.203  16.737   9.632  0.0852 -0.0990  0.0771
  135POPS   GL1 1745  11.235  16.611   9.304  0.4018  0.0441  0.4336
  135POPS   GL2 1746  11.445  16.548   9.143 -0.1386 -0.2135 -0.0996
  135POPS   C1A 1747  10.975  16.534   8.965  0.0535  0.1769  0.1334
  135POPS   D2A 1748  10.813  16.688   8.599 -0.0170  0.0889 -0.2221
  135POPS   C3A 1749  10.939  16.779   8.171 -0.0683  0.5194  0.1637
  135POPS   C4A 1750  10.954  16.870   7.731 -0.2881  0.0583  0.0303
  135POPS   C1B 1751  11.420  16.443   8.737  0.1218  0.1733  0.1093
  135POPS   C2B 1752  11.174  16.322   8.311  0.1122  0.0196  0.1610
  135POPS   C3B 1753  10.963  16.178   8.007 -0.0187  0.4860 -0.2372
  135POPS   C4B 1754  10.622  15.949   7.971 -0.1612 -0.2178  0.0361
  136POPS   CNO 1755   7.905  14.166  10.245  0.1605 -0.1235 -0.1778
  136POPS   PO4 1756   7.484  14.041  10.392 -0.0173 -0.0461 -0.0496
  136POPS   GL1 1757   7.119  13.803  10.168 -0.3056 -0.0860 -0.0096
  136POPS   GL2 1758   7.011  13.554  10.190 -0.2068  0.5085 -0.0948
  136POPS   C1A 1759   6.990  13.774   9.748  0.1662 -0.0132  0.0910
  136POPS   D2A 1760   6.975  13.716   9.318  0.2288 -0.0752  0.1370
  136POPS   C3A 1761   7.009  13.482   8.950 -0.2206 -0.2898  0.1591
  136POPS   C4A 1762   6.936  13.352   8.591  0.0626 -0.1046  0.2162
  136POPS   C1B 1763   6.987  13.307   9.798  0.2619  0.0268 -0.0424
  136POPS   C2B 1764   6.817  13.254   9.350 -0.0413  0.1646  0.1059
  136POPS   C3B 1765   6.786  13.011   8.989 -0.0911 -0.2072 -0.0455
  136POPS   C4B 1766   7.048  12.809   8.780  0.1358 -0.0382  0.1949
  137POPS   CNO 1767   5.208   8.321  10.965  0.2065  0.0625  0.0747
  137POPS   PO4 1768   5.110   7.976  10.628  0.0570 -0.0962 -0.0176
  137POPS   GL1 1769   5.125   7.932  10.239  0.0135  0.0457  0.1941
  137POPS   GL2 1770   4.970   8.187  10.050 -0.1846  0.3351  0.0065
  137POPS   C1A 1771   5.359   7.914   9.827 -0.0096 -0.2645 -0.1321
  137POPS   D2A 1772   5.311   7.865   9.400 -0.2222 -0.0301  0.1182
  137POPS   C3A 1773   5.384   8.144   9.106  0.0946 -0.1384 -0.3006
  137POPS   C4A 1774   5.239   8.219   8.740  0.2530  0.1397  0.1004
  137POPS   C1B 1775   4.995   8.242   9.565  0.0232  0.0108  0.0868
  137POPS   C2B 1776   4.861   8.303   9.113 -0.0747  0.0014  0.2193
  137POPS   C3B 1777   4.743   8.141   8.732 -0.1943  0.2733  0.2398
  137POPS   C4B 1778   4.679   7.686   8.464 -0.1921 -0.3899  0.0075
  138YOPS   CNO 1779   6.701  14.542  10.528 -0.3649  0.2397 -0.0675
  138YOPS   PO4 1780   6.456  14.245  10.222  0.0339 -0.5225  0.1059
  138YOPS   GL1 1781   6.758  14.223   9.775  0.2417 -0.0288 -0.0430
  138YOPS   GL2 1782   6.681  14.475   9.679 -0.1716 -0.1015  0.3029
  138YOPS   C1A 1783   6.805  14.164   9.243  0.0051  0.0792  0.0492
  138YOPS   D2A 1784   6.744  14.407   8.849  0.2172 -0.1689 -0.0819
  138YOPS   C3A 1785   7.032  14.470   8.485 -0.0952  0.3215 -0.0915
  138YOPS   C4A 1786   6.808  14.732   8.096 -0.0062  0.0367  0.3626
  138YOPS   C1B 1787   6.418  14.601   9.269  0.0944  0.0175  0.0050
  138YOPS   C2B 1788   6.261  14.574   8.883 -0.0591 -0.0413 -0.2382
  138YOPS   D3B 1789   6.383  14.236   8.538 -0.1762  0.0987 -0.1731
  138YOPS   C4B 1790   6.195  13.862   8.442  0.0145  0.0734 -0.2325
  139YOPS   CNO 1791  11.968  13.863  10.912  0.1952 -0.1440  0.3404
  139YOPS   PO4 1792  11.953  13.746  10.461 -0.2874 -0.2562  0.2923
  139YOPS   GL1 1793  11.944  13.692   9.977  0.1336  0.4271 -0.0909
  139YOPS   GL2 1794  11.899  14.005   9.760 -0.2926  0.1954  0.1671
  139YOPS   C1A 1795  12.090  13.470   9.617 -0.0897 -0.2596 -0.5092
  139YOPS   D2A 1796  12.427  13.616   9.359  0.1031 -0.2493 -0.0116
  139YOPS   C3A 1797  12.757  13.346   9.254  0.1047  0.1796 -0.0882
  139YOPS   C4A 1798  12.937  13.431   8.854 -0.1650  0.0109 -0.1764
  139YOPS   C1B 1799  12.050  14.203   9.364  0.0425  0.1245  0.2991
  139YOPS   C2B 1800  12.224  13.943   9.007 -0.3032  0.0862  0.0237
  139YOPS   D3B 1801  11.964  13.878   8.679  0.1413 -0.0962  0.0893
  139YOPS   C4B 1802  11.761  13.483   8.640  0.0897  0.2173 -0.2432
  140YOPS   CNO 1803  12.108  12.569  10.894 -0.1642  0.0060 -0.1483
  140YOPS   PO4 1804  12.301  12.270  10.625  0.0950  0.1596  0.2135
  140YOPS   GL1 1805  12.209  12.060  10.305 -0.0830  0.0718  0.2292
  140YOPS   GL2 1806  12.462  12.154  10.170  0.1677 -0.0445  0.3811
  140YOPS   C1A 1807  11.902  11.972   9.861 -0.0130  0.2010 -0.0639
  140YOPS   D2A 1808  11.548  12.092   9.728  0.1590 -0.0332 -0.2460
  140YOPS   C3A 1809  11.436  11.904   9.351 -0.0598 -0.1356  0.0150
  140YOPS   C4A 1810  11.505  11.977   8.909  0.1956  0.0266  0.0633
  140YOPS   C1B 1811  12.408  11.944   9.767 -0.1856 -0.0339 -0.1949
  140YOPS   C2B 1812  12.348  11.829   9.387  0.0895  0.0138  0.1902
  140YOPS   D3B 1813  12.410  11.833   8.941 -0.3817 -0.1779  0.1792
  140YOPS   C4B 1814  12.025  12.049   8.846 -0.1783  0.0480 -0.2451
  141YOPS   CNO 1815  14.644  15.719  10.179 -0.0538  0.0781  0.0786
  141YOPS   PO4 1816  14.737  16.049   9.916  0.1082 -0.0588 -0.0629
  141YOPS   GL1 1817  14.752  16.205   9.530  0.0180 -0.0470 -0.0786
  141YOPS   GL2 1818  14.430  16.049   9.382 -0.4266 -0.3481  0.2716
  141YOPS   C1A 1819  14.762  16.192   8.994 -0.1283  0.2929 -0.0589
  141YOPS   D2A 1820  14.768  16.239   8.678 -0.3680 -0.0487  0.2173
  141YOPS   C3A 1821  14.717  16.117   8.279  0.1116 -0.0433 -0.0934
  141YOPS   C4A 1822  15.050  15.933   7.893  0.2416  0.1191  0.0672
  141YOPS   C1B 1823  14.324  15.930   8.985  0.5598  0.1233 -0.0248
  141YOPS   C2B 1824  14.341  15.884   8.511  0.1380  0.1411 -0.3211
  141YOPS   D3B 1825  14.266  15.913   7.942  0.1364  0.0853  0.0218
  141YOPS   C4B 1826  14.166  15.589   7.695 -0.0753 -0.1580  0.1519
  142YOPS   CNO 1827   8.204  15.261  10.539  0.3519 -0.0967  0.1443
  142YOPS   PO4 1828   7.990  15.125  10.150 -0.0580  0.1193  0.1217
  142YOPS   GL1 1829   8.101  14.985   9.707 -0.0413  0.1943  0.1258
  142YOPS   GL2 1830   8.131  15.080   9.491 -0.0429  0.1124  0.3199
  142YOPS   C1A 1831   8.217  14.605   9.613 -0.1481  0.0699 -0.1975
  142YOPS   D2A 1832   7.999  14.426   9.269 -0.0378 -0.1241  0.1305
  142YOPS   C3A 1833   7.776  14.301   8.944  0.0901 -0.1279  0.2038
  142YOPS   C4A 1834   8.020  14.284   8.518  0.2236 -0.1332  0.0376
  142YOPS   C1B 1835   8.126  14.955   9.076 -0.2541  0.0540 -0.0826
  142YOPS   C2B 1836   8.084  14.736   8.756  0.1705  0.3594  0.3652
  142YOPS   D3B 1837   8.156  14.702   8.355  0.1072  0.0386 -0.0253
  142YOPS   C4B 1838   7.918  14.655   8.066 -0.0869  0.0152 -0.2018
  143YOPS   CNO 1839   6.179  10.511  10.741 -0.3923  0.2627 -0.2700
  143YOPS   PO4 1840   5.775  10.301  10.526  0.2127 -0.2796  0.2317
  143YOPS   GL1 1841   5.584  10.502  10.167 -0.0923 -0.1021 -0.0861
  143YOPS   GL2 1842   5.317  10.487  10.285  0.0958  0.2537 -0.1965
  143YOPS   C1A 1843   5.566  10.451   9.784  0.0126 -0.3213  0.2988
  143YOPS   D2A 1844   5.620  10.446   9.336  0.1258 -0.1545 -0.0755
  143YOPS   C3A 1845   5.576  10.632   8.956  0.1391 -0.3036  0.2156
  143YOPS   C4A 1846   5.669  11.022   8.608 -0.1612  0.0590  0.2152
  143YOPS   C1B 1847   5.143  10.320   9.981 -0.0080 -0.3067  0.2681
  143YOPS   C2B 1848   5.165  10.270   9.597  0.1859  0.1853 -0.3958
  143YOPS   D3B 1849   5.126  10.491   9.174  0.0034  0.0461  0.0875
  143YOPS   C4B 1850   5.256  10.279   8.837 -0.0626 -0.0140 -0.0793
  144YOPS   CNO 1851   9.359  11.712  10.764 -0.3087  0.2321 -0.1581
  144YOPS   PO4 1852   9.695  11.353  10.905 -0.0865  0.0203  0.2604
  144YOPS   GL1 1853   9.576  11.302  10.514  0.0177  0.1129  0.0066
  144YOPS   GL2 1854   9.750  11.097  10.393  0.0806  0.1941 -0.2660
  144YOPS   C1A 1855   9.293  10.927  10.319 -0.1272  0.0252  0.1020
  144YOPS   D2A 1856   9.040  10.531  10.084 -0.2737  0.0428  0.1162
  144YOPS   C3A 1857   8.976  10.293   9.797 -0.0337  0.2010 -0.0003
  144YOPS   C4A 1858   8.951  10.349   9.414 -0.1692 -0.1399 -0.0431
  144YOPS   C1B 1859   9.687  10.829   9.940  0.2408  0.0404 -0.2047
  144YOPS   C2B 1860   9.912  10.800   9.589 -0.0038  0.0251  0.2118
  144YOPS   D3B 1861   9.927  10.796   9.067 -0.0369  0.2036 -0.1861
  144YOPS   C4B 1862  10.146  10.684   8.855 -0.0782  0.0096 -0.0240
  145YOPS   CNO 1863   3.289   9.961  10.801 -0.1911 -0.1145 -0.1686
  145YOPS   PO4 1864   3.307   9.858  10.472  0.0574 -0.0710  0.0045
  145YOPS   GL1 1865   3.361   9.572  10.171  0.0814 -0.2766 -0.3571
  145YOPS   GL2 1866   3.013   9.513  10.012  0.1548  0.0904 -0.0151
  145YOPS   C1A 1867   3.408   9.426   9.761 -0.1173 -0.1450 -0.4518
  145YOPS   D2A 1868   3.372   9.455   9.265  0.3049  0.0371  0.3581
  145YOPS   C3A 1869   2.976   9.438   9.029 -0.1304  0.0981 -0.1267
  145YOPS   C4A 1870   2.931   9.365   8.616  0.1649  0.1589  0.1620
  145YOPS   C1B 1871   2.958   9.625   9.608  0.4161  0.4287  0.1745
  145YOPS   C2B 1872   2.952   9.846   9.219  0.0885 -0.2101 -0.2496
  145YOPS   D3B 1873   3.022  10.052   8.848 -0.1432  0.0954 -0.2268
  145YOPS   C4B 1874   2.852  10.173   8.442  0.0222  0.0016 -0.1549
  146YOPS   CNO 1875  17.758  17.897  10.377  0.1311  0.0278 -0.2678
  146YOPS   PO4 1876  17.957  17.530  10.445 -0.1811 -0.1484  0.0714
  146YOPS   GL1 1877  18.153  17.762  10.096  0.0760  0.3303  0.2161
  146YOPS   GL2 1878  17.918  17.733   9.873  0.0557 -0.0108 -0.3504
  146YOPS   C1A 1879  18.403  17.714   9.750 -0.0542 -0.1626 -0.0742
  146YOPS   D2A 1880  18.245  17.591   9.376 -0.0731 -0.1472 -0.1683
  146YOPS   C3A 1881  18.150  17.252   9.149  0.1578  0.0544 -0.2106
  146YOPS   C4A 1882  18.100  17.226   8.612 -0.0175 -0.0840 -0.0629
  146YOPS   C1B 1883  17.954  17.918   9.625  0.1995 -0.0707 -0.1718
  146YOPS   C2B 1884  18.026  17.991   9.135 -0.4117 -0.0085 -0.1056
  146YOPS   D3B 1885  18.346  18.135   8.856  0.2712  0.1556 -0.1058
  146YOPS   C4B 1886  18.421  18.271   8.448  0.1068 -0.0828 -0.0235
  147YOPS   CNO 1887   5.828  15.087  10.557  0.2333 -0.0458  0.1837
  147YOPS   PO4 1888   5.824  14.893  10.102  0.1189 -0.0068 -0.2560
  147YOPS   GL1 1889   5.708  14.642   9.838 -0.1690  0.1525  0.4440
  147YOPS   GL2 1890   5.444  14.378   9.994  0.0495  0.0625  0.1072
  147YOPS   C1A 1891   5.689  14.416   9.512  0.2119  0.2514 -0.0127
  147YOPS   D2A 1892   5.666  14.100   9.303 -0.0602 -0.1532  0.3522
  147YOPS   C3A 1893   5.855  14.197   8.932  0.2721 -0.0976 -0.2825
  147YOPS   C4A 1894   5.640  14.429   8.748  0.1482  0.3691 -0.1667
  147YOPS   C1B 1895   5.277  14.170   9.662 -0.0354  0.0345 -0.1698
  147YOPS   C2B 1896   5.228  13.867   9.404  0.0612 -0.1162 -0.1481
  147YOPS   D3B 1897   5.435  13.625   9.136 -0.2854 -0.1411 -0.2470
  147YOPS   C4B 1898   5.501  13.861   8.822 -0.0343 -0.1963  0.1724
  148YOPS   CNO 1899  17.804  12.145  10.335  0.2016 -0.1690 -0.1871
  148YOPS   PO4 1900  17.569  12.418  10.366 -0.0578  0.0701 -0.2192
  148YOPS   GL1 1901  17.854  12.552  10.004  0.3196 -0.1753  0.0696
  148YOPS   GL2 1902  18.103  12.454  10.022  0.1243  0.1410 -0.0659
  148YOPS   C1A 1903  17.991  12.358   9.555  0.1433  0.0278 -0.0775
  148YOPS   D2A 1904  18.113  12.363   9.165  0.0508  0.0875  0.1471
  148YOPS   C3A 1905  18.292  12.173   8.875 -0.2616  0.2413 -0.2535
  148YOPS   C4A 1906  18.123  11.977   8.518  0.3060  0.0603 -0.0237
  148YOPS   C1B 1907  18.481  12.335   9.777  0.0803  0.1180 -0.0713
  148YOPS   C2B 1908  18.615  12.163   9.354 -0.4068 -0.4312 -0.0500
  148YOPS   D3B 1909  18.817  12.129   8.864  0.1038  0.1300 -0.3780
  148YOPS   C4B 1910  18.599  11.888   8.582  0.1540  0.1748  0.0055
  149YOPS   CNO 1911   2.400   6.959  11.191 -0.1862  0.2193 -0.1676
  149YOPS   PO4 1912   2.349   7.366  10.929  0.2686 -0.2231  0.0295
  149YOPS   GL1 1913   2.346   7.272  10.554 -0.1860 -0.2201  0.1215
  149YOPS   GL2 1914   2.369   7.420  10.246 -0.2891 -0.1395  0.3233
  149YOPS   C1A 1915   2.416   6.975  10.177  0.4255  0.1416  0.1274
  149YOPS   D2A 1916   2.600   6.981   9.845 -0.0268  0.1858 -0.2683
  149YOPS   C3A 1917   2.712   7.067   9.535 -0.2777 -0.3056  0.1714
  149YOPS   C4A 1918   2.735   7.023   9.088  0.1977 -0.2482  0.1297
  149YOPS   C1B 1919   2.400   7.434   9.799 -0.0600 -0.0257  0.1191
  149YOPS   C2B 1920   2.275   7.280   9.485 -0.2940  0.2694 -0.2938
  149YOPS   D3B 1921   2.336   7.315   8.987 -0.0086 -0.1802 -0.1663
  149YOPS   C4B 1922   2.265   6.987   8.693 -0.1435  0.1856  0.0892
  150YOPS   CNO 1923   2.969  15.898   9.742 -0.1558  0.0599 -0.1223
  150YOPS   PO4 1924   2.933  16.360   9.846  0.0436 -0.1456 -0.0674
  150YOPS   GL1 1925   2.699  16.449   9.586  0.0523  0.0728  0.1278
  150YOPS   GL2 1926   2.516  16.192   9.623  0.0683 -0.3740  0.1614
  150YOPS   C1A 1927   2.617  16.276   9.100 -0.0878  0.1770 -0.0628
  150YOPS   D2A 1928   2.902  16.179   8.835 -0.1936 -0.0842 -0.0134
  150YOPS   C3A 1929   3.102  16.086   8.326 -0.1001 -0.1636 -0.2602
  150YOPS   C4A 1930   2.955  15.703   8.093  0.2142 -0.0592  0.2529
  150YOPS   C1B 1931   2.630  15.756   9.396 -0.0812  0.1497 -0.1294
  150YOPS   C2B 1932   2.993  15.707   9.084 -0.0330  0.0821 -0.0634
  150YOPS   D3B 1933   3.107  15.718   8.719  0.3300 -0.1050  0.0566
  150YOPS   C4B 1934   3.179  15.387   8.345 -0.0616 -0.0685 -0.1087
  151YOPS   CNO 1935  15.558  13.745  10.283 -0.0233 -0.1012  0.0388
  151YOPS   PO4 1936  15.660  13.405  10.114 -0.0047 -0.2182  0.0164
  151YOPS   GL1 1937  15.436  13.190   9.820  0.2265 -0.0553 -0.0521
  151YOPS   GL2 1938  15.071  13.226   9.851  0.0086 -0.1291  0.0622
  151YOPS   C1A 1939  15.316  13.109   9.380  0.0262  0.0864 -0.0897
  151YOPS   D2A 1940  15.316  13.173   8.950  0.2585  0.2434 -0.1318
  151YOPS   C3A 1941  15.108  13.343   8.595  0.2746 -0.1251  0.0675
  151YOPS   C4A 1942  15.343  13.457   8.279  0.0382  0.0641 -0.2393
  151YOPS   C1B 1943  14.903  13.414   9.519  0.0327  0.0015 -0.3866
  151YOPS   C2B 1944  14.831  13.436   9.130  0.0799 -0.2434 -0.4701
  151YOPS   D3B 1945  14.761  13.719   8.680  0.0699 -0.0135 -0.1927
  151YOPS   C4B 1946  14.744  14.119   8.532 -0.1736 -0.4224  0.0166
  152YOPS   CNO 1947  17.365   8.924  10.902  0.0246 -0.0737 -0.1217
  152YOPS   PO4 1948  17.062   8.817  10.634 -0.2220 -0.1844 -0.2571
  152YOPS   GL1 1949  17.075   8.766  10.281 -0.0489  0.1334 -0.2082
  152YOPS   GL2 1950  17.343   8.634  10.146 -0.0049 -0.2388  0.5432
  152YOPS   C1A 1951  16.774   8.619   9.936 -0.2286 -0.0701 -0.1060
  152YOPS   D2A 1952  16.503   8.851   9.594  0.0381  0.0064 -0.1923
  152YOPS   C3A 1953  16.386   8.656   9.150  0.0423 -0.1461 -0.0885
  152YOPS   C4A 1954  16.226   8.726   8.771  0.1545  0.0493 -0.1097
  152YOPS   C1B 1955  17.530   8.499   9.844  0.0364  0.0164 -0.1299
  152YOPS   C2B 1956  17.474   8.448   9.388 -0.1229  0.0668 -0.0421
  152YOPS   D3B 1957  17.248   8.686   9.157 -0.0820 -0.0137  0.1078
  152YOPS   C4B 1958  17.290   8.807   8.745 -0.1060  0.3518 -0.0349
  153YOPS   CNO 1959   0.670   1.021  10.519  0.2168 -0.0869  0.0502
  153YOPS   PO4 1960   0.614   0.660  10.166  0.0160  0.0329  0.2576
  153YOPS   GL1 1961   0.945   0.869  10.057  0.2300 -0.1110  0.1321
  153YOPS   GL2 1962   0.946   1.180  10.109 -0.2083  0.0957  0.1091
  153YOPS   C1A 1963   0.946   0.747   9.614  0.0819  0.4156  0.0997
  153YOPS   D2A 1964   0.848   0.557   9.138  0.3741  0.1067 -0.4361
  153YOPS   C3A 1965   0.585   0.566   8.777  0.1181  0.0589  0.1890
  153YOPS   C4A 1966   0.215   0.598   8.910  0.3469 -0.1541 -0.2250
  153YOPS   C1B 1967   0.776   1.202   9.691  0.0158  0.1426 -0.2000
  153YOPS   C2B 1968   0.987   1.181   9.321 -0.0717  0.0555 -0.1284
  153YOPS   D3B 1969   0.942   0.995   8.876  0.0856 -0.0867  0.0492
  153YOPS   C4B 1970   0.999   1.388   8.637  0.2067 -0.0941  0.0761
  154YOPS   CNO 1971   9.171   2.211  10.179 -0.1725 -0.1846 -0.3911
  154YOPS   PO4 1972   9.341   2.270   9.743  0.2985 -0.1462 -0.2142
  154YOPS   GL1 1973   9.480   2.303   9.342 -0.1766  0.1226 -0.0487
  154YOPS   GL2 1974   9.752   2.515   9.334  0.0625 -0.0481  0.1525
  154YOPS   C1A 1975   9.438   2.100   8.889  0.2899 -0.2854  0.1640
  154YOPS   D2A 1976   9.248   2.108   8.508 -0.2291  0.2398  0.0256
  154YOPS   C3A 1977   9.407   1.890   8.079  0.1118 -0.0184  0.0461
  154YOPS   C4A 1978   9.814   2.056   7.770  0.2188  0.2785 -0.2574
  154YOPS   C1B 1979   9.641   2.613   8.899  0.0037 -0.1366 -0.0897
  154YOPS   C2B 1980   9.643   2.419   8.506  0.0616  0.3510 -0.0082
  154YOPS   D3B 1981   9.559   2.340   8.166  0.1000  0.1090 -0.0587
  154YOPS   C4B 1982   9.058   2.304   8.028  0.1080  0.0834 -0.0671
  155YOPS   CNO 1983  17.238   7.056  10.189  0.3974  0.2594 -0.2996
  155YOPS   PO4 1984  17.580   6.855  10.398  0.1029  0.1542 -0.4878
  155YOPS   GL1 1985  17.569   6.593   9.982 -0.1956  0.0531 -0.3173
  155YOPS   GL2 1986  17.334   6.699   9.839 -0.2082  0.0205  0.0622
  155YOPS   C1A 1987  17.778   6.421   9.627  0.1033  0.0449  0.0165
  155YOPS   D2A 1988  17.904   6.329   9.259 -0.2615 -0.0403  0.1893
  155YOPS   C3A 1989  17.696   6.297   8.860 -0.0886 -0.1552  0.2095
  155YOPS   C4A 1990  17.924   6.425   8.433  0.0663  0.1069  0.0888
  155YOPS   C1B 1991  17.260   7.019   9.499 -0.2062  0.1730  0.2881
  155YOPS   C2B 1992  17.585   7.368   9.307  0.1700 -0.3262  0.0476
  155YOPS   D3B 1993  17.635   7.574   8.927  0.1170 -0.0096 -0.4714
  155YOPS   C4B 1994  17.748   7.993   8.786  0.3568  0.1651  0.0659
  156YOPS   CNO 1995  10.711   0.132   9.654  0.0427  0.0337 -0.5215
  156YOPS   PO4 1996  10.618  -0.310   9.640  0.0869  0.0031 -0.1827
  156YOPS   GL1 1997  10.988  -0.147   9.370  0.1537  0.0541  0.0454
  156YOPS   GL2 1998  11.122  -0.342   9.482  0.0946  0.3237  0.1550
  156YOPS   C1A 1999  11.257   0.069   9.190 -0.4185 -0.1264  0.0358
  156YOPS   D2A 2000  11.145   0.518   9.078 -0.0825 -0.0317 -0.2253
  156YOPS   C3A 2001  10.837   0.766   9.056 -0.3196 -0.1935  0.0173
  156YOPS   C4A 2002  10.560   0.579   8.756  0.0289 -0.2266 -0.0340
  156YOPS   C1B 2003  11.481  -0.346   9.179 -0.3506  0.5070  0.2003
  156YOPS   C2B 2004  11.327  -0.252   8.711 -0.0685  0.1802  0.0504
  156YOPS   D3B 2005  10.987   0.137   8.726  0.1325  0.0495  0.0343
  156YOPS   C4B 2006  11.094   0.595   8.536  0.2457 -0.1009  0.1040
  157YOPS   CNO 2007  11.996   7.478  10.598  0.2401 -0.2451 -0.1526
  157YOPS   PO4 2008  12.031   7.935  10.610  0.0446 -0.1103 -0.3465
  157YOPS   GL1 2009  11.970   7.947  10.190  0.1647  0.0775  0.1153
  157YOPS   GL2 2010  12.185   7.634  10.096 -0.0291  0.1917 -0.1622
  157YOPS   C1A 2011  12.217   7.972   9.772  0.2065  0.0236 -0.2227
  157YOPS   D2A 2012  12.318   7.925   9.369 -0.1857  0.0770 -0.0864
  157YOPS   C3A 2013  12.187   7.855   8.954  0.1411 -0.0386 -0.0913
  157YOPS   C4A 2014  12.370   7.995   8.592 -0.2290 -0.2358  0.1413
  157YOPS   C1B 2015  12.017   7.292   9.977 -0.1547  0.2833  0.0138
  157YOPS   C2B 2016  11.977   7.029   9.606  0.5191 -0.1080 -0.4160
  157YOPS   D3B 2017  12.213   7.049   9.235 -0.1216 -0.1681 -0.0720
  157YOPS   C4B 2018  12.049   6.919   8.711 -0.4148 -0.0250  0.2684
  158YOPS   CNO 2019  12.774  14.593  10.005 -0.1526 -0.0570 -0.1879
  158YOPS   PO4 2020  13.113  14.261  10.208  0.1144  0.0794  0.2423
  158YOPS   GL1 2021  12.933  14.124   9.748  0.1962 -0.0294  0.6440
  158YOPS   GL2 2022  13.326  13.958   9.716  0.2871 -0.1598  0.1242
  158YOPS   C1A 2023  12.935  13.892   9.390 -0.0793  0.1626 -0.0653
  158YOPS   D2A 2024  13.165  14.067   9.047  0.0182 -0.0787  0.2183
  158YOPS   C3A 2025  13.041  14.201   8.635 -0.1374  0.0634  0.0614
  158YOPS   C4A 2026  13.281  14.076   8.178  0.1119  0.0221 -0.2817
  158YOPS   C1B 2027  13.459  14.287   9.472 -0.3199  0.1277 -0.0189
  158YOPS   C2B 2028  13.580  14.303   9.079 -0.1635  0.0522 -0.1491
  158YOPS   D3B 2029  13.479  13.939   8.666 -0.0539 -0.0068  0.1233
  158YOPS   C4B 2030  13.148  13.709   8.498  0.3099 -0.3300 -0.0380
  159YOPS   CNO 2031  12.044   0.243   9.927 -0.0647  0.1158 -0.3091
  159YOPS   PO4 2032  12.395   0.515   9.825 -0.2938 -0.3049 -0.1476
  159YOPS   GL1 2033  12.552   0.507   9.522 -0.0172 -0.2074  0.0176
  159YOPS   GL2 2034  12.728   0.701   9.349  0.2146  0.0557  0.0168
  159YOPS   C1A 2035  12.530   0.369   9.077 -0.1238 -0.1854  0.0694
  159YOPS   D2A 2036  12.651   0.338   8.635  0.1699  0.1912 -0.0646
  159YOPS   C3A 2037  12.633   0.379   8.297 -0.0097 -0.0783  0.1428
  159YOPS   C4A 2038  12.471   0.704   8.100  0.1932 -0.0189 -0.2711
  159YOPS   C1B 2039  12.732   0.781   8.867 -0.1280  0.0330 -0.0039
  159YOPS   C2B 2040  12.767   0.842   8.440 -0.0761 -0.2762 -0.0919
  159YOPS   D3B 2041  12.799   1.138   8.190 -0.1600 -0.0239 -0.1845
  159YOPS   C4B 2042  12.764   0.978   7.752  0.1015 -0.2135  0.1931
  160YOPS   CNO 2043  17.749   8.234  10.418 -0.2455  0.2022 -0.1324
  160YOPS   PO4 2044  17.426   7.895  10.343  0.0804  0.0910  0.1583
  160YOPS   GL1 2045  17.601   7.967   9.990 -0.2841 -0.0811 -0.1933
  160YOPS   GL2 2046  17.777   7.708  10.010  0.1466  0.0540  0.1608
  160YOPS   C1A 2047  17.829   8.184   9.674  0.2372 -0.2281  0.2273
  160YOPS   D2A 2048  17.936   8.174   9.238  0.2211  0.0772  0.0031
  160YOPS   C3A 2049  18.195   8.224   8.843  0.0874  0.1768 -0.0041
  160YOPS   C4A 2050  18.612   8.416   8.797 -0.0104  0.0291 -0.1867
  160YOPS   C1B 2051  17.846   7.663   9.560 -0.2216  0.0549  0.2619
  160YOPS   C2B 2052  18.119   7.737   9.111  0.0640  0.2175 -0.0773
  160YOPS   D3B 2053  18.226   7.723   8.624 -0.0175 -0.2052 -0.1804
  160YOPS   C4B 2054  17.872   7.641   8.436  0.1180  0.1450  0.0574
  161YOPS   CNO 2055   3.118   3.567  10.881  0.1495 -0.1405  0.0212
  161YOPS   PO4 2056   2.859   3.573  10.614 -0.0767 -0.0552  0.0701
  161YOPS   GL1 2057   2.742   3.552  10.153  0.0463  0.2060  0.1285
  161YOPS   GL2 2058   3.088   3.688  10.015 -0.2072  0.1216 -0.4087
  161YOPS   C1A 2059   2.479   3.388   9.878 -0.0662  0.0734 -0.0513
  161YOPS   D2A 2060   2.469   3.502   9.454 -0.1614  0.2517  0.1857
  161YOPS   C3A 2061   2.568   3.366   9.130  0.1898 -0.0888  0.0654
  161YOPS   C4A 2062   2.302   3.348   8.830 -0.1412 -0.0566  0.1761
  161YOPS   C1B 2063   2.898   3.678   9.659  0.1517 -0.0081 -0.3490
  161YOPS   C2B 2064   3.023   3.640   9.250  0.0163  0.2042 -0.0744
  161YOPS   D3B 2065   3.179   3.847   8.885 -0.2128 -0.1913  0.3008
  161YOPS   C4B 2066   3.440   4.157   8.699 -0.1663 -0.1350 -0.0808
  162YOPS   CNO 2067   6.771   4.930  10.651 -0.0837 -0.0590  0.0888
  162YOPS   PO4 2068   6.836   4.697  10.346 -0.1411 -0.1015  0.0898
  162YOPS   GL1 2069   6.970   4.656   9.965 -0.1556 -0.1153  0.1788
  162YOPS   GL2 2070   7.032   4.938   9.757  0.0975 -0.0425 -0.5423
  162YOPS   C1A 2071   6.802   4.432   9.527 -0.0915 -0.1542 -0.1801
  162YOPS   D2A 2072   6.707   4.290   9.094 -0.0982  0.1816 -0.2107
  162YOPS   C3A 2073   6.823   4.271   8.641  0.0519 -0.0427  0.1177
  162YOPS   C4A 2074   6.784   3.952   8.272 -0.1185  0.1681  0.0695
  162YOPS   C1B 2075   6.804   4.940   9.316  0.0409  0.0880 -0.0999
  162YOPS   C2B 2076   6.478   5.125   9.062 -0.2491 -0.3817 -0.1477
  162YOPS   D3B 2077   6.426   5.511   8.801 -0.2807 -0.1905  0.1048
  162YOPS   C4B 2078   6.100   5.813   8.816 -0.1602  0.1084  0.0305
  163YOPS   CNO 2079   4.740   3.785  10.582  0.0696 -0.3173  0.2291
  163YOPS   PO4 2080   4.983   3.442  10.768  0.2123  0.0516  0.0895
  163YOPS   GL1 2081   5.060   3.498  10.332 -0.2227  0.3264  0.0105
  163YOPS   GL2 2082   5.000   3.197  10.207  0.0338 -0.2528 -0.2740
  163YOPS   C1A 2083   5.196   3.753   9.921  0.0420  0.2017  0.0051
  163YOPS   D2A 2084   5.135   3.831   9.547  0.2534 -0.2155 -0.0497
  163YOPS   C3A 2085   5.286   3.649   9.206  0.0321 -0.0952  0.0158
  163YOPS   C4A 2086   5.450   3.896   8.790  0.1389  0.0935  0.3274
  163YOPS   C1B 2087   4.933   2.936   9.868  0.0950 -0.2823  0.3090
  163YOPS   C2B 2088   4.716   2.940   9.486 -0.0980  0.0574 -0.0938
  163YOPS   D3B 2089   4.485   2.734   9.245  0.2245 -0.0122 -0.2204
  163YOPS   C4B 2090   4.320   2.313   9.240 -0.1737  0.0460  0.0876
  164YOPS   CNO 2091  15.420  15.614  10.482 -0.0152 -0.1740  0.0063
  164YOPS   PO4 2092  15.735  15.572  10.063 -0.1599 -0.0669  0.0459
  164YOPS   GL1 2093  15.526  15.640   9.653  0.1951  0.1025 -0.1057
  164YOPS   GL2 2094  15.294  15.900   9.536  0.3778 -0.0936  0.3927
  164YOPS   C1A 2095  15.466  15.582   9.145 -0.0016  0.0181 -0.2621
  164YOPS   D2A 2096  15.455  15.576   8.710  0.1253  0.0944  0.1437
  164YOPS   C3A 2097  15.579  15.156   8.550  0.2419  0.3551 -0.0354
  164YOPS   C4A 2098  15.828  15.065   8.166  0.0353 -0.2638  0.1078
  164YOPS   C1B 2099  15.331  16.052   9.189  0.2644  0.0064  0.1167
  164YOPS   C2B 2100  15.216  16.051   8.843 -0.3246  0.3564  0.1908
  164YOPS   D3B 2101  15.188  15.896   8.425  0.2259 -0.1249 -0.0622
  164YOPS   C4B 2102  15.434  15.682   8.230  0.0495  0.2547  0.0305
  165YOPS   CNO 2103  18.202  18.041  10.551  0.0984 -0.1288  0.0818
  165YOPS   PO4 2104  18.042  18.404  10.422  0.0459 -0.1383 -0.0474
  165YOPS   GL1 2105  18.143  18.261  10.010 -0.0424  0.0116  0.3091
  165YOPS   GL2 2106  18.428  18.192   9.832  0.1183  0.0628  0.3128
  165YOPS   C1A 2107  17.997  18.403   9.618 -0.0079 -0.2294  0.1637
  165YOPS   D2A 2108  18.058  18.479   9.143 -0.1749 -0.1188 -0.0831
  165YOPS   C3A 2109  17.959  18.447   8.715  0.0849  0.3860  0.1860
  165YOPS   C4A 2110  17.985  17.961   8.508  0.0517  0.2139 -0.1230
  165YOPS   C1B 2111  18.464  18.313   9.416  0.1523  0.0322 -0.2190
  165YOPS   C2B 2112  18.675  18.465   9.177  0.2659 -0.0733  0.4107
  165YOPS   D3B 2113  18.801  18.286   8.790 -0.1417  0.0603 -0.2158
  165YOPS   C4B 2114  19.203  18.500   8.664  0.1178  0.2040 -0.1459
  166YOPS   CNO 2115  15.716   2.979  10.323  0.0775  0.0545  0.0314
  166YOPS   PO4 2116  15.870   2.633  10.171  0.0659 -0.3437  0.4107
  166YOPS   GL1 2117  16.097   2.926   9.925  0.0203  0.1923  0.2739
  166YOPS   GL2 2118  16.152   3.215  10.011 -0.4098  0.1448 -0.0254
  166YOPS   C1A 2119  16.337   3.116   9.549  0.2280 -0.0347  0.1781
  166YOPS   D2A 2120  16.534   3.332   9.260  0.1475  0.3673 -0.1274
  166YOPS   C3A 2121  16.825   3.521   9.116  0.3469 -0.0680 -0.0610
  166YOPS   C4A 2122  16.834   3.511   8.761  0.1873  0.5917 -0.0058
  166YOPS   C1B 2123  16.622   3.204   9.931  0.1668 -0.2123  0.0417
  166YOPS   C2B 2124  17.019   3.314   9.619 -0.1084 -0.2463 -0.0290
  166YOPS   D3B 2125  17.283   3.090   9.500 -0.3982  0.3374  0.1548
  166YOPS   C4B 2126  17.309   3.047   9.096  0.1288 -0.0738 -0.1725
  167YOPS   CNO 2127  10.078   9.715  11.226  0.2050  0.2319 -0.0810
  167YOPS   PO4 2128  10.522   9.859  11.020  0.2452 -0.2370 -0.1154
  167YOPS   GL1 2129  10.372   9.986  10.705 -0.1934 -0.2217 -0.1041
  167YOPS   GL2 2130  10.073  10.053  10.416 -0.1112  0.0150 -0.0489
  167YOPS   C1A 2131  10.590   9.970  10.252  0.2722 -0.1357  0.0120
  167YOPS   D2A 2132  10.570  10.032   9.818 -0.2102  0.1147 -0.1386
  167YOPS   C3A 2133  10.444   9.979   9.372 -0.0630 -0.1145 -0.1866
  167YOPS   C4A 2134  10.734  10.215   9.023 -0.3407  0.0949  0.0964
  167YOPS   C1B 2135  10.118  10.176   9.990  0.2530  0.0047 -0.0012
  167YOPS   C2B 2136  10.215  10.406   9.620  0.2125 -0.0897  0.3952
  167YOPS   D3B 2137  10.207  10.353   9.218  0.0263  0.2032 -0.1073
  167YOPS   C4B 2138   9.891  10.272   8.921 -0.0725 -0.3582 -0.1347
  168POPE   NH3 2139   7.896  16.844   9.485  0.2857 -0.0023  0.0974
  168POPE   PO4 2140   7.937  16.330   9.458 -0.1086 -0.1821  0.0623
  168POPE   GL1 2141   8.090  16.370   9.033  0.1224  0.0081 -0.0519
  168POPE   GL2 2142   8.014  16.641   9.012  0.2284 -0.2284 -0.4197
  168POPE   C1A 2143   8.120  16.175   8.661 -0.3626  0.0787  0.2917
  168POPE   D2A 2144   8.313  15.837   8.388  0.1485 -0.1494 -0.0121
  168POPE   C3A 2145   8.023  15.725   8.064  0.1701  0.2766  0.1196
  168POPE   C4A 2146   8.223  15.600   7.613 -0.2715 -0.0261 -0.0770
  168POPE   C1B 2147   7.910  16.630   8.613 -0.2484  0.0889 -0.0153
  168POPE   C2B 2148   7.996  16.568   8.158  0.1083  0.0221 -0.4036
  168POPE   C3B 2149   8.112  16.258   7.900 -0.2406 -0.1347  0.3767
  168POPE   C4B 2150   8.459  15.949   7.906 -0.0770  0.0582  0.0241
  169POPE   NH3 2151   4.598   7.213  10.634  0.2563  0.1737 -0.0771
  169POPE   PO4 2152   4.172   7.333  10.373  0.0394 -0.1242  0.0689
  169POPE   GL1 2153   4.238   7.451   9.952  0.0152 -0.0184 -0.0225
  169POPE   GL2 2154   4.532   7.600  10.052  0.0355  0.2055 -0.0060
  169POPE   C1A 2155   4.163   7.286   9.576  0.0796  0.1401  0.1340
  169POPE   D2A 2156   4.107   7.075   9.210  0.2044  0.2251 -0.0582
  169POPE   C3A 2157   3.908   7.132   8.863  0.3470  0.4202  0.1744
  169POPE   C4A 2158   3.492   7.036   8.758 -0.0250  0.0018 -0.0496
  169POPE   C1B 2159   4.389   7.785   9.602 -0.0898  0.0407  0.0305
  169POPE   C2B 2160   4.372   7.537   9.238 -0.0351  0.0791 -0.1255
  169POPE   C3B 2161   4.377   7.405   8.786 -0.2702  0.0442  0.3477
  169POPE   C4B 2162   4.302   6.911   8.716 -0.1357  0.1527 -0.0278
  170POPE   NH3 2163  17.750   9.212  10.583  0.2356  0.1263 -0.2991
  170POPE   PO4 2164  17.342   9.180  10.449  0.0784  0.3671 -0.1509
  170POPE   GL1 2165  17.276   9.153  10.026 -0.0658  0.0036  0.2861
  170POPE   GL2 2166  17.077   9.249   9.778 -0.1296  0.0791 -0.0752
  170POPE   C1A 2167  17.213   8.803   9.676  0.1733 -0.1386 -0.2149
  170POPE   D2A 2168  16.848   8.825   9.309  0.2091  0.3267 -0.3582
  170POPE   C3A 2169  16.710   9.088   9.049 -0.0742  0.2735 -0.1179
  170POPE   C4A 2170  16.641   9.446   8.773 -0.2239 -0.0498 -0.1464
  170POPE   C1B 2171  16.723   9.270   9.614 -0.1124 -0.3742 -0.0588
  170POPE   C2B 2172  16.529   9.674   9.457  0.2884 -0.1011  0.3876
  170POPE   C3B 2173  16.322  10.084   9.354 -0.0019 -0.2104  0.0905
  170POPE   C4B 2174  16.432  10.523   9.218 -0.1118  0.2772 -0.0686
  171POPE   NH3 2175  17.908   2.435  10.390  0.1937 -0.0199  0.0937
  171POPE   PO4 2176  17.404   2.649  10.614 -0.1264  0.0218  0.0027
  171POPE   GL1 2177  17.352   2.499  10.207 -0.1772  0.2504 -0.1200
  171POPE   GL2 2178  17.082   2.344  10.093 -0.0647 -0.1304 -0.2031
  171POPE   C1A 2179  17.658   2.379   9.809 -0.0965 -0.0681 -0.2472
  171POPE   D2A 2180  17.930   2.108   9.546  0.1399  0.0748  0.0555
  171POPE   C3A 2181  18.080   1.731   9.720  0.0706 -0.2670 -0.0420
  171POPE   C4A 2182  18.327   1.490   9.784  0.3175  0.1478  0.0010
  171POPE   C1B 2183  16.950   2.245   9.638  0.1775 -0.2496 -0.1662
  171POPE   C2B 2184  16.940   2.053   9.189  0.0754 -0.0603  0.4609
  171POPE   C3B 2185  16.596   2.033   8.929 -0.0866 -0.1230  0.2181
  171POPE   C4B 2186  16.424   2.032   8.498  0.2549 -0.2955 -0.4164
  172POPE   NH3 2187  18.220  10.270  10.472  0.0633  0.0943  0.0561
  172POPE   PO4 2188  18.162  10.563  10.231 -0.1671 -0.0566  0.0165
  172POPE   GL1 2189  17.891  10.614   9.911  0.1343  0.1189 -0.1135
  172POPE   GL2 2190  17.922  10.957   9.859 -0.0462 -0.1853  0.1201
  172POPE   C1A 2191  17.848  10.554   9.536  0.2542 -0.2185 -0.2980
  172POPE   D2A 2192  17.837  10.259   9.188 -0.2474  0.0212 -0.1400
  172POPE   C3A 2193  18.013   9.907   9.114  0.0238 -0.0905 -0.1396
  172POPE   C4A 2194  17.876   9.643   8.783 -0.0285 -0.0770 -0.4465
  172POPE   C1B 2195  17.812  11.036   9.459  0.1884 -0.1005  0.2210
  172POPE   C2B 2196  17.392  11.065   9.148 -0.2865  0.1144  0.0724
  172POPE   C3B 2197  17.154  10.927   8.869 -0.0526  0.1476  0.2743
  172POPE   C4B 2198  17.233  10.643   8.502  0.0935  0.0498 -0.1218
  173POPE   NH3 2199   3.835   4.421  10.496 -0.3789 -0.0974 -0.0497
  173POPE   PO4 2200   3.468   4.579  10.406  0.2365 -0.0153  0.2098
  173POPE   GL1 2201   3.500   4.695   9.967  0.2565  0.2399  0.1320
  173POPE   GL2 2202   3.711   4.331   9.854 -0.0347  0.0144 -0.0400
  173POPE   C1A 2203   3.562   4.642   9.500  0.0035  0.0366 -0.1642
  173POPE   D2A 2204   3.615   4.539   9.126  0.2849 -0.2027 -0.1529
  173POPE   C3A 2205   3.641   4.661   8.624 -0.0650 -0.1493  0.1096
  173POPE   C4A 2206   3.836   5.026   8.372  0.1643  0.1176 -0.1063
  173POPE   C1B 2207   3.703   4.192   9.494  0.1374 -0.2063  0.1769
  173POPE   C2B 2208   3.805   4.012   9.002 -0.0192 -0.0445  0.2457
  173POPE   C3B 2209   3.635   3.695   8.839 -0.0133 -0.1666 -0.2480
  173POPE   C4B 2210   3.480   3.464   8.642  0.0937 -0.2306  0.0897
  174POPE   NH3 2211  10.733  16.723   9.632  0.0947 -0.0857  0.0795
  174POPE   PO4 2212  10.512  16.374   9.646  0.0647  0.0684 -0.0134
  174POPE   GL1 2213  10.510  16.497   9.236 -0.1453  0.1456  0.1089
  174POPE   GL2 2214  10.114  16.542   9.299 -0.1500 -0.1721 -0.0888
  174POPE   C1A 2215  10.446  16.437   8.763 -0.0690 -0.1237  0.1025
  174POPE   D2A 2216  10.559  16.408   8.279  0.2580  0.2078 -0.0105
  174POPE   C3A 2217  10.184  16.329   8.071 -0.3052  0.2893  0.0710
  174POPE   C4A 2218   9.757  16.287   7.870 -0.1350 -0.1839  0.2103
  174POPE   C1B 2219   9.952  16.550   8.898 -0.0191  0.1271 -0.4726
  174POPE   C2B 2220  10.025  16.557   8.429 -0.2734  0.0038 -0.1632
  174POPE   C3B 2221   9.840  16.737   8.077  0.0371  0.1474  0.0627
  174POPE   C4B 2222  10.112  16.736   7.730  0.0263  0.0155 -0.1232
  175POPE   NH3 2223   8.351  10.422  10.711 -0.0910 -0.0705 -0.0552
  175POPE   PO4 2224   8.714  10.023  10.689  0.0273 -0.1541  0.1834
  175POPE   GL1 2225   8.753   9.649  10.426  0.1761  0.0564 -0.0077
  175POPE   GL2 2226   8.508   9.563  10.334  0.3381 -0.1658  0.0744
  175POPE   C1A 2227   8.915   9.657   9.942  0.2793 -0.1533 -0.4631
  175POPE   D2A 2228   8.868   9.457   9.553 -0.1809  0.1459 -0.0762
  175POPE   C3A 2229   8.983   9.692   9.218 -0.1911  0.0297  0.2369
  175POPE   C4A 2230   9.003  10.032   8.976 -0.2588 -0.2722 -0.1037
  175POPE   C1B 2231   8.530   9.367   9.937 -0.0225  0.2147  0.0449
  175POPE   C2B 2232   8.418   9.222   9.598 -0.1090  0.0784 -0.0389
  175POPE   C3B 2233   8.205   9.413   9.245 -0.2260  0.0120 -0.0800
  175POPE   C4B 2234   7.957   9.630   8.975 -0.1401  0.0669  0.0410
  176POPE   NH3 2235   7.606   0.799   9.280  0.0842 -0.2573  0.2385
  176POPE   PO4 2236   7.533   0.459   9.489 -0.0173 -0.0709  0.0813
  176POPE   GL1 2237   7.615   0.339   9.073 -0.1768  0.0143  0.3239
  176POPE   GL2 2238   7.886   0.181   9.011  0.0737 -0.2785  0.0082
  176POPE   C1A 2239   7.710   0.238   8.577 -0.3795 -0.1398  0.1503
  176POPE   D2A 2240   7.824   0.456   8.146 -0.0049  0.0345 -0.4045
  176POPE   C3A 2241   7.644   0.333   7.701  0.0389  0.1648 -0.2828
  176POPE   C4A 2242   7.531   0.070   7.408 -0.3175  0.4541  0.0614
  176POPE   C1B 2243   7.672  -0.185   8.875  0.0968  0.3174  0.1644
  176POPE   C2B 2244   7.615  -0.298   8.502  0.0264 -0.0822  0.1385
  176POPE   C3B 2245   7.320  -0.462   8.195  0.0993 -0.0866  0.1447
  176POPE   C4B 2246   6.994  -0.164   7.884  0.3112  0.4809 -0.0605
  177POPE   NH3 2247   1.075  13.110  10.498 -0.0175  0.1710  0.0920
  177POPE   PO4 2248   0.831  12.713  10.414 -0.2308 -0.0139  0.1282
  177POPE   GL1 2249   0.744  12.631  10.020  0.0321 -0.2051  0.1101
  177POPE   GL2 2250   0.736  12.941   9.898  0.2605  0.1611 -0.0511
  177POPE   C1A 2251   0.759  12.547   9.583  0.3786  0.1780 -0.2183
  177POPE   D2A 2252   0.606  12.684   9.137  0.1841  0.1096  0.0270
  177POPE   C3A 2253   0.885  12.518   8.876 -0.1243 -0.2179  0.1067
  177POPE   C4A 2254   1.246  12.320   8.797  0.1477 -0.1260  0.3842
  177POPE   C1B 2255   0.467  13.014   9.560  0.1420  0.0546 -0.0127
  177POPE   C2B 2256   0.414  13.196   9.152 -0.1425  0.0401  0.0128
  177POPE   C3B 2257   0.335  13.253   8.713 -0.0955  0.0933 -0.0979
  177POPE   C4B 2258   0.507  13.162   8.366 -0.0754 -0.2107 -0.0615
  178POPE   NH3 2259   4.086   8.806  10.559 -0.2772 -0.1504  0.1500
  178POPE   PO4 2260   4.279   8.358  10.523  0.1453 -0.1118 -0.0065
  178POPE   GL1 2261   3.869   8.364  10.254 -0.1106 -0.0550  0.0514
  178POPE   GL2 2262   3.634   8.556  10.319 -0.1753 -0.0696  0.0688
  178POPE   C1A 2263   3.851   8.342   9.820 -0.1759 -0.2591 -0.2679
  178POPE   D2A 2264   4.024   8.320   9.397  0.3817  0.0897  0.8191
  178POPE   C3A 2265   4.358   8.032   9.183 -0.1075 -0.0151 -0.0965
  178POPE   C4A 2266   4.294   7.886   8.861 -0.1013  0.2358  0.2262
  178POPE   C1B 2267   3.244   8.530  10.074  0.1155  0.1511 -0.0080
  178POPE   C2B 2268   3.095   8.547   9.548 -0.1998  0.1538  0.3245
  178POPE   C3B 2269   3.249   8.467   9.107 -0.1212  0.0407  0.0701
  178POPE   C4B 2270   3.486   8.479   8.687 -0.1620 -0.2346 -0.0979
  179POPE   NH3 2271   1.947   9.881  10.499 -0.2235 -0.1456 -0.1661
  179POPE   PO4 2272   1.707   9.644  10.533 -0.0448  0.2232  0.0149
  179POPE   GL1 2273   1.985   9.360  10.452  0.0525  0.0321 -0.0125
  179POPE   GL2 2274   2.027   9.562  10.117 -0.0535  0.0064 -0.0267
  179POPE   C1A 2275   2.094   9.070  10.072  0.0382  0.1945  0.2227
  179POPE   D2A 2276   2.152   8.950   9.559  0.1472  0.3213 -0.1929
  179POPE   C3A 2277   1.944   8.559   9.412 -0.1135  0.2150  0.2077
  179POPE   C4A 2278   2.044   8.308   9.042 -0.1075  0.0762 -0.0606
  179POPE   C1B 2279   2.076   9.488   9.688  0.0360 -0.0895  0.0413
  179POPE   C2B 2280   2.096   9.313   9.253 -0.0915 -0.0823 -0.0158
  179POPE   C3B 2281   2.143   8.914   9.067 -0.1435  0.0820  0.0471
  179POPE   C4B 2282   2.276   8.715   8.679 -0.0508 -0.0469  0.2180
  180POPE   NH3 2283  17.283  16.769  10.486  0.0871 -0.0183 -0.1612
  180POPE   PO4 2284  17.609  16.572  10.554  0.1793 -0.2118 -0.3581
  180POPE   GL1 2285  17.774  16.505  10.186  0.0649 -0.1384  0.1475
  180POPE   GL2 2286  17.439  16.583  10.024  0.1398 -0.2237 -0.0013
  180POPE   C1A 2287  18.073  16.518   9.979 -0.0650  0.3992  0.1431
  180POPE   D2A 2288  18.277  16.379   9.724 -0.0535  0.0073 -0.0967
  180POPE   C3A 2289  18.357  15.961   9.614  0.0967 -0.0094  0.2892
  180POPE   C4A 2290  18.091  15.541   9.753 -0.0359  0.1771  0.2359
  180POPE   C1B 2291  17.462  16.499   9.498  0.0478 -0.0645  0.1005
  180POPE   C2B 2292  17.467  16.692   9.104 -0.0491  0.0941  0.1510
  180POPE   C3B 2293  17.751  16.690   8.815 -0.0584  0.0080 -0.1994
  180POPE   C4B 2294  18.139  16.589   8.772  0.1545 -0.0583  0.1518
  181POPE   NH3 2295  13.976  16.373   9.521 -0.1359  0.2408 -0.0081
  181POPE   PO4 2296  14.237  16.697   9.658  0.2727 -0.1848  0.2859
  181POPE   GL1 2297  14.505  16.584   9.343 -0.3440 -0.0189 -0.1309
  181POPE   GL2 2298  14.278  16.439   9.073 -0.0368 -0.0382 -0.1208
  181POPE   C1A 2299  14.758  16.764   8.920 -0.0556  0.0242  0.2578
  181POPE   D2A 2300  15.049  17.072   8.643 -0.1605 -0.1854  0.1152
  181POPE   C3A 2301  15.345  16.986   8.236  0.0434 -0.0276  0.0227
  181POPE   C4A 2302  15.778  17.142   8.277  0.2967  0.1446 -0.2004
  181POPE   C1B 2303  14.315  16.542   8.622  0.2610 -0.0632 -0.0251
  181POPE   C2B 2304  14.640  16.693   8.363  0.1799  0.2810 -0.1677
  181POPE   C3B 2305  14.848  16.963   8.114 -0.2423  0.2044 -0.1973
  181POPE   C4B 2306  15.091  16.988   7.722  0.0674 -0.1808  0.2400
  182POPE   NH3 2307   9.237  14.783   9.947 -0.2594 -0.0656  0.0064
  182POPE   PO4 2308   8.892  14.908  10.123  0.0470 -0.2067  0.3108
  182POPE   GL1 2309   8.789  14.782   9.729 -0.0174  0.3630 -0.1144
  182POPE   GL2 2310   8.792  14.475   9.793 -0.2251  0.4955  0.0072
  182POPE   C1A 2311   8.599  14.684   9.321  0.0558  0.0180 -0.1415
  182POPE   D2A 2312   8.553  14.840   8.856  0.3346  0.1226 -0.2501
  182POPE   C3A 2313   8.628  14.831   8.361  0.0071  0.0205 -0.0372
  182POPE   C4A 2314   8.755  14.971   7.940  0.2052 -0.2758  0.1533
  182POPE   C1B 2315   8.467  14.216   9.476  0.0663  0.0674  0.1384
  182POPE   C2B 2316   8.455  14.374   8.936 -0.0471  0.1878  0.1921
  182POPE   C3B 2317   8.493  14.316   8.483 -0.3015  0.0040 -0.2054
  182POPE   C4B 2318   8.757  14.396   8.120 -0.0571 -0.2747  0.1409
  183POPE   NH3 2319   3.013  17.348   9.946  0.0497 -0.3247  0.0602
  183POPE   PO4 2320   2.610  17.502   9.771  0.1029  0.2211  0.0819
  183POPE   GL1 2321   2.576  17.479   9.413  0.0622 -0.1053 -0.0483
  183POPE   GL2 2322   2.309  17.681   9.257 -0.2761 -0.2522 -0.1636
  183POPE   C1A 2323   2.642  17.380   8.920 -0.2909  0.1948 -0.0606
  183POPE   D2A 2324   2.558  17.574   8.521  0.1700  0.0138  0.1037
  183POPE   C3A 2325   2.285  17.832   8.301  0.1479  0.0388  0.4320
  183POPE   C4A 2326   2.229  18.199   8.232  0.4522 -0.0351 -0.0891
  183POPE   C1B 2327   2.703  17.839   9.096  0.0227  0.0644  0.1630
  183POPE   C2B 2328   3.001  17.832   8.810  0.0701  0.2086 -0.1714
  183POPE   C3B 2329   3.030  17.699   8.350  0.1117  0.1258 -0.1913
  183POPE   C4B 2330   3.143  17.428   8.021  0.2689 -0.0189 -0.0377
  184POPE   NH3 2331  17.008   4.899  10.299  0.1419  0.1646 -0.1222
  184POPE   PO4 2332  16.521   5.006  10.226  0.2341  0.4790 -0.0975
  184POPE   GL1 2333  16.382   5.133   9.878  0.0891  0.0436 -0.1265
  184POPE   GL2 2334  16.296   5.012   9.661  0.1136  0.0730 -0.2176
  184POPE   C1A 2335  16.448   5.379   9.442  0.3015  0.0531  0.2021
  184POPE   D2A 2336  16.559   5.379   9.001 -0.1690  0.0016  0.2996
  184POPE   C3A 2337  16.657   5.280   8.658  0.1562 -0.0095  0.2498
  184POPE   C4A 2338  16.895   5.206   8.321  0.0480  0.0390 -0.1463
  184POPE   C1B 2339  16.232   4.942   9.214  0.1591  0.1188  0.1532
  184POPE   C2B 2340  16.390   4.893   8.837  0.2517 -0.0619  0.1234
  184POPE   C3B 2341  16.620   4.810   8.499 -0.2346  0.2583  0.2886
  184POPE   C4B 2342  16.909   4.741   8.136  0.2471 -0.2029  0.3500
  185POPE   NH3 2343   0.040  12.027  10.383 -0.1078 -0.1147 -0.0474
  185POPE   PO4 2344  -0.135  11.729  10.136 -0.3652 -0.2617 -0.2104
  185POPE   GL1 2345  -0.084  11.903   9.826 -0.1234  0.0556  0.2664
  185POPE   GL2 2346   0.190  11.768   9.552 -0.0647  0.0496 -0.1556
  185POPE   C1A 2347  -0.284  11.889   9.399  0.0429  0.3186 -0.1758
  185POPE   D2A 2348  -0.255  11.783   8.916  0.0712  0.2231  0.0991
  185POPE   C3A 2349  -0.309  11.463   8.501  0.0179 -0.4871  0.0181
  185POPE   C4A 2350  -0.187  11.572   8.157 -0.0191 -0.0096 -0.1043
  185POPE   C1B 2351   0.191  11.751   9.100  0.0539 -0.2898  0.1358
  185POPE   C2B 2352   0.133  11.494   8.754 -0.1746 -0.0055  0.2991
  185POPE   C3B 2353   0.220  11.455   8.324  0.0246  0.3475  0.1182
  185POPE   C4B 2354   0.522  11.418   8.036  0.4569  0.1733  0.1167
  186POPE   NH3 2355  12.631  10.167  10.801 -0.1216 -0.0319  0.0869
  186POPE   PO4 2356  12.438  10.465  11.033  0.0015  0.2916  0.0332
  186POPE   GL1 2357  12.117  10.468  10.642 -0.0481 -0.2568  0.3155
  186POPE   GL2 2358  12.193  10.731  10.461 -0.2743 -0.1050  0.4528
  186POPE   C1A 2359  11.926  10.393  10.190 -0.1396  0.0417 -0.0814
  186POPE   D2A 2360  11.536  10.122   9.931 -0.3371 -0.0068  0.1717
  186POPE   C3A 2361  11.493  10.253   9.484 -0.0550 -0.0738  0.0043
  186POPE   C4A 2362  11.220  10.359   9.079 -0.1266  0.0659 -0.1198
  186POPE   C1B 2363  12.154  11.095  10.249 -0.3376 -0.0988  0.3280
  186POPE   C2B 2364  11.984  11.089   9.901 -0.2698 -0.3289  0.2791
  186POPE   C3B 2365  11.950  11.090   9.467  0.3785  0.1538  0.1729
  186POPE   C4B 2366  11.887  10.995   9.067  0.0787 -0.0405  0.0383
  187POPE   NH3 2367   7.069  10.939  10.717  0.1200  0.0993 -0.1437
  187POPE   PO4 2368   6.916  10.531  10.999 -0.1970  0.0775 -0.2654
  187POPE   GL1 2369   6.941  10.411  10.645  0.2041  0.1038  0.0502
  187POPE   GL2 2370   6.652  10.429  10.571  0.0425 -0.0822  0.1616
  187POPE   C1A 2371   7.106  10.276  10.184 -0.1991  0.2901 -0.2276
  187POPE   D2A 2372   7.565  10.352  10.077  0.1078 -0.0120 -0.4153
  187POPE   C3A 2373   7.850  10.020  10.065  0.1680 -0.1060  0.0942
  187POPE   C4A 2374   8.087   9.852  10.193 -0.1218  0.1239 -0.2365
  187POPE   C1B 2375   6.586  10.183  10.153  0.1048  0.2232 -0.0564
  187POPE   C2B 2376   6.560   9.973   9.767 -0.1089  0.1764 -0.1160
  187POPE   C3B 2377   6.549   9.999   9.330  0.0857 -0.0654 -0.1198
  187POPE   C4B 2378   6.590  10.023   9.037  0.3203 -0.2570 -0.0119
  188POPE   NH3 2379  11.877  12.473  10.487  0.1668 -0.1152 -0.0480
  188POPE   PO4 2380  11.857  12.933  10.545 -0.0281  0.0199 -0.0477
  188POPE   GL1 2381  11.904  12.857  10.120 -0.2223 -0.1441  0.0298
  188POPE   GL2 2382  12.051  12.504  10.008  0.1700  0.1289  0.0321
  188POPE   C1A 2383  12.175  12.987   9.847  0.3050 -0.1152  0.3620
  188POPE   D2A 2384  12.393  13.033   9.422 -0.1286 -0.3174  0.0826
  188POPE   C3A 2385  12.180  12.781   9.172 -0.4901 -0.2327 -0.1558
  188POPE   C4A 2386  12.005  12.537   8.773  0.0613 -0.0249  0.3534
  188POPE   C1B 2387  12.206  12.564   9.595 -0.1830 -0.4108  0.1111
  188POPE   C2B 2388  12.411  12.313   9.205  0.6197  0.2848 -0.0689
  188POPE   C3B 2389  12.544  12.406   8.862 -0.1371 -0.2286  0.0971
  188POPE   C4B 2390  12.511  12.689   8.467  0.1861 -0.1399  0.3654
  189POPE   NH3 2391  10.004   7.051  10.240 -0.0094 -0.1326  0.3727
  189POPE   PO4 2392  10.241   7.320  10.535 -0.0267 -0.0436  0.0383
  189POPE   GL1 2393  10.236   7.539  10.186  0.2145 -0.0945  0.1548
  189POPE   GL2 2394  10.072   7.379   9.860  0.3268  0.1350 -0.0708
  189POPE   C1A 2395  10.351   7.753   9.816  0.4297 -0.3709 -0.1475
  189POPE   D2A 2396  10.634   7.690   9.457  0.0753 -0.0132  0.1102
  189POPE   C3A 2397  10.521   8.050   9.113 -0.0609  0.1990  0.1995
  189POPE   C4A 2398  10.292   8.186   8.734  0.0273  0.0790  0.3683
  189POPE   C1B 2399  10.236   7.401   9.512 -0.1055  0.0705  0.0885
  189POPE   C2B 2400  10.276   7.532   9.106 -0.2475  0.1464 -0.2516
  189POPE   C3B 2401  10.529   7.709   8.759  0.0946  0.1753  0.1647
  189POPE   C4B 2402  10.639   7.899   8.330  0.2651  0.0519  0.2380
  190POPE   NH3 2403   1.380  17.936  10.129 -0.1410 -0.0707 -0.0437
  190POPE   PO4 2404   1.673  17.752   9.872 -0.1502  0.0316  0.2834
  190POPE   GL1 2405   1.302  17.801   9.657 -0.0525 -0.2293 -0.1902
  190POPE   GL2 2406   1.264  18.002   9.509  0.3129 -0.0659  0.4162
  190POPE   C1A 2407   1.006  17.449   9.629 -0.2774 -0.1802  0.1437
  190POPE   D2A 2408   0.822  17.109   9.498 -0.0177  0.2182  0.1403
  190POPE   C3A 2409   0.892  16.945   9.053 -0.1755  0.0450  0.0345
  190POPE   C4A 2410   1.019  16.733   8.625 -0.0877  0.0101  0.1018
  190POPE   C1B 2411   1.421  18.093   9.133  0.1658  0.0180 -0.0706
  190POPE   C2B 2412   1.427  18.340   8.763 -0.0190  0.0588 -0.1569
  190POPE   C3B 2413   1.499  18.232   8.349  0.2771  0.0177 -0.0989
  190POPE   C4B 2414   1.819  18.240   7.929  0.0079  0.0635  0.1452
  191POPE   NH3 2415  13.151   2.495   9.894  0.0766 -0.0472  0.0193
  191POPE   PO4 2416  13.554   2.355   9.674 -0.1745  0.0541 -0.0992
  191POPE   GL1 2417  13.635   2.676   9.432  0.2894 -0.1214 -0.0472
  191POPE   GL2 2418  13.838   2.728   9.288  0.1954 -0.2098 -0.0128
  191POPE   C1A 2419  13.365   2.660   9.023  0.0144 -0.2078  0.0488
  191POPE   D2A 2420  12.910   2.765   9.095  0.0728 -0.3287  0.0751
  191POPE   C3A 2421  12.553   2.876   8.887  0.5017 -0.0263  0.5226
  191POPE   C4A 2422  12.155   2.644   9.082 -0.2067  0.1527  0.0397
  191POPE   C1B 2423  13.841   2.456   9.018  0.0567 -0.0050  0.1999
  191POPE   C2B 2424  14.000   2.235   8.710 -0.1255 -0.4261  0.1787
  191POPE   C3B 2425  13.803   2.097   8.393 -0.1599 -0.0848  0.0169
  191POPE   C4B 2426  13.625   1.765   8.061  0.0936 -0.0616  0.1491
  192POPE   NH3 2427  15.405   5.914  10.236 -0.2720 -0.0945 -0.1453
  192POPE   PO4 2428  15.612   6.293  10.285  0.0093 -0.1231  0.1615
  192POPE   GL1 2429  15.480   6.305   9.877 -0.5753 -0.1691  0.1199
  192POPE   GL2 2430  15.114   6.233   9.725 -0.0265  0.1149  0.0419
  192POPE   C1A 2431  15.542   6.279   9.467  0.1046  0.0505 -0.0011
  192POPE   D2A 2432  15.557   6.396   9.029 -0.1259 -0.1311  0.0501
  192POPE   C3A 2433  15.587   6.724   8.848  0.0266  0.1152  0.0651
  192POPE   C4A 2434  15.794   6.991   8.575  0.0341 -0.0419  0.0413
  192POPE   C1B 2435  15.106   6.485   9.397  0.0078  0.2436 -0.1507
  192POPE   C2B 2436  15.095   6.472   9.064 -0.1377  0.0767 -0.0628
  192POPE   C3B 2437  14.851   6.584   8.692  0.0087  0.2430  0.2223
  192POPE   C4B 2438  14.410   6.426   8.744 -0.0120 -0.2031  0.0800
  193POPE   NH3 2439   3.304  12.881  10.390  0.1203 -0.0119 -0.0780
  193POPE   PO4 2440   2.995  12.694  10.146 -0.1743 -0.0731 -0.1639
  193POPE   GL1 2441   3.266  12.643   9.836  0.0102  0.0818 -0.2554
  193POPE   GL2 2442   3.535  12.635   9.999 -0.0197 -0.0524 -0.5040
  193POPE   C1A 2443   3.401  12.649   9.462 -0.1526  0.4445  0.1244
  193POPE   D2A 2444   3.480  12.607   9.015 -0.0176 -0.0389  0.1221
  193POPE   C3A 2445   3.262  12.316   8.765  0.1613  0.2370 -0.1779
  193POPE   C4A 2446   3.113  11.965   8.621 -0.1647 -0.0030 -0.0866
  193POPE   C1B 2447   3.837  12.617   9.698 -0.2025 -0.3155  0.1534
  193POPE   C2B 2448   3.904  12.705   9.293 -0.0904  0.1600 -0.0225
  193POPE   C3B 2449   4.124  12.603   8.948  0.3497  0.0594 -0.1390
  193POPE   C4B 2450   4.319  12.286   8.676 -0.0013  0.0068 -0.2713
  194POPE   NH3 2451   7.308  12.145  10.736  0.1715 -0.2514 -0.1242
  194POPE   PO4 2452   7.492  11.827  10.616 -0.2500 -0.0071 -0.1222
  194POPE   GL1 2453   7.449  11.642  10.155  0.4731  0.2396 -0.0773
  194POPE   GL2 2454   7.359  11.337  10.415 -0.0757 -0.2191  0.0377
  194POPE   C1A 2455   7.472  11.624   9.714  0.0850  0.1329  0.2458
  194POPE   D2A 2456   7.512  11.642   9.286 -0.0938 -0.0974  0.1191
  194POPE   C3A 2457   7.199  11.767   8.995 -0.0256 -0.0482 -0.1164
  194POPE   C4A 2458   7.293  11.763   8.584  0.1479 -0.0580  0.1203
  194POPE   C1B 2459   7.280  11.151   9.978  0.1748 -0.1875  0.3081
  194POPE   C2B 2460   7.334  11.192   9.542  0.1216  0.0210  0.0795
  194POPE   C3B 2461   7.583  11.165   9.167 -0.0466 -0.0631 -0.2104
  194POPE   C4B 2462   7.580  11.357   8.784  0.2785 -0.0523  0.3219
  195POPE   NH3 2463   8.421   2.646   9.942 -0.0896 -0.1820 -0.1250
  195POPE   PO4 2464   8.770   2.943   9.720  0.0161 -0.0856  0.1655
  195POPE   GL1 2465   8.600   2.713   9.441 -0.0448 -0.1991  0.0978
  195POPE   GL2 2466   8.840   2.700   9.123 -0.1806 -0.1595 -0.2822
  195POPE   C1A 2467   8.185   2.732   9.298  0.2698 -0.1224 -0.2168
  195POPE   D2A 2468   7.868   2.643   9.038  0.0975  0.3651  0.0109
  195POPE   C3A 2469   7.912   2.740   8.689  0.1308  0.2041 -0.3105
  195POPE   C4A 2470   7.758   2.645   8.306  0.0246  0.2508  0.1800
  195POPE   C1B 2471   9.142   2.597   8.765 -0.0545  0.1876  0.3976
  195POPE   C2B 2472   9.216   2.642   8.349 -0.1792  0.0200  0.3519
  195POPE   C3B 2473   9.339   2.769   8.043  0.2415  0.2031  0.2125
  195POPE   C4B 2474   9.578   3.172   7.885 -0.1339  0.3203  0.0515
  196POPE   NH3 2475   0.861  11.242  10.448 -0.3474 -0.2310  0.0480
  196POPE   PO4 2476   0.714  10.843  10.418 -0.0316  0.3373 -0.0983
  196POPE   GL1 2477   0.603  11.001  10.082 -0.1779  0.2464  0.0069
  196POPE   GL2 2478   0.627  11.335  10.029 -0.2568  0.0422 -0.0006
  196POPE   C1A 2479   0.730  10.770   9.668 -0.0346 -0.3040  0.0092
  196POPE   D2A 2480   0.489  10.423   9.636 -0.3203  0.0929  0.0159
  196POPE   C3A 2481   0.687  10.062   9.438  0.0655  0.0626  0.0127
  196POPE   C4A 2482   0.643   9.684   9.283  0.1913 -0.0005  0.1843
  196POPE   C1B 2483   0.460  11.196   9.628 -0.3112  0.0022  0.0221
  196POPE   C2B 2484   0.327  11.215   9.113 -0.1292 -0.4204 -0.2215
  196POPE   C3B 2485   0.465  11.095   8.800  0.0943 -0.0864 -0.0424
  196POPE   C4B 2486   0.466  10.646   8.623 -0.1247  0.3365 -0.3127
  197POPE   NH3 2487   9.002   9.058  10.834 -0.0816  0.1641 -0.1026
  197POPE   PO4 2488   8.737   9.152  10.544  0.0882 -0.1896 -0.2056
  197POPE   GL1 2489   8.900   9.191  10.165  0.3945 -0.3452 -0.3608
  197POPE   GL2 2490   9.164   8.918  10.284  0.1164  0.1846  0.0455
  197POPE   C1A 2491   8.896   9.023   9.784 -0.2550 -0.2270 -0.0115
  197POPE   D2A 2492   8.948   8.880   9.332  0.0963 -0.2181  0.0549
  197POPE   C3A 2493   9.003   8.888   8.837  0.0770  0.1598  0.3359
  197POPE   C4A 2494   8.871   9.209   8.588  0.3599  0.1539  0.1552
  197POPE   C1B 2495   9.406   8.792   9.991  0.3378 -0.3270  0.0051
  197POPE   C2B 2496   9.430   8.773   9.565  0.1346 -0.2986 -0.1168
  197POPE   C3B 2497   9.165   8.478   9.248  0.0133 -0.0451 -0.0725
  197POPE   C4B 2498   9.071   8.316   8.830  0.1897  0.0783  0.3991
  198YOPE   NH3 2499  16.621   5.400  10.513  0.2567 -0.0642 -0.2606
  198YOPE   PO4 2500  17.022   5.370  10.292  0.0360  0.1254 -0.1245
  198YOPE   GL1 2501  17.382   5.207  10.072 -0.1754 -0.3480  0.0229
  198YOPE   GL2 2502  17.668   5.504  10.005  0.0289 -0.0666  0.0538
  198YOPE   C1A 2503  17.434   4.993   9.724  0.0867  0.1296 -0.1852
  198YOPE   D2A 2504  17.474   4.984   9.358 -0.3193  0.0441 -0.2683
  198YOPE   C3A 2505  17.498   4.881   9.008 -0.2264 -0.0513 -0.0904
  198YOPE   C4A 2506  17.741   4.895   8.674 -0.0143  0.1434  0.0807
  198YOPE   C1B 2507  17.640   5.404   9.550 -0.0184 -0.1001 -0.2257
  198YOPE   C2B 2508  17.718   5.455   9.123  0.0636  0.1251  0.1041
  198YOPE   D3B 2509  17.890   5.366   8.752  0.0528 -0.0039 -0.2183
  198YOPE   C4B 2510  17.808   5.572   8.472  0.0347 -0.3923  0.0920
  199YOPE   NH3 2511   4.330  17.675  10.041  0.1080 -0.1961 -0.0191
  199YOPE   PO4 2512   4.438  17.277   9.824  0.0066 -0.2191  0.4532
  199YOPE   GL1 2513   4.546  17.460   9.480 -0.1224 -0.3154 -0.0494
  199YOPE   GL2 2514   4.889  17.333   9.366  0.0351  0.2273  0.2262
  199YOPE   C1A 2515   4.610  17.662   9.109  0.3694  0.2005  0.0162
  199YOPE   D2A 2516   4.629  17.692   8.701  0.3269  0.0428  0.2731
  199YOPE   C3A 2517   4.403  17.369   8.409  0.0276  0.0040  0.2848
  199YOPE   C4A 2518   4.480  16.946   8.278 -0.2497  0.2851 -0.1152
  199YOPE   C1B 2519   4.932  17.259   8.956 -0.0078  0.2433  0.1355
  199YOPE   C2B 2520   4.873  17.270   8.510  0.0120 -0.1167 -0.3171
  199YOPE   D3B 2521   4.950  17.132   8.066 -0.2159 -0.0067 -0.1599
  199YOPE   C4B 2522   4.772  16.801   7.754 -0.0139  0.0480 -0.0983
  200YOPE   NH3 2523  17.836  16.075  10.467 -0.0525 -0.1208  0.0163
  200YOPE   PO4 2524  17.616  15.738  10.417  0.0060 -0.0110 -0.3232
  200YOPE   GL1 2525  17.675  15.838  10.065  0.1078  0.1420  0.1193
  200YOPE   GL2 2526  17.978  15.927   9.998  0.0550 -0.2192 -0.2310
  200YOPE   C1A 2527  17.717  15.695   9.550  0.1730  0.1754 -0.4820
  200YOPE   D2A 2528  17.695  15.820   9.167 -0.0868  0.1186 -0.0335
  200YOPE   C3A 2529  18.112  15.956   9.098  0.1258  0.1616 -0.3383
  200YOPE   C4A 2530  18.424  16.305   9.165  0.2925  0.1375  0.2423
  200YOPE   C1B 2531  17.802  16.173   9.625 -0.1776  0.1260 -0.2241
  200YOPE   C2B 2532  17.865  16.312   9.250  0.3125 -0.2165 -0.0052
  200YOPE   D3B 2533  17.789  16.209   8.817 -0.2244 -0.3209 -0.3119
  200YOPE   C4B 2534  18.034  16.196   8.415 -0.1499  0.3837 -0.0797
  201YOPE   NH3 2535   9.974  12.858  10.393  0.3432 -0.3509 -0.3505
  201YOPE   PO4 2536   9.780  12.449  10.544  0.0515 -0.3169 -0.2331
  201YOPE   GL1 2537   9.829  12.383  10.243 -0.0396 -0.0842  0.0532
  201YOPE   GL2 2538  10.163  12.420  10.079  0.4325  0.1232  0.3446
  201YOPE   C1A 2539   9.738  12.116   9.891  0.3552  0.2251 -0.1506
  201YOPE   D2A 2540   9.494  11.812   9.619  0.0902  0.1630 -0.1874
  201YOPE   C3A 2541   9.598  11.659   9.275  0.1477  0.0323  0.2045
  201YOPE   C4A 2542   9.675  11.541   8.822  0.1304  0.0847  0.0399
  201YOPE   C1B 2543  10.084  12.409   9.659  0.2340  0.3057  0.2602
  201YOPE   C2B 2544  10.004  12.070   9.385 -0.4226  0.1104  0.1145
  201YOPE   D3B 2545  10.044  11.783   9.255  0.1318 -0.0960  0.0179
  201YOPE   C4B 2546   9.978  11.281   9.206  0.1118 -0.0359  0.3355
  202YOPE   NH3 2547  15.932   5.015  10.025 -0.0440 -0.1142 -0.2723
  202YOPE   PO4 2548  15.531   4.825  10.221  0.1017 -0.1644  0.0668
  202YOPE   GL1 2549  15.446   4.968   9.790 -0.0538 -0.1569  0.4253
  202YOPE   GL2 2550  15.282   5.226   9.695  0.2018 -0.0866 -0.0480
  202YOPE   C1A 2551  15.716   4.919   9.422  0.1589 -0.0099  0.0038
  202YOPE   D2A 2552  15.723   5.049   9.079  0.0624  0.1390  0.2017
  202YOPE   C3A 2553  15.906   4.759   8.755 -0.2602  0.2536 -0.5075
  202YOPE   C4A 2554  16.104   4.740   8.376 -0.1662  0.0809 -0.1597
  202YOPE   C1B 2555  15.426   5.288   9.353 -0.0372 -0.0548 -0.0157
  202YOPE   C2B 2556  15.605   5.451   8.870  0.0512 -0.0053 -0.0569
  202YOPE   D3B 2557  16.007   5.252   8.690 -0.3069  0.2354  0.0489
  202YOPE   C4B 2558  16.238   5.275   8.348  0.0632 -0.0271 -0.0416
  203YOPE   NH3 2559   0.644   8.135  11.216  0.1660 -0.1041  0.1752
  203YOPE   PO4 2560   0.669   8.615  11.059 -0.4573 -0.1328 -0.1891
  203YOPE   GL1 2561   0.815   8.593  10.587 -0.3374 -0.0305  0.0514
  203YOPE   GL2 2562   0.785   8.242  10.531 -0.0362 -0.1892  0.0218
  203YOPE   C1A 2563   0.671   8.723  10.067 -0.0977  0.0554  0.0070
  203YOPE   D2A 2564   0.679   8.878   9.626 -0.0731 -0.1285  0.3922
  203YOPE   C3A 2565   0.948   8.843   9.247  0.1274 -0.1994 -0.0551
  203YOPE   C4A 2566   0.750   8.928   8.880 -0.0988 -0.0643  0.0086
  203YOPE   C1B 2567   1.042   8.143  10.164  0.2791 -0.4441 -0.1359
  203YOPE   C2B 2568   1.147   8.142   9.687  0.1182 -0.0035  0.0172
  203YOPE   D3B 2569   1.165   8.027   9.307  0.1695  0.0039  0.1582
  203YOPE   C4B 2570   1.067   7.854   8.847  0.3781  0.0527  0.1813
  204YOPE   NH3 2571  11.441   2.769  10.044 -0.2632  0.0548  0.0945
  204YOPE   PO4 2572  11.724   3.215   9.945  0.2030  0.3580  0.0281
  204YOPE   GL1 2573  11.685   3.551   9.637  0.0810 -0.0658 -0.1112
  204YOPE   GL2 2574  11.968   3.760   9.687 -0.5158  0.0938 -0.0587
  204YOPE   C1A 2575  11.791   3.683   9.208 -0.0743 -0.3838 -0.0588
  204YOPE   D2A 2576  11.600   3.645   8.845 -0.1770 -0.3499  0.2101
  204YOPE   C3A 2577  11.913   3.600   8.523 -0.0418 -0.2024  0.1056
  204YOPE   C4A 2578  12.152   3.436   8.279 -0.2838 -0.2478 -0.2244
  204YOPE   C1B 2579  12.323   3.751   9.382  0.0960 -0.1902  0.0410
  204YOPE   C2B 2580  12.296   3.757   8.905  0.2134  0.2147 -0.0865
  204YOPE   D3B 2581  12.492   3.727   8.503 -0.1752  0.0721  0.1151
  204YOPE   C4B 2582  12.507   3.761   7.970  0.3568 -0.0203  0.0471
  205YOPE   NH3 2583  12.479  16.290   9.565  0.3330  0.0309  0.0723
  205YOPE   PO4 2584  12.760  16.590   9.552 -0.0691 -0.2551  0.1817
  205YOPE   GL1 2585  12.925  16.590   9.258  0.1513  0.1149  0.4164
  205YOPE   GL2 2586  12.923  16.836   9.118 -0.4563 -0.1307 -0.1914
  205YOPE   C1A 2587  12.912  16.400   8.825 -0.2121 -0.0076 -0.1602
  205YOPE   D2A 2588  13.000  16.097   8.598 -0.1124 -0.2599  0.1190
  205YOPE   C3A 2589  12.986  16.205   8.227  0.2153  0.0422  0.0135
  205YOPE   C4A 2590  12.982  16.109   7.865  0.1518 -0.0288 -0.0024
  205YOPE   C1B 2591  12.801  16.899   8.676  0.3578 -0.1610 -0.2300
  205YOPE   C2B 2592  12.753  16.620   8.338 -0.0945  0.1305  0.0205
  205YOPE   D3B 2593  12.986  16.585   7.930  0.0412 -0.1137  0.2429
  205YOPE   C4B 2594  13.415  16.846   7.763 -0.0467 -0.0042 -0.2197
  206YOPE   NH3 2595   1.770   3.972  10.219  0.0711  0.1968  0.0463
  206YOPE   PO4 2596   1.986   4.360  10.434  0.1391 -0.1514 -0.0345
  206YOPE   GL1 2597   1.984   4.372   9.975 -0.1635 -0.0714  0.0491
  206YOPE   GL2 2598   2.199   4.274   9.871 -0.0935 -0.0606 -0.0479
  206YOPE   C1A 2599   1.736   4.616   9.788 -0.3521 -0.1844  0.0628
  206YOPE   D2A 2600   1.495   4.982   9.827  0.0370  0.1486 -0.0245
  206YOPE   C3A 2601   1.434   5.191   9.452  0.0088 -0.0421 -0.2282
  206YOPE   C4A 2602   1.399   5.164   8.971  0.2094 -0.0668  0.1751
  206YOPE   C1B 2603   2.104   4.486   9.416 -0.4373  0.1091 -0.2953
  206YOPE   C2B 2604   2.193   4.791   9.046 -0.0043 -0.1579 -0.3005
  206YOPE   D3B 2605   2.388   5.137   8.780 -0.0921  0.2684 -0.4982
  206YOPE   C4B 2606   2.277   5.477   8.544 -0.0303 -0.0723 -0.0681
  207YOPE   NH3 2607   3.721  13.620  10.338  0.2302 -0.2060 -0.0852
  207YOPE   PO4 2608   3.357  13.398  10.336 -0.1825  0.1312 -0.1061
  207YOPE   GL1 2609   3.284  13.443   9.913  0.0539 -0.0256  0.1683
  207YOPE   GL2 2610   3.065  13.106   9.924 -0.0219 -0.1879  0.1957
  207YOPE   C1A 2611   3.168  13.376   9.471  0.3002 -0.2067  0.1383
  207YOPE   D2A 2612   3.134  13.187   9.033 -0.0754 -0.4700  0.2218
  207YOPE   C3A 2613   3.577  13.105   8.789 -0.4754  0.1592 -0.0627
  207YOPE   C4A 2614   3.835  13.302   8.542  0.3493  0.0887 -0.0415
  207YOPE   C1B 2615   2.960  12.892   9.610  0.1007  0.1410  0.0627
  207YOPE   C2B 2616   3.023  12.755   9.183  0.1266  0.0816 -0.0047
  207YOPE   D3B 2617   3.103  12.875   8.693 -0.2916  0.2371  0.1292
  207YOPE   C4B 2618   3.336  12.700   8.361  0.1627 -0.1789 -0.0291
  208YOPE   NH3 2619  13.347   3.848  10.050  0.0299  0.1137 -0.2676
  208YOPE   PO4 2620  13.410   3.356  10.089 -0.0646 -0.1011  0.2320
  208YOPE   GL1 2621  13.351   3.329   9.637  0.1080  0.3565  0.0324
  208YOPE   GL2 2622  13.606   3.220   9.458  0.0676 -0.2483  0.0528
  208YOPE   C1A 2623  13.180   3.233   9.191 -0.2117 -0.1237  0.1117
  208YOPE   D2A 2624  13.091   3.161   8.811 -0.3015  0.2120  0.0328
  208YOPE   C3A 2625  12.985   2.806   8.607 -0.1760 -0.3590 -0.2062
  208YOPE   C4A 2626  13.193   2.496   8.218 -0.1110  0.0006  0.2194
  208YOPE   C1B 2627  13.641   3.146   9.008 -0.0260  0.0961 -0.2568
  208YOPE   C2B 2628  13.497   2.983   8.661  0.0299  0.4063  0.3407
  208YOPE   D3B 2629  13.333   2.964   8.266  0.3178 -0.0226  0.1477
  208YOPE   C4B 2630  12.898   2.934   8.099  0.0645  0.0609  0.2542
  209YOPE   NH3 2631  14.769   1.082   9.662 -0.0547  0.0549  0.0705
  209YOPE   PO4 2632  14.692   0.613   9.719 -0.0082 -0.2993  0.1352
  209YOPE   GL1 2633  14.821   0.570   9.353 -0.3586  0.1198  0.0127
  209YOPE   GL2 2634  15.152   0.488   9.278  0.2348 -0.3533 -0.1414
  209YOPE   C1A 2635  14.710   0.712   9.001 -0.2548  0.0414  0.3128
  209YOPE   D2A 2636  14.552   0.635   8.623  0.0029 -0.1355 -0.2424
  209YOPE   C3A 2637  14.747   0.514   8.243 -0.4147 -0.4312 -0.1306
  209YOPE   C4A 2638  14.752   0.111   8.090  0.0711  0.0724  0.2430
  209YOPE   C1B 2639  15.201   0.612   8.816  0.0444  0.1818 -0.2781
  209YOPE   C2B 2640  15.140   0.806   8.413  0.0358  0.1204  0.1866
  209YOPE   D3B 2641  15.208   0.596   7.936 -0.0720 -0.1504  0.0677
  209YOPE   C4B 2642  15.447   0.500   7.507  0.1399 -0.1266  0.2320
  210YOPE   NH3 2643   2.306  10.771  10.514  0.1129 -0.0797  0.0288
  210YOPE   PO4 2644   2.761  11.097  10.577  0.1019  0.1126  0.0049
  210YOPE   GL1 2645   2.650  10.956  10.188  0.1817  0.1000 -0.3184
  210YOPE   GL2 2646   2.913  10.830  10.064  0.0081  0.1394  0.1080
  210YOPE   C1A 2647   2.522  10.830   9.717  0.1144  0.2326 -0.2490
  210YOPE   D2A 2648   2.515  10.741   9.336 -0.2480 -0.2102 -0.0190
  210YOPE   C3A 2649   2.531  10.291   9.243 -0.2302 -0.0716 -0.2746
  210YOPE   C4A 2650   2.488  10.123   8.849  0.1324 -0.0119 -0.0990
  210YOPE   C1B 2651   2.928  11.114   9.705 -0.0717  0.0447  0.2726
  210YOPE   C2B 2652   3.029  10.988   9.220 -0.0441  0.1091  0.1664
  210YOPE   D3B 2653   2.813  11.074   8.929 -0.0962  0.2732  0.0523
  210YOPE   C4B 2654   2.735  11.003   8.474 -0.0029 -0.0108  0.2138
  211YOPE   NH3 2655  17.781   3.734  10.679 -0.2182 -0.0213 -0.2606
  211YOPE   PO4 2656  18.058   3.719  10.342 -0.0599  0.0942 -0.2484
  211YOPE   GL1 2657  18.288   3.720   9.984  0.2782 -0.0361 -0.1345
  211YOPE   GL2 2658  18.520   3.868  10.018  0.2172  0.0749  0.1386
  211YOPE   C1A 2659  18.332   3.648   9.567 -0.1843 -0.0405 -0.0073
  211YOPE   D2A 2660  18.340   3.464   9.017 -0.1371 -0.1802 -0.2116
  211YOPE   C3A 2661  18.713   3.648   8.719 -0.0189 -0.2252  0.0765
  211YOPE   C4A 2662  18.997   3.367   8.592  0.2556  0.0843  0.4422
  211YOPE   C1B 2663  18.404   4.164   9.692 -0.0049  0.1444 -0.1513
  211YOPE   C2B 2664  18.509   4.321   9.300 -0.2911 -0.3603  0.0263
  211YOPE   D3B 2665  18.603   4.225   8.929 -0.1222  0.1570  0.0846
  211YOPE   C4B 2666  18.524   4.087   8.521 -0.0432 -0.0592  0.1630
  212YOPE   NH3 2667   5.122  13.405  10.449  0.0425  0.0284 -0.0466
  212YOPE   PO4 2668   4.996  13.847  10.569  0.0688 -0.0748  0.1172
  212YOPE   GL1 2669   4.772  13.667  10.224  0.2715  0.0943 -0.1038
  212YOPE   GL2 2670   4.833  13.513   9.994  0.0717 -0.1053 -0.2635
  212YOPE   C1A 2671   4.348  13.634   9.974  0.1404 -0.2226  0.1114
  212YOPE   D2A 2672   4.159  13.942   9.661  0.3121  0.1249 -0.0670
  212YOPE   C3A 2673   4.160  14.001   9.174  0.0832  0.0738 -0.0667
  212YOPE   C4A 2674   4.241  14.108   8.739  0.0299 -0.0384 -0.3206
  212YOPE   C1B 2675   4.606  13.289   9.565 -0.2067  0.0496  0.0432
  212YOPE   C2B 2676   4.613  13.336   9.106 -0.1978  0.1534  0.0959
  212YOPE   D3B 2677   4.889  13.238   8.680  0.1384 -0.1768 -0.3091
  212YOPE   C4B 2678   5.083  13.545   8.470  0.0989 -0.0951  0.2554
  213YOPE   NH3 2679  15.422  11.424  10.286  0.2856 -0.1518  0.1047
  213YOPE   PO4 2680  15.119  11.256  10.555 -0.1548  0.0959 -0.2133
  213YOPE   GL1 2681  15.062  11.103  10.207  0.3342  0.2606  0.0275
  213YOPE   GL2 2682  14.735  10.886  10.201  0.0423 -0.1488  0.2963
  213YOPE   C1A 2683  15.012  11.078   9.729 -0.1516  0.3230 -0.4097
  213YOPE   D2A 2684  14.995  10.778   9.407 -0.1034  0.0529 -0.0654
  213YOPE   C3A 2685  14.789  10.520   9.140  0.0327  0.0165  0.2385
  213YOPE   C4A 2686  14.836  10.075   9.016  0.3559  0.0016 -0.0742
  213YOPE   C1B 2687  15.205  10.682   9.975 -0.2260 -0.1109  0.1701
  213YOPE   C2B 2688  15.547  10.705   9.692 -0.2625 -0.5723  0.1404
  213YOPE   D3B 2689  15.625  10.947   9.251  0.1333  0.0667 -0.1234
  213YOPE   C4B 2690  15.698  11.002   8.804  0.2771 -0.1636 -0.0129
  214YOPE   NH3 2691   9.582  17.822   9.419  0.0795 -0.1689  0.2438
  214YOPE   PO4 2692   9.693  18.226   9.245  0.0082  0.0864  0.1671
  214YOPE   GL1 2693   9.606  18.089   8.784 -0.2319  0.2777 -0.0805
  214YOPE   GL2 2694   9.932  17.933   8.617  0.0015  0.0915  0.2409
  214YOPE   C1A 2695   9.624  18.143   8.284  0.0038  0.0557 -0.0105
  214YOPE   D2A 2696   9.838  18.066   7.877  0.3446  0.1382 -0.1742
  214YOPE   C3A 2697  10.094  18.344   7.621 -0.1194 -0.1344 -0.2274
  214YOPE   C4A 2698  10.487  18.530   7.403  0.0461 -0.1491 -0.1610
  214YOPE   C1B 2699  10.158  17.968   8.281  0.2170 -0.2317 -0.0956
  214YOPE   C2B 2700  10.402  18.087   7.979  0.2144  0.0263  0.0426
  214YOPE   D3B 2701  10.531  17.964   7.576  0.1700 -0.0640  0.0506
  214YOPE   C4B 2702  10.470  17.650   7.286 -0.1280 -0.1201 -0.0462
  215YOPE   NH3 2703   0.087   4.967  10.733 -0.1286 -0.3757  0.0003
  215YOPE   PO4 2704   0.528   5.188  10.675 -0.0850 -0.0187 -0.3835
  215YOPE   GL1 2705   0.464   5.334  10.215  0.2211  0.1891  0.1948
  215YOPE   GL2 2706   0.683   5.220  10.050 -0.0348  0.2416  0.0503
  215YOPE   C1A 2707   0.447   5.595   9.797 -0.0507 -0.0432  0.0792
  215YOPE   D2A 2708   0.525   5.580   9.342  0.1867  0.2199  0.1778
  215YOPE   C3A 2709   0.449   5.963   9.083 -0.0160  0.2093  0.0263
  215YOPE   C4A 2710   0.334   5.966   8.627 -0.0453 -0.0840  0.1230
  215YOPE   C1B 2711   0.613   4.731   9.868 -0.1243  0.1332  0.0845
  215YOPE   C2B 2712   0.736   4.300   9.685  0.2924 -0.0820 -0.1739
  215YOPE   D3B 2713   0.552   3.865   9.587 -0.0512 -0.3009  0.1027
  215YOPE   C4B 2714   0.424   3.800   9.239 -0.2293  0.0501 -0.2118
  216YOPE   NH3 2715  15.066  17.925   9.710 -0.0594  0.0160 -0.0265
  216YOPE   PO4 2716  15.403  17.692   9.920  0.0756 -0.0448  0.0019
  216YOPE   GL1 2717  15.581  17.531   9.566  0.3847 -0.2893  0.0383
  216YOPE   GL2 2718  15.472  17.190   9.505 -0.2722  0.1740  0.1240
  216YOPE   C1A 2719  15.787  17.417   9.203  0.0575 -0.0235 -0.1744
  216YOPE   D2A 2720  15.940  17.343   8.709 -0.0048 -0.2913 -0.4291
  216YOPE   C3A 2721  15.991  17.565   8.344  0.0176 -0.0050  0.0644
  216YOPE   C4A 2722  16.300  17.771   8.114  0.2114  0.0772  0.2473
  216YOPE   C1B 2723  15.492  16.987   9.076  0.1419  0.1146 -0.2657
  216YOPE   C2B 2724  15.586  16.953   8.692  0.0208  0.1488 -0.5138
  216YOPE   D3B 2725  15.672  16.610   8.495 -0.3511 -0.2035  0.3306
  216YOPE   C4B 2726  15.921  16.412   8.222  0.1287  0.0464 -0.2624
  217YOPE   NH3 2727   7.224  17.348   9.698 -0.0169  0.1258  0.2169
  217YOPE   PO4 2728   7.072  16.922   9.597  0.1299  0.0837  0.0045
  217YOPE   GL1 2729   6.814  16.601   9.353  0.0559 -0.0302  0.4402
  217YOPE   GL2 2730   6.673  16.858   9.209  0.0565 -0.0337 -0.2796
  217YOPE   C1A 2731   6.825  16.384   8.919 -0.2177  0.3502  0.0435
  217YOPE   D2A 2732   7.046  16.052   8.755  0.2695  0.1527 -0.1884
  217YOPE   C3A 2733   7.360  16.112   8.658 -0.0980  0.4058 -0.1606
  217YOPE   C4A 2734   7.617  16.336   8.860 -0.1580 -0.0105  0.6016
  217YOPE   C1B 2735   6.560  16.806   8.772 -0.2951 -0.1832 -0.3027
  217YOPE   C2B 2736   6.590  16.728   8.424  0.4016  0.0765  0.0903
  217YOPE   D3B 2737   6.614  16.524   8.113 -0.1610 -0.2588  0.1418
  217YOPE   C4B 2738   6.780  16.314   7.792 -0.1162  0.1842 -0.1248
  218YOPE   NH3 2739   3.264   3.859  10.463  0.3322  0.0029 -0.2835
  218YOPE   PO4 2740   3.581   3.486  10.661  0.3396  0.0962 -0.0612
  218YOPE   GL1 2741   3.781   3.246  10.423  0.1560  0.1689 -0.0606
  218YOPE   GL2 2742   3.764   3.421  10.160 -0.2899 -0.3083 -0.2118
  218YOPE   C1A 2743   4.167   3.105  10.166  0.2909 -0.0713  0.0439
  218YOPE   D2A 2744   4.512   3.100  10.024 -0.1981  0.0361  0.1808
  218YOPE   C3A 2745   4.799   3.414   9.761 -0.0976 -0.1947 -0.4309
  218YOPE   C4A 2746   5.165   3.338   9.531  0.1431 -0.0378 -0.2543
  218YOPE   C1B 2747   3.821   3.265   9.788  0.1464 -0.0654  0.1861
  218YOPE   C2B 2748   3.755   3.309   9.298  0.1525  0.1865 -0.1265
  218YOPE   D3B 2749   3.376   3.263   9.111 -0.0263 -0.1214  0.0441
  218YOPE   C4B 2750   3.046   3.316   8.842 -0.1222 -0.0753 -0.3492
  219YOPE   NH3 2751   3.808  12.044  10.537  0.1326  0.2605 -0.1036
  219YOPE   PO4 2752   4.212  11.847  10.675 -0.0198  0.0845  0.1935
  219YOPE   GL1 2753   4.330  11.734  10.283 -0.2294 -0.3164 -0.0365
  219YOPE   GL2 2754   4.223  11.961  10.080  0.0429  0.0942 -0.1103
  219YOPE   C1A 2755   4.118  11.477   9.966  0.0397 -0.2791 -0.0581
  219YOPE   D2A 2756   3.927  11.036   9.705  0.1643  0.0148  0.0199
  219YOPE   C3A 2757   3.869  10.998   9.250  0.2189  0.0086  0.0275
  219YOPE   C4A 2758   3.728  10.723   8.870  0.0191  0.0088 -0.0501
  219YOPE   C1B 2759   4.291  11.792   9.652 -0.1534  0.0419  0.1182
  219YOPE   C2B 2760   4.510  11.491   9.488  0.1061 -0.1240  0.3087
  219YOPE   D3B 2761   4.493  11.265   9.040 -0.1426  0.0968  0.2035
  219YOPE   C4B 2762   4.086  11.229   8.882 -0.1492 -0.1096 -0.0449
  220YOPE   NH3 2763   1.356  15.304  10.256 -0.0757  0.1991  0.0971
  220YOPE   PO4 2764   1.834  15.126  10.106 -0.0104 -0.1379  0.0212
  220YOPE   GL1 2765   2.055  15.183   9.741 -0.1864 -0.0004 -0.0514
  220YOPE   GL2 2766   2.172  15.486   9.587  0.0603 -0.1511  0.1940
  220YOPE   C1A 2767   1.881  15.210   9.298 -0.0378  0.0137 -0.1034
  220YOPE   D2A 2768   1.752  15.256   8.862  0.0300 -0.3157 -0.0694
  220YOPE   C3A 2769   1.961  14.993   8.544 -0.1399  0.1346  0.1336
  220YOPE   C4A 2770   2.103  14.696   8.267 -0.1884  0.1138 -0.0116
  220YOPE   C1B 2771   2.206  15.474   9.120 -0.2731  0.3472 -0.4068
  220YOPE   C2B 2772   2.204  15.401   8.734  0.0986 -0.1834  0.0267
  220YOPE   D3B 2773   1.918  15.501   8.377  0.0871 -0.1687 -0.0641
  220YOPE   C4B 2774   1.759  15.544   8.017 -0.1384  0.0967  0.0717
  221YOPE   NH3 2775  15.279   3.203  10.151  0.1110  0.0183  0.0442
  221YOPE   PO4 2776  15.387   2.781  10.030  0.1621  0.0609 -0.0421
  221YOPE   GL1 2777  15.612   3.079   9.710  0.0793 -0.0641  0.0136
  221YOPE   GL2 2778  15.713   3.374   9.912 -0.1964 -0.1642  0.0053
  221YOPE   C1A 2779  15.709   3.098   9.187 -0.2778 -0.1431 -0.1657
  221YOPE   D2A 2780  15.834   3.095   8.768  0.0260  0.2108 -0.0020
  221YOPE   C3A 2781  15.800   2.909   8.317 -0.1569  0.0395 -0.2858
  221YOPE   C4A 2782  15.492   2.707   8.052  0.0881  0.1980  0.0185
  221YOPE   C1B 2783  15.944   3.385   9.565  0.0447  0.0145  0.1129
  221YOPE   C2B 2784  16.076   3.494   9.145 -0.0660  0.0969 -0.0141
  221YOPE   D3B 2785  16.343   3.559   8.802  0.0633  0.0309 -0.1458
  221YOPE   C4B 2786  16.472   3.639   8.368 -0.1225 -0.1878  0.0670
  222YOPE   NH3 2787   2.792   5.423  10.696 -0.1036  0.1616 -0.0740
  222YOPE   PO4 2788   3.190   5.529  10.730  0.3221 -0.2414  0.2036
  222YOPE   GL1 2789   2.999   5.764  10.400  0.0104  0.0229 -0.0726
  222YOPE   GL2 2790   3.006   6.107  10.351 -0.0791  0.0411  0.1399
  222YOPE   C1A 2791   2.700   5.781  10.034 -0.1678  0.4327 -0.1689
  222YOPE   D2A 2792   2.346   5.994   9.795  0.0761 -0.0067 -0.0486
  222YOPE   C3A 2793   1.998   5.758   9.828  0.4224 -0.1607 -0.1312
  222YOPE   C4A 2794   1.919   5.367   9.915 -0.2823  0.1336  0.0241
  222YOPE   C1B 2795   3.291   6.296   9.991  0.2550 -0.1302  0.3161
  222YOPE   C2B 2796   3.382   6.384   9.587 -0.1511 -0.1563 -0.3748
  222YOPE   D3B 2797   3.393   6.397   9.166 -0.1689  0.0664 -0.3672
  222YOPE   C4B 2798   3.522   6.421   8.715 -0.0894 -0.3648 -0.0635
  223YOPE   NH3 2799  11.638   1.460   9.638  0.3079  0.3488 -0.4776
  223YOPE   PO4 2800  11.831   1.227   9.837 -0.1974  0.0733  0.1229
  223YOPE   GL1 2801  11.772   0.997   9.473  0.1553  0.1233  0.2650
  223YOPE   GL2 2802  11.913   1.266   9.294 -0.3893  0.1322 -0.2131
  223YOPE   C1A 2803  11.711   0.879   9.058  0.2185 -0.0592  0.0989
  223YOPE   D2A 2804  11.433   0.864   8.804 -0.1725  0.1887 -0.1161
  223YOPE   C3A 2805  11.487   0.857   8.352 -0.1925 -0.0220  0.0729
  223YOPE   C4A 2806  11.710   0.898   7.968 -0.0386 -0.0397  0.1829
  223YOPE   C1B 2807  12.044   1.317   8.836  0.0308  0.1161  0.2251
  223YOPE   C2B 2808  12.082   1.119   8.322 -0.0680 -0.0043 -0.2647
  223YOPE   D3B 2809  12.219   1.080   7.916  0.2334 -0.3700  0.1882
  223YOPE   C4B 2810  12.262   0.936   7.533 -0.3265 -0.3763  0.3431
  224YOPE   NH3 2811  13.496  10.220  10.693  0.1208  0.1947  0.1209
  224YOPE   PO4 2812  13.098  10.364  10.718  0.0699 -0.0878  0.1386
  224YOPE   GL1 2813  13.050  10.586  10.386 -0.0286  0.2192 -0.1504
  224YOPE   GL2 2814  13.315  10.501  10.263 -0.1787 -0.0220  0.2027
  224YOPE   C1A 2815  13.035  10.641   9.867 -0.0590 -0.1860 -0.1345
  224YOPE   D2A 2816  12.923  10.470   9.408 -0.0555  0.2986 -0.1645
  224YOPE   C3A 2817  12.854  10.701   8.973 -0.2124 -0.3953 -0.0519
  224YOPE   C4A 2818  12.621  11.078   8.877 -0.0359 -0.0874  0.1639
  224YOPE   C1B 2819  13.282  10.176   9.896 -0.3237  0.1461 -0.0130
  224YOPE   C2B 2820  13.418  10.071   9.463 -0.0035  0.0005 -0.3334
  224YOPE   D3B 2821  13.546   9.995   9.060  0.1574 -0.0733 -0.1256
  224YOPE   C4B 2822  13.546  10.075   8.602 -0.3010  0.0408 -0.0697
  225YOPE   NH3 2823   4.804  15.894   9.963 -0.1466  0.1682 -0.1580
  225YOPE   PO4 2824   5.211  15.999   9.925  0.1428 -0.2338 -0.1282
  225YOPE   GL1 2825   5.060  15.950   9.528  0.1872  0.0007 -0.0677
  225YOPE   GL2 2826   4.950  15.724   9.389 -0.1298 -0.0762 -0.0103
  225YOPE   C1A 2827   5.115  16.127   9.082 -0.0731 -0.1417  0.2372
  225YOPE   D2A 2828   5.219  16.380   8.664  0.0104  0.0760 -0.0219
  225YOPE   C3A 2829   5.190  16.065   8.422 -0.0718  0.0611 -0.3972
  225YOPE   C4A 2830   5.054  15.903   8.040  0.2924 -0.1899  0.0230
  225YOPE   C1B 2831   4.693  15.723   9.063 -0.2770 -0.0002  0.2168
  225YOPE   C2B 2832   4.754  15.705   8.668 -0.1894  0.2010  0.0448
  225YOPE   D3B 2833   4.576  15.790   8.366 -0.1518 -0.0546 -0.1001
  225YOPE   C4B 2834   4.610  15.732   7.943 -0.1399 -0.1054 -0.1735
  226YOPE   NH3 2835   7.136  16.374   9.792 -0.1388 -0.0403  0.1732
  226YOPE   PO4 2836   6.871  16.150  10.042  0.0119 -0.3699  0.1341
  226YOPE   GL1 2837   6.724  16.117   9.649 -0.0394 -0.0587  0.2188
  226YOPE   GL2 2838   6.410  16.355   9.603 -0.0502 -0.0633 -0.0894
  226YOPE   C1A 2839   6.559  15.962   9.247  0.0301 -0.0541  0.1226
  226YOPE   D2A 2840   6.392  15.991   8.830  0.0690 -0.0204 -0.3287
  226YOPE   C3A 2841   6.608  16.231   8.481 -0.2326 -0.0570  0.3852
  226YOPE   C4A 2842   7.054  16.223   8.242  0.0478  0.1527  0.1892
  226YOPE   C1B 2843   6.381  16.474   9.177  0.0984 -0.1719 -0.1506
  226YOPE   C2B 2844   6.139  16.447   8.835 -0.1714  0.1205 -0.0563
  226YOPE   D3B 2845   6.040  16.553   8.366  0.3043 -0.0975 -0.0089
  226YOPE   C4B 2846   5.727  16.786   7.997 -0.0292  0.0897 -0.0515
  227YOPE   NH3 2847   2.399  15.413  10.058  0.1181 -0.1164 -0.2463
  227YOPE   PO4 2848   2.312  14.899  10.080  0.1945  0.2716  0.0948
  227YOPE   GL1 2849   2.381  14.675   9.739 -0.0452 -0.2978 -0.3152
  227YOPE   GL2 2850   2.425  14.448   9.804  0.1627  0.0034  0.2788
  227YOPE   C1A 2851   2.411  14.570   9.222 -0.3399  0.3127  0.2007
  227YOPE   D2A 2852   2.301  14.497   8.779 -0.1056  0.2141 -0.1433
  227YOPE   C3A 2853   2.534  14.435   8.419  0.0229  0.2534  0.1499
  227YOPE   C4A 2854   2.336  14.251   8.134  0.0163  0.0515 -0.0111
  227YOPE   C1B 2855   2.591  14.179   9.523 -0.2402  0.0322  0.2728
  227YOPE   C2B 2856   2.723  14.154   9.165 -0.0139  0.0090 -0.5145
  227YOPE   D3B 2857   2.611  13.991   8.787  0.3849 -0.3962 -0.0291
  227YOPE   C4B 2858   2.517  13.732   8.432 -0.0950  0.0373  0.1819
  228YOPE   NH3 2859   0.760   7.395  10.861 -0.2225 -0.0277  0.0165
  228YOPE   PO4 2860   1.022   7.816  11.062  0.2189  0.2076  0.2194
  228YOPE   GL1 2861   1.034   7.826  10.641 -0.0912 -0.2253 -0.1223
  228YOPE   GL2 2862   0.746   7.770  10.402  0.0754 -0.0829 -0.3821
  228YOPE   C1A 2863   1.308   7.775  10.290  0.0718 -0.1337  0.0544
  228YOPE   D2A 2864   1.499   7.849   9.922  0.1653  0.0256 -0.1273
  228YOPE   C3A 2865   1.626   8.249   9.718  0.0659  0.1060  0.2312
  228YOPE   C4A 2866   1.688   8.712   9.809 -0.1913 -0.4158  0.0739
  228YOPE   C1B 2867   0.872   7.515  10.128  0.2727  0.0771  0.1362
  228YOPE   C2B 2868   0.988   7.560   9.704 -0.0263 -0.5145  0.0955
  228YOPE   D3B 2869   1.239   7.480   9.361  0.2286 -0.1854 -0.4766
  228YOPE   C4B 2870   1.326   7.447   8.943  0.1112 -0.0690  0.0126
  229YOPE   NH3 2871   1.566   2.926  10.348 -0.0155 -0.0229  0.1323
  229YOPE   PO4 2872   1.768   3.366  10.396 -0.3485 -0.2746 -0.0025
  229YOPE   GL1 2873   1.625   3.432  10.016 -0.2258  0.0393 -0.1011
  229YOPE   GL2 2874   1.570   3.097   9.877  0.2016 -0.2506 -0.3549
  229YOPE   C1A 2875   1.535   3.538   9.512  0.1551  0.0214 -0.2708
  229YOPE   D2A 2876   1.554   3.768   9.243 -0.1641  0.0270 -0.0667
  229YOPE   C3A 2877   1.387   4.035   8.977  0.3066  0.1360 -0.1471
  229YOPE   C4A 2878   1.724   4.311   8.888  0.0847 -0.1160 -0.0901
  229YOPE   C1B 2879   1.505   3.049   9.466 -0.1155  0.1332  0.4664
  229YOPE   C2B 2880   1.493   3.141   9.085  0.0827  0.1080  0.2328
  229YOPE   D3B 2881   1.150   3.119   8.698 -0.0036  0.3143 -0.2973
  229YOPE   C4B 2882   0.908   2.867   8.382  0.0675 -0.2001 -0.2803
  230YOPE   NH3 2883   7.996  11.995  10.742 -0.0694  0.0215  0.0633
  230YOPE   PO4 2884   8.198  12.359  10.539  0.3206  0.1297  0.3198
  230YOPE   GL1 2885   8.276  12.247  10.089  0.0084 -0.0335  0.1564
  230YOPE   GL2 2886   8.072  12.370   9.985  0.1284  0.0046 -0.0029
  230YOPE   C1A 2887   8.545  12.145   9.733 -0.3453  0.0347  0.0018
  230YOPE   D2A 2888   8.445  12.183   9.276 -0.0073 -0.0359  0.0962
  230YOPE   C3A 2889   8.024  12.314   9.118 -0.2757  0.0093  0.0409
  230YOPE   C4A 2890   7.644  12.174   9.050 -0.2998  0.1550 -0.1780
  230YOPE   C1B 2891   8.026  12.428   9.591  0.0401 -0.0786 -0.1470
  230YOPE   C2B 2892   7.597  12.536   9.365  0.2194  0.0488 -0.1755
  230YOPE   D3B 2893   7.529  12.651   8.915  0.0780  0.0732 -0.4342
  230YOPE   C4B 2894   7.487  12.639   8.443 -0.0321 -0.1187  0.0207
  231YOPE   NH3 2895   7.996   5.786  10.502 -0.0415  0.1085 -0.1134
  231YOPE   PO4 2896   7.717   5.538  10.226  0.1830 -0.4003 -0.0507
  231YOPE   GL1 2897   7.561   5.728   9.945 -0.1839  0.1095  0.3287
  231YOPE   GL2 2898   7.754   6.043   9.774  0.3512 -0.0795  0.0577
  231YOPE   C1A 2899   7.372   5.801   9.549  0.1728  0.1216  0.0969
  231YOPE   D2A 2900   7.148   5.814   9.223 -0.0334 -0.2755  0.0295
  231YOPE   C3A 2901   7.325   5.955   8.937 -0.2124 -0.1251 -0.1088
  231YOPE   C4A 2902   7.506   6.015   8.526 -0.3711 -0.0432 -0.1179
  231YOPE   C1B 2903   7.767   6.045   9.283 -0.1004 -0.0082 -0.0001
  231YOPE   C2B 2904   8.019   6.053   8.924 -0.0262 -0.1314  0.2331
  231YOPE   D3B 2905   8.079   6.089   8.417  0.0548 -0.0880 -0.1224
  231YOPE   C4B 2906   8.541   6.162   8.188 -0.1157 -0.1949  0.1183
  232YOPE   NH3 2907   7.498  13.572  10.427 -0.1262  0.1249  0.1954
  232YOPE   PO4 2908   7.370  13.191  10.464  0.4525 -0.2453  0.1256
  232YOPE   GL1 2909   7.610  13.259  10.029  0.0858  0.2208  0.0390
  232YOPE   GL2 2910   7.958  13.257   9.967  0.0378  0.1122  0.0005
  232YOPE   C1A 2911   7.539  13.203   9.615  0.1291  0.0203  0.0030
  232YOPE   D2A 2912   7.313  13.133   9.215  0.0908 -0.0015  0.1296
  232YOPE   C3A 2913   7.499  13.128   8.767  0.0543 -0.0211 -0.0920
  232YOPE   C4A 2914   7.915  12.914   8.606  0.0965 -0.0828 -0.0864
  232YOPE   C1B 2915   8.020  13.502   9.635 -0.1690 -0.2082  0.3751
  232YOPE   C2B 2916   7.955  13.378   9.140  0.1387  0.1210  0.0969
  232YOPE   D3B 2917   8.112  13.405   8.767  0.1389 -0.0208 -0.2512
  232YOPE   C4B 2918   7.856  13.407   8.522  0.3026  0.1153  0.2031
  233YOPE   NH3 2919   1.286   6.477  10.880  0.0705 -0.1923  0.2992
  233YOPE   PO4 2920   1.044   6.079  10.861  0.0589  0.2425  0.0658
  233YOPE   GL1 2921   0.840   6.077  10.427  0.0116 -0.2074 -0.2461
  233YOPE   GL2 2922   0.778   5.765  10.155 -0.0615 -0.4085 -0.0913
  233YOPE   C1A 2923   0.671   6.264   9.970 -0.1526 -0.2318  0.2766
  233YOPE   D2A 2924   0.662   6.589   9.618 -0.0760  0.1065  0.0500
  233YOPE   C3A 2925   0.771   6.555   9.103  0.1972 -0.0734  0.2127
  233YOPE   C4A 2926   0.720   6.445   8.663  0.2745 -0.0236 -0.3544
  233YOPE   C1B 2927   0.949   5.820   9.718  0.0380  0.1594 -0.0794
  233YOPE   C2B 2928   1.315   5.854   9.442 -0.1584 -0.0831  0.4635
  233YOPE   D3B 2929   1.744   5.635   9.446 -0.2745 -0.0149 -0.0682
  233YOPE   C4B 2930   2.231   5.762   9.363  0.0878  0.0860 -0.0469
  234YOPE   NH3 2931  17.555  13.903  10.403 -0.1480  0.2524 -0.1317
  234YOPE   PO4 2932  17.844  14.070  10.197 -0.1661  0.0155 -0.0379
  234YOPE   GL1 2933  17.945  14.245   9.877 -0.1976 -0.1705 -0.0192
  234YOPE   GL2 2934  17.601  14.071   9.680  0.3059 -0.1921 -0.1228
  234YOPE   C1A 2935  17.963  14.567   9.614 -0.0706 -0.1303 -0.0406
  234YOPE   D2A 2936  17.903  14.818   9.338 -0.1425 -0.1366  0.2117
  234YOPE   C3A 2937  17.921  14.872   8.938 -0.2195 -0.0383  0.1202
  234YOPE   C4A 2938  18.114  14.984   8.637  0.1202 -0.2324  0.1925
  234YOPE   C1B 2939  17.355  14.100   9.350 -0.2331 -0.0549 -0.0921
  234YOPE   C2B 2940  17.246  14.050   8.925 -0.0382  0.3139 -0.0540
  234YOPE   D3B 2941  17.031  14.284   8.613 -0.0153 -0.0718 -0.2012
  234YOPE   C4B 2942  16.700  14.494   8.436 -0.2521  0.3071  0.0308
  235YOPE   NH3 2943   1.644  11.318  10.794 -0.0084 -0.0735 -0.1033
  235YOPE   PO4 2944   1.372  11.452  10.525  0.1552  0.1153  0.0723
  235YOPE   GL1 2945   1.354  11.554  10.093  0.0206 -0.2113 -0.2763
  235YOPE   GL2 2946   1.272  11.896  10.002 -0.0012  0.1990  0.2003
  235YOPE   C1A 2947   1.123  11.467   9.793 -0.0541 -0.0806  0.2917
  235YOPE   D2A 2948   1.092  11.182   9.464 -0.2901 -0.1300  0.1646
  235YOPE   C3A 2949   0.793  11.067   9.226  0.0467  0.1277  0.0291
  235YOPE   C4A 2950   0.619  10.646   9.165  0.0812  0.0428  0.0179
  235YOPE   C1B 2951   1.401  11.817   9.612 -0.1009 -0.0332 -0.1871
  235YOPE   C2B 2952   1.307  11.603   9.288 -0.0079 -0.3973  0.0069
  235YOPE   D3B 2953   1.233  11.283   8.992  0.1119 -0.2302 -0.0029
  235YOPE   C4B 2954   1.115  11.230   8.642  0.3613  0.1589  0.1449
  236YOPE   NH3 2955  14.754  13.476  10.210  0.1252 -0.0218 -0.0134
  236YOPE   PO4 2956  15.108  13.686  10.081 -0.4588 -0.2723 -0.1537
  236YOPE   GL1 2957  14.924  13.847   9.809  0.1649 -0.2558 -0.0187
  236YOPE   GL2 2958  14.823  14.138   9.806  0.2504 -0.1532 -0.0120
  236YOPE   C1A 2959  14.733  13.900   9.383  0.0055 -0.2320  0.1285
  236YOPE   D2A 2960  14.745  14.130   9.036  0.1328  0.1141 -0.0188
  236YOPE   C3A 2961  14.350  14.187   8.788 -0.0199 -0.1250  0.0786
  236YOPE   C4A 2962  13.968  14.069   8.999 -0.4966  0.4079  0.2027
  236YOPE   C1B 2963  15.121  14.256   9.437 -0.0901 -0.2637  0.0481
  236YOPE   C2B 2964  15.200  14.245   8.970 -0.2237  0.0683 -0.2659
  236YOPE   D3B 2965  15.201  14.397   8.628  0.2563  0.2244  0.0626
  236YOPE   C4B 2966  15.041  14.341   8.171  0.0487  0.1653 -0.0837
  237YOPE   NH3 2967  12.907  17.864   9.697  0.4166  0.0993  0.0474
  237YOPE   PO4 2968  13.158  17.512   9.765 -0.2674  0.0120 -0.0318
  237YOPE   GL1 2969  13.202  17.523   9.415  0.0534  0.5743  0.1969
  237YOPE   GL2 2970  13.370  17.302   9.251 -0.2938 -0.0446 -0.2057
  237YOPE   C1A 2971  13.161  17.722   9.017 -0.0260  0.0984  0.1306
  237YOPE   D2A 2972  13.154  17.708   8.595  0.0280  0.0234 -0.0053
  237YOPE   C3A 2973  12.961  17.727   8.225  0.0747 -0.1204 -0.2019
  237YOPE   C4A 2974  12.904  17.495   7.944 -0.3131  0.0267  0.0816
  237YOPE   C1B 2975  13.582  17.135   8.916  0.2335  0.1064 -0.1104
  237YOPE   C2B 2976  13.771  17.105   8.567  0.1355 -0.0995 -0.1112
  237YOPE   D3B 2977  13.695  17.013   8.119  0.0495 -0.0229  0.1081
  237YOPE   C4B 2978  13.871  17.024   7.733  0.2826  0.2712 -0.2914
  238YOPE   NH3 2979   1.126  10.189  10.418 -0.4089 -0.0615 -0.2386
  238YOPE   PO4 2980   1.493  10.079  10.436 -0.1890  0.0581  0.1148
  238YOPE   GL1 2981   1.289   9.735  10.246  0.0670 -0.1718 -0.0956
  238YOPE   GL2 2982   1.250   9.655   9.981  0.0275 -0.1077 -0.0711
  238YOPE   C1A 2983   0.943   9.469  10.325  0.2306  0.0277 -0.0381
  238YOPE   D2A 2984   0.585   9.195  10.191 -0.0118 -0.2464  0.2822
  238YOPE   C3A 2985   0.288   9.453  10.078 -0.4958  0.0049 -0.2001
  238YOPE   C4A 2986  -0.127   9.536   9.938 -0.3059 -0.2016 -0.3453
  238YOPE   C1B 2987   1.591   9.758   9.751 -0.0653  0.1625  0.0136
  238YOPE   C2B 2988   1.676   9.662   9.346  0.0576  0.1555  0.0226
  238YOPE   D3B 2989   1.788   9.736   8.967  0.0631  0.0698  0.0307
  238YOPE   C4B 2990   1.740  10.083   8.682  0.0378  0.0755 -0.2024
  239YOPE   NH3 2991   5.635   1.711  10.467  0.3121 -0.1815  0.0150
  239YOPE   PO4 2992   5.893   2.024  10.204 -0.0649 -0.1751 -0.2542
  239YOPE   GL1 2993   5.937   1.940   9.786 -0.0684 -0.3703  0.1027
  239YOPE   GL2 2994   5.935   1.643   9.621 -0.0631 -0.2439  0.4311
  239YOPE   C1A 2995   5.756   2.073   9.395  0.2378  0.0021  0.2753
  239YOPE   D2A 2996   5.741   1.997   8.947  0.0822 -0.0897 -0.1862
  239YOPE   C3A 2997   5.467   2.222   8.704  0.1235 -0.1154  0.2381
  239YOPE   C4A 2998   5.380   2.465   8.315 -0.0354  0.0137  0.1052
  239YOPE   C1B 2999   5.750   1.538   9.241 -0.0613  0.0286 -0.4156
  239YOPE   C2B 3000   5.693   1.499   8.770  0.2958 -0.0260  0.1902
  239YOPE   D3B 3001   5.505   1.771   8.504 -0.0188 -0.1298 -0.1315
  239YOPE   C4B 3002   5.794   2.179   8.330 -0.0943  0.1141  0.2029
  240YOPE   NH3 3003   0.084   4.095  10.501  0.1856  0.0796  0.1491
  240YOPE   PO4 3004   0.016   4.527  10.434 -0.0608  0.0058 -0.1787
  240YOPE   GL1 3005  -0.038   4.539   9.948  0.1397 -0.2258 -0.4353
  240YOPE   GL2 3006  -0.167   4.219  10.058  0.3103 -0.1415 -0.0907
  240YOPE   C1A 3007   0.175   4.673   9.605  0.2489 -0.2739  0.0727
  240YOPE   D2A 3008   0.276   4.891   9.168 -0.0910 -0.0639 -0.2526
  240YOPE   C3A 3009   0.582   5.185   9.102 -0.1138 -0.1247  0.0729
  240YOPE   C4A 3010   0.935   5.137   8.745 -0.0037 -0.1835 -0.2855
  240YOPE   C1B 3011  -0.326   3.950   9.697 -0.2353  0.2168 -0.2217
  240YOPE   C2B 3012  -0.116   3.969   9.312  0.0932  0.1199 -0.0144
  240YOPE   D3B 3013  -0.021   3.904   8.861 -0.0097 -0.0049  0.0523
  240YOPE   C4B 3014  -0.022   3.670   8.436 -0.0536  0.0819 -0.0244
  241YOPE   NH3 3015  12.462  16.817   9.822 -0.0230  0.0763 -0.0035
  241YOPE   PO4 3016  12.151  16.833   9.596 -0.2535  0.1709  0.1757
  241YOPE   GL1 3017  12.154  16.620   9.352  0.0976  0.1253  0.1614
  241YOPE   GL2 3018  12.430  16.558   9.073  0.0756 -0.1292  0.2603
  241YOPE   C1A 3019  11.939  16.721   9.013 -0.2038  0.0027 -0.1817
  241YOPE   D2A 3020  11.916  17.026   8.717  0.1051  0.0048 -0.0615
  241YOPE   C3A 3021  11.865  17.129   8.341 -0.0115  0.0817 -0.1337
  241YOPE   C4A 3022  11.843  16.927   7.856 -0.0170 -0.1171 -0.1402
  241YOPE   C1B 3023  12.324  16.730   8.693  0.0478 -0.2338 -0.0171
  241YOPE   C2B 3024  12.232  16.857   8.287 -0.0073 -0.0421  0.1589
  241YOPE   D3B 3025  12.236  17.239   7.903 -0.1695  0.0485 -0.0458
  241YOPE   C4B 3026  12.221  17.052   7.485  0.1831  0.0544  0.0728
  242YOPE   NH3 3027  14.841   9.207  10.660 -0.5182 -0.1899 -0.0053
  242YOPE   PO4 3028  15.114   9.598  10.605 -0.2606  0.0432 -0.1374
  242YOPE   GL1 3029  15.375   9.572  10.323 -0.1255 -0.3083 -0.2113
  242YOPE   GL2 3030  15.524   9.848  10.203 -0.4207 -0.1200 -0.0543
  242YOPE   C1A 3031  15.316   9.517   9.891  0.1004  0.1664 -0.3740
  242YOPE   D2A 3032  15.492   9.489   9.442 -0.2422 -0.3865  0.2624
  242YOPE   C3A 3033  15.328   9.336   9.111  0.0575 -0.1033 -0.1624
  242YOPE   C4A 3034  15.145   9.196   8.713  0.0328  0.0826  0.0906
  242YOPE   C1B 3035  15.005  10.090  10.085 -0.2163 -0.0600 -0.3443
  242YOPE   C2B 3036  15.129  10.244   9.645 -0.0078  0.1820  0.2469
  242YOPE   D3B 3037  15.199  10.316   9.221  0.0908 -0.0751  0.2128
  242YOPE   C4B 3038  15.153  10.522   8.828 -0.0242  0.0164  0.1809
  243YOPE   NH3 3039   7.489  15.027  10.343 -0.0010  0.0780  0.0609
  243YOPE   PO4 3040   7.174  14.790  10.182  0.1237 -0.1367 -0.0928
  243YOPE   GL1 3041   7.431  14.462  10.013 -0.1958  0.3894 -0.2567
  243YOPE   GL2 3042   7.342  14.210   9.923 -0.1411 -0.1244 -0.0989
  243YOPE   C1A 3043   7.724  14.415   9.657  0.0583 -0.0594 -0.0145
  243YOPE   D2A 3044   7.997  14.060   9.615  0.1346 -0.0282  0.0076
  243YOPE   C3A 3045   8.002  13.894   9.213 -0.3044  0.2529 -0.4533
  243YOPE   C4A 3046   8.193  13.904   8.772 -0.0221 -0.0562  0.4153
  243YOPE   C1B 3047   7.190  14.287   9.573 -0.0907 -0.0152  0.3480
  243YOPE   C2B 3048   7.323  14.303   9.199  0.2177  0.0884 -0.1319
  243YOPE   D3B 3049   7.203  14.085   8.858  0.0017 -0.0970 -0.0051
  243YOPE   C4B 3050   6.784  13.879   8.795 -0.0186 -0.2836 -0.0599
  244YOPE   NH3 3051   9.475   0.483   9.308  0.0685 -0.1705  0.1819
  244YOPE   PO4 3052   9.081   0.505   9.463  0.1593 -0.0392 -0.2588
  244YOPE   GL1 3053   8.963   0.660   9.068  0.1554 -0.0371 -0.2154
  244YOPE   GL2 3054   8.707   0.381   8.940 -0.1793 -0.2224  0.1579
  244YOPE   C1A 3055   9.115   0.662   8.670  0.0782  0.0008  0.0965
  244YOPE   D2A 3056   8.990   0.649   8.225 -0.1655  0.0886  0.1810
  244YOPE   C3A 3057   9.128   0.786   7.884  0.1652  0.0798  0.0500
  244YOPE   C4A 3058   9.155   0.997   7.502  0.0315 -0.0317 -0.0385
  244YOPE   C1B 3059   8.739   0.303   8.527 -0.2502 -0.1256  0.0497
  244YOPE   C2B 3060   8.705   0.018   8.039  0.1318 -0.0589  0.0790
  244YOPE   D3B 3061   8.808   0.133   7.709  0.1185  0.4972 -0.0537
  244YOPE   C4B 3062   8.657   0.392   7.440 -0.1833 -0.0241  0.2241
  245YOPE   NH3 3063   5.063   7.073  10.464 -0.0321  0.0053  0.0279
  245YOPE   PO4 3064   4.776   6.688  10.618 -0.1511 -0.0857 -0.0256
  245YOPE   GL1 3065   4.824   6.531  10.171 -0.1924 -0.0165 -0.1635
  245YOPE   GL2 3066   4.938   6.731   9.920  0.0366  0.2521 -0.0433
  245YOPE   C1A 3067   4.823   6.103   9.929 -0.0504 -0.0449  0.1416
  245YOPE   D2A 3068   5.004   5.991   9.719  0.0366 -0.0901 -0.2528
  245YOPE   C3A 3069   4.900   6.044   9.327  0.1865  0.3075  0.1022
  245YOPE   C4A 3070   5.034   5.784   9.067 -0.1709 -0.2840 -0.0239
  245YOPE   C1B 3071   4.809   6.505   9.591  0.2469  0.0005  0.0166
  245YOPE   C2B 3072   4.878   6.520   9.221  0.1875 -0.1956  0.1040
  245YOPE   D3B 3073   4.734   6.273   8.760  0.0657 -0.2589 -0.1484
  245YOPE   C4B 3074   4.348   6.190   8.612 -0.0210 -0.3064 -0.1176
  246YOPE   NH3 3075  10.256  12.516  10.754 -0.1363  0.4179 -0.2391
  246YOPE   PO4 3076  10.461  12.661  10.461  0.2599 -0.0042 -0.1269
  246YOPE   GL1 3077  10.356  12.864   9.955  0.2422  0.2182 -0.1612
  246YOPE   GL2 3078  10.019  12.895   9.892 -0.0166  0.0527 -0.1483
  246YOPE   C1A 3079  10.383  12.842   9.534  0.0801  0.4120 -0.3336
  246YOPE   D2A 3080  10.579  12.781   9.111  0.1407 -0.0658  0.3062
  246YOPE   C3A 3081  10.312  12.862   8.791  0.0790 -0.2849 -0.1803
  246YOPE   C4A 3082   9.877  12.972   8.810  0.0087  0.1382  0.0360
  246YOPE   C1B 3083   9.925  12.828   9.437  0.0775  0.1209  0.0463
  246YOPE   C2B 3084   9.981  12.563   9.162 -0.0735  0.1187 -0.2773
  246YOPE   D3B 3085  10.217  12.351   8.811  0.3446  0.2302 -0.0837
  246YOPE   C4B 3086  10.642  12.410   8.738 -0.0492  0.1212  0.0451
  247YOPE   NH3 3087  15.452  16.686  10.214 -0.0033 -0.2030  0.5534
  247YOPE   PO4 3088  15.193  16.858   9.876  0.1598  0.0107 -0.3990
  247YOPE   GL1 3089  15.153  16.714   9.541  0.1203  0.1404 -0.1246
  247YOPE   GL2 3090  14.926  16.871   9.384  0.2225 -0.3001 -0.2609
  247YOPE   C1A 3091  15.174  16.516   9.097  0.0918 -0.1946  0.0829
  247YOPE   D2A 3092  15.230  16.593   8.730 -0.1370 -0.1180 -0.1401
  247YOPE   C3A 3093  15.070  16.498   8.368 -0.1077 -0.0853  0.0785
  247YOPE   C4A 3094  15.013  16.435   7.941 -0.0729  0.2505  0.2341
  247YOPE   C1B 3095  15.046  17.165   9.107  0.2618 -0.1930  0.0737
  247YOPE   C2B 3096  14.863  17.449   8.863 -0.2431 -0.0223 -0.2231
  247YOPE   D3B 3097  14.947  17.496   8.395 -0.0021 -0.1677 -0.2102
  247YOPE   C4B 3098  14.960  17.444   8.004 -0.0768 -0.0721 -0.1404
  248YOPE   NH3 3099   2.094  11.074  10.818 -0.2770  0.1150  0.0848
  248YOPE   PO4 3100   1.821  10.898  10.616 -0.0695  0.0788 -0.1671
  248YOPE   GL1 3101   1.880  10.901  10.211 -0.1820  0.0780  0.0672
  248YOPE   GL2 3102   2.157  11.017  10.035  0.0180  0.0301 -0.4059
  248YOPE   C1A 3103   1.811  10.630   9.849 -0.3712  0.2142 -0.2711
  248YOPE   D2A 3104   2.140  10.466   9.499  0.1745 -0.1817 -0.0430
  248YOPE   C3A 3105   2.497  10.265   9.733 -0.1295  0.0236 -0.0455
  248YOPE   C4A 3106   2.888  10.118   9.613 -0.1580 -0.0961  0.0470
  248YOPE   C1B 3107   2.098  10.998   9.608  0.1634 -0.1029  0.2924
  248YOPE   C2B 3108   2.028  10.920   9.175  0.1835  0.0527  0.1885
  248YOPE   D3B 3109   2.013  11.176   8.810 -0.1695 -0.1039  0.0035
  248YOPE   C4B 3110   2.214  11.058   8.415 -0.1292  0.0699  0.0323
  249YOPE   NH3 3111   3.042   0.270  10.138  0.0107  0.1550  0.0335
  249YOPE   PO4 3112   3.146   0.564   9.970 -0.0453  0.1446  0.2411
  249YOPE   GL1 3113   3.282   0.511   9.589 -0.1379 -0.0466  0.3888
  249YOPE   GL2 3114   3.327   0.874   9.513  0.1228  0.0627  0.2665
  249YOPE   C1A 3115   3.552   0.291   9.324  0.1146  0.2504  0.1053
  249YOPE   D2A 3116   3.612   0.368   8.911  0.1580  0.0410  0.0806
  249YOPE   C3A 3117   3.280   0.587   8.665 -0.0992 -0.0149 -0.1597
  249YOPE   C4A 3118   2.976   0.436   8.337  0.0833  0.1441 -0.0080
  249YOPE   C1B 3119   3.498   0.831   9.190  0.1486  0.2301  0.0836
  249YOPE   C2B 3120   3.527   0.991   8.774  0.3694 -0.0798 -0.2444
  249YOPE   D3B 3121   3.775   0.664   8.503  0.0483  0.1779  0.0932
  249YOPE   C4B 3122   3.666   0.257   8.406 -0.0886 -0.4834  0.0304
  250YOPE   NH3 3123  16.584   2.804  11.201  0.0506 -0.1038  0.1252
  250YOPE   PO4 3124  16.553   2.818  10.690  0.1376 -0.0225  0.3512
  250YOPE   GL1 3125  16.543   2.821  10.305 -0.0650  0.3201  0.1036
  250YOPE   GL2 3126  16.627   2.614  10.139  0.2248 -0.0236 -0.0976
  250YOPE   C1A 3127  17.019   2.893   9.979  0.3168  0.0224  0.2172
  250YOPE   D2A 3128  17.206   2.681   9.673  0.0524  0.3502 -0.0434
  250YOPE   C3A 3129  17.125   2.569   9.237  0.1473 -0.0436 -0.0197
  250YOPE   C4A 3130  17.191   2.591   8.813  0.1423 -0.0148  0.0540
  250YOPE   C1B 3131  16.587   2.708   9.711 -0.3141  0.3142  0.1428
  250YOPE   C2B 3132  16.808   2.915   9.436 -0.0894  0.1907  0.0671
  250YOPE   D3B 3133  16.819   2.956   8.958 -0.1474 -0.2160  0.3698
  250YOPE   C4B 3134  17.044   3.041   8.513  0.0063 -0.1144 -0.2441
  251YOPE   NH3 3135   8.498  17.752   9.359 -0.0118 -0.1948 -0.4156
  251YOPE   PO4 3136   8.145  18.005   9.489  0.3271  0.0495  0.0697
  251YOPE   GL1 3137   7.975  17.704   9.212  0.1993 -0.1585 -0.0926
  251YOPE   GL2 3138   8.140  17.397   9.216 -0.0751 -0.2463 -0.0946
  251YOPE   C1A 3139   7.776  17.566   8.867 -0.2557 -0.2794  0.0180
  251YOPE   D2A 3140   7.623  17.483   8.495 -0.1030  0.3239  0.1378
  251YOPE   C3A 3141   7.755  17.733   8.049 -0.2978  0.0902 -0.0165
  251YOPE   C4A 3142   7.932  18.044   7.684 -0.3101 -0.1022  0.1481
  251YOPE   C1B 3143   8.058  17.098   8.880 -0.2636  0.0062 -0.0021
  251YOPE   C2B 3144   8.049  17.149   8.371 -0.1829 -0.0513  0.1369
  251YOPE   D3B 3145   7.800  17.244   8.050  0.1144 -0.0439  0.0668
  251YOPE   C4B 3146   7.594  17.341   7.671  0.3311 -0.2526 -0.1764
  252YOPE   NH3 3147   1.418  16.753  10.140  0.2639  0.1784 -0.3297
  252YOPE   PO4 3148   1.417  17.149  10.021  0.1706  0.2401 -0.2474
  252YOPE   GL1 3149   1.369  17.116   9.574 -0.1058 -0.0559 -0.1807
  252YOPE   GL2 3150   1.636  16.973   9.570 -0.2217 -0.2607  0.1077
  252YOPE   C1A 3151   1.220  17.283   9.171  0.2698  0.3056 -0.2858
  252YOPE   D2A 3152   0.976  17.370   8.748  0.0835  0.1497  0.0253
  252YOPE   C3A 3153   0.642  17.087   8.598  0.0425 -0.1120  0.1884
  252YOPE   C4A 3154   0.595  16.924   8.189 -0.0706  0.0189 -0.1360
  252YOPE   C1B 3155   1.801  17.028   9.202  0.4358 -0.1678 -0.1626
  252YOPE   C2B 3156   1.937  16.918   8.772 -0.0136 -0.4107 -0.1705
  252YOPE   D3B 3157   1.778  16.608   8.514  0.0327 -0.1571 -0.0256
  252YOPE   C4B 3158   1.656  16.378   8.156  0.2298  0.5184 -0.0772
  253YOPE   NH3 3159   4.687  11.501  10.518 -0.2023 -0.0720  0.0738
  253YOPE   PO4 3160   5.155  11.621  10.432 -0.2551 -0.2282  0.2267
  253YOPE   GL1 3161   4.914  11.350  10.054  0.1872  0.0059 -0.0171
  253YOPE   GL2 3162   4.610  11.194  10.081 -0.2356 -0.1284  0.0545
  253YOPE   C1A 3163   4.869  11.067   9.673  0.1205  0.1920 -0.0834
  253YOPE   D2A 3164   4.835  10.864   9.317 -0.1289  0.0220 -0.1435
  253YOPE   C3A 3165   4.730  10.828   8.986 -0.3907  0.2345  0.0483
  253YOPE   C4A 3166   4.781  10.382   8.772 -0.0855 -0.1119  0.1937
  253YOPE   C1B 3167   4.412  10.935   9.800  0.0135 -0.1243 -0.0533
  253YOPE   C2B 3168   4.326  10.853   9.309  0.0716 -0.1198  0.0799
  253YOPE   D3B 3169   4.252  10.677   8.916 -0.2508  0.2015  0.4680
  253YOPE   C4B 3170   4.158  10.645   8.484 -0.4135 -0.0352 -0.1964
  254YOPE   NH3 3171  17.320   8.364  10.568  0.2510  0.0886 -0.2237
  254YOPE   PO4 3172  16.891   8.249  10.497 -0.2400  0.0557 -0.3135
  254YOPE   GL1 3173  16.996   8.181  10.194 -0.1439 -0.1490  0.1055
  254YOPE   GL2 3174  16.934   7.793  10.123  0.0628 -0.1624 -0.0991
  254YOPE   C1A 3175  17.100   8.272   9.815  0.0935 -0.1013 -0.0475
  254YOPE   D2A 3176  16.910   8.313   9.411 -0.0154  0.0976 -0.0310
  254YOPE   C3A 3177  16.884   8.421   8.966  0.1046  0.3308  0.0901
  254YOPE   C4A 3178  16.723   8.684   8.716 -0.0452 -0.3273 -0.0199
  254YOPE   C1B 3179  16.752   7.877   9.735 -0.1552 -0.3331 -0.2923
  254YOPE   C2B 3180  16.793   7.841   9.309  0.1803  0.1303 -0.0738
  254YOPE   D3B 3181  16.865   7.868   8.917 -0.0486 -0.0254 -0.2046
  254YOPE   C4B 3182  17.204   7.780   8.686 -0.1569  0.2662  0.0907
  255YOPE   NH3 3183   0.402  10.440  10.185  0.1608  0.0088  0.2208
  255YOPE   PO4 3184   0.672  10.268  10.450  0.0177  0.1945 -0.1915
  255YOPE   GL1 3185   0.753   9.968  10.186  0.1809  0.1621  0.1224
  255YOPE   GL2 3186   0.874  10.070   9.921 -0.0101  0.0969 -0.0175
  255YOPE   C1A 3187   0.779   9.628   9.881 -0.0092 -0.1672  0.0024
  255YOPE   D2A 3188   0.581   9.335   9.682 -0.2386  0.2263 -0.0592
  255YOPE   C3A 3189   0.498   9.257   9.222  0.2427  0.1769  0.3691
  255YOPE   C4A 3190   0.454   9.301   8.770  0.2071  0.1628  0.1038
  255YOPE   C1B 3191   1.120   9.837   9.506 -0.1655  0.1417  0.0597
  255YOPE   C2B 3192   1.273   9.821   9.137  0.1538  0.1729  0.0375
  255YOPE   D3B 3193   1.440   9.354   9.014  0.0543 -0.2194 -0.2443
  255YOPE   C4B 3194   1.248   8.992   8.843 -0.2347  0.0209  0.3534
  256YOPE   NH3 3195   9.882  15.430   9.997  0.3413  0.2626 -0.0471
  256YOPE   PO4 3196   9.964  15.824   9.988  0.0911 -0.1421  0.0698
  256YOPE   GL1 3197   9.993  15.791   9.593  0.0247 -0.1386  0.1496
  256YOPE   GL2 3198  10.231  16.053   9.433  0.0103  0.0555 -0.1723
  256YOPE   C1A 3199   9.872  15.697   9.202  0.0868 -0.1359  0.0609
  256YOPE   D2A 3200   9.731  15.574   8.753 -0.1034 -0.1399 -0.2232
  256YOPE   C3A 3201   9.561  15.239   8.574 -0.0398  0.1309 -0.1864
  256YOPE   C4A 3202   9.663  15.047   8.221  0.1214 -0.2285 -0.3258
  256YOPE   C1B 3203  10.101  16.065   8.935 -0.2351 -0.0486  0.1287
  256YOPE   C2B 3204  10.090  16.106   8.550 -0.0687 -0.1077  0.1029
  256YOPE   D3B 3205   9.724  16.139   8.405 -0.1283 -0.0914 -0.0132
  256YOPE   C4B 3206   9.472  15.905   8.100 -0.1102  0.1896  0.1763
  257YOPE   NH3 3207  17.657  12.876  10.400  0.0844  0.0280 -0.0772
  257YOPE   PO4 3208  17.232  13.081  10.283  0.1542 -0.2621  0.0712
  257YOPE   GL1 3209  17.419  12.880   9.919  0.0238 -0.0344  0.1225
  257YOPE   GL2 3210  17.304  12.558  10.003  0.1914 -0.3866  0.1920
  257YOPE   C1A 3211  17.557  12.862   9.595  0.1258  0.4100  0.0269
  257YOPE   D2A 3212  17.622  12.685   9.343  0.2655 -0.1130 -0.1187
  257YOPE   C3A 3213  17.730  12.779   8.979 -0.0483 -0.0190 -0.2073
  257YOPE   C4A 3214  17.694  12.838   8.513  0.0530  0.0084 -0.0774
  257YOPE   C1B 3215  17.477  12.279   9.633 -0.1296  0.2877 -0.2882
  257YOPE   C2B 3216  17.490  12.189   9.233 -0.2443  0.3959  0.0315
  257YOPE   D3B 3217  17.671  12.208   8.841  0.0234  0.2795 -0.1567
  257YOPE   C4B 3218  17.933  12.444   8.614 -0.3454  0.1121  0.0178
  258YOPE   NH3 3219   2.538  16.787   9.944 -0.0057  0.0272 -0.3586
  258YOPE   PO4 3220   2.339  17.155  10.072 -0.1892 -0.1015  0.0729
  258YOPE   GL1 3221   2.224  17.068   9.609 -0.2628 -0.1222  0.1397
  258YOPE   GL2 3222   2.096  16.760   9.633  0.0628  0.2082  0.1401
  258YOPE   C1A 3223   2.314  17.068   9.097 -0.1004  0.2590 -0.0972
  258YOPE   D2A 3224   2.398  17.068   8.622  0.1022  0.1588  0.1691
  258YOPE   C3A 3225   2.196  16.824   8.273 -0.0756 -0.0937  0.1187
  258YOPE   C4A 3226   2.104  16.794   7.740  0.1936  0.0953  0.0984
  258YOPE   C1B 3227   2.264  16.542   9.292 -0.0610  0.0109 -0.1009
  258YOPE   C2B 3228   2.336  16.527   8.821 -0.0991  0.2307 -0.0096
  258YOPE   D3B 3229   2.216  16.321   8.372  0.1182  0.0063  0.2742
  258YOPE   C4B 3230   2.124  16.337   7.863  0.0485  0.3507  0.0253
  259YOPE   NH3 3231  10.351   8.753  10.639 -0.0417  0.2422  0.2168
  259YOPE   PO4 3232  10.165   9.066  10.665  0.0160  0.0807  0.1712
  259YOPE   GL1 3233  10.201   9.036  10.228  0.3103 -0.0291  0.1494
  259YOPE   GL2 3234   9.790   8.945  10.286  0.1897  0.0572  0.0557
  259YOPE   C1A 3235  10.434   8.975   9.958  0.0559  0.3181 -0.1374
  259YOPE   D2A 3236  10.658   9.195   9.632 -0.1600 -0.1700 -0.1161
  259YOPE   C3A 3237  10.715   9.049   9.191 -0.3788  0.0723 -0.0912
  259YOPE   C4A 3238  10.626   9.044   8.789  0.0555 -0.2592  0.0241
  259YOPE   C1B 3239   9.901   9.025   9.849 -0.0083  0.0505  0.1092
  259YOPE   C2B 3240  10.155   9.039   9.532 -0.0344  0.0373  0.1372
  259YOPE   D3B 3241  10.239   9.209   9.116  0.0990  0.4566 -0.2782
  259YOPE   C4B 3242  10.187   9.492   8.819  0.1990  0.1785 -0.0042
  260YOPE   NH3 3243  14.533   1.413  10.293 -0.0169  0.1788 -0.1726
  260YOPE   PO4 3244  14.825   1.460  10.052 -0.0474  0.0150 -0.2981
  260YOPE   GL1 3245  14.822   1.567   9.604 -0.0559  0.0764 -0.3011
  260YOPE   GL2 3246  14.554   1.441   9.399  0.1122  0.0405  0.1684
  260YOPE   C1A 3247  14.747   1.906   9.369 -0.1886 -0.1143  0.1259
  260YOPE   D2A 3248  14.574   2.223   9.421  0.0817  0.3233  0.3285
  260YOPE   C3A 3249  14.874   2.610   9.391 -0.1143 -0.1742  0.1896
  260YOPE   C4A 3250  15.058   2.721   8.982 -0.1885 -0.0763 -0.0690
  260YOPE   C1B 3251  14.648   1.490   8.943 -0.3909 -0.1901  0.0325
  260YOPE   C2B 3252  14.598   1.540   8.585  0.0010  0.2802 -0.2246
  260YOPE   D3B 3253  14.565   1.603   8.195  0.1350  0.2689  0.0912
  260YOPE   C4B 3254  14.663   1.333   7.814 -0.0434  0.2034  0.1999
  261YOPE   NH3 3255   1.219   3.498  10.287  0.4761 -0.0508  0.0470
  261YOPE   PO4 3256   0.712   3.471  10.176 -0.0031  0.2724  0.1175
  261YOPE   GL1 3257   0.507   3.435   9.776 -0.0636  0.0473 -0.0120
  261YOPE   GL2 3258   0.185   3.240   9.833  0.1031 -0.1498 -0.1273
  261YOPE   C1A 3259   0.485   3.310   9.344  0.1429  0.2538 -0.0516
  261YOPE   D2A 3260   0.591   3.148   9.003 -0.3151  0.1617 -0.1971
  261YOPE   C3A 3261   0.293   3.118   8.693 -0.2358 -0.1174  0.1068
  261YOPE   C4A 3262  -0.056   3.114   8.445 -0.1215 -0.0758 -0.0191
  261YOPE   C1B 3263   0.064   3.109   9.455 -0.1437 -0.1462  0.0950
  261YOPE   C2B 3264  -0.000   2.976   9.073  0.0007  0.0760  0.2189
  261YOPE   D3B 3265  -0.067   2.669   8.717  0.0511  0.0713  0.2466
  261YOPE   C4B 3266  -0.039   2.327   8.464 -0.0474  0.3762  0.3659
  262YOPE   NH3 3267  10.395   2.748   9.985 -0.2172 -0.0300 -0.1006
  262YOPE   PO4 3268  10.220   3.244  10.006 -0.2641  0.1026 -0.2028
  262YOPE   GL1 3269  10.243   3.470   9.621 -0.0712  0.1565  0.0450
  262YOPE   GL2 3270  10.038   3.488   9.396 -0.0396 -0.3147 -0.0370
  262YOPE   C1A 3271  10.485   3.385   9.208  0.2160 -0.0511 -0.0787
  262YOPE   D2A 3272  10.391   3.472   8.826  0.1178  0.1049 -0.0307
  262YOPE   C3A 3273  10.571   3.429   8.491 -0.2618 -0.2026 -0.0658
  262YOPE   C4A 3274  10.517   3.310   8.066 -0.1105 -0.0859  0.1789
  262YOPE   C1B 3275   9.904   3.657   9.031  0.2006  0.0492 -0.0962
  262YOPE   C2B 3276   9.608   3.826   8.895  0.2892  0.0369 -0.4031
  262YOPE   D3B 3277   9.391   4.151   8.628  0.1594 -0.0281  0.2634
  262YOPE   C4B 3278   9.369   4.311   8.229 -0.1718  0.1071 -0.1122
  263YOPE   NH3 3279   3.550  17.289  10.144 -0.0599 -0.1106  0.1560
  263YOPE   PO4 3280   3.590  16.892  10.024 -0.0379  0.1102  0.0632
  263YOPE   GL1 3281   3.604  16.955   9.650 -0.1029 -0.0184  0.1715
  263YOPE   GL2 3282   3.284  17.090   9.502  0.1510  0.1246  0.1240
  263YOPE   C1A 3283   3.871  17.069   9.324 -0.2225  0.0175 -0.0741
  263YOPE   D2A 3284   3.905  17.191   8.965  0.1738 -0.2747  0.2068
  263YOPE   C3A 3285   3.994  17.107   8.662  0.1233 -0.3647  0.1732
  263YOPE   C4A 3286   4.019  17.121   8.213 -0.3040  0.1369  0.2654
  263YOPE   C1B 3287   3.447  16.878   9.173  0.2729  0.1742  0.0818
  263YOPE   C2B 3288   3.481  16.981   8.779  0.1141  0.1575  0.0228
  263YOPE   D3B 3289   3.577  17.279   8.453 -0.1005 -0.3330 -0.0301
  263YOPE   C4B 3290   3.996  17.590   8.461 -0.0394 -0.2494  0.2502
  264YOPE   NH3 3291   3.206  10.867  10.524  0.0218  0.0374  0.2878
  264YOPE   PO4 3292   3.245  10.392  10.522  0.0142  0.1595  0.0787
  264YOPE   GL1 3293   3.283  10.555  10.070 -0.2290  0.0716  0.2613
  264YOPE   GL2 3294   3.479  10.881   9.988 -0.0215 -0.1057  0.1496
  264YOPE   C1A 3295   3.000  10.569   9.606  0.1101 -0.0604 -0.2863
  264YOPE   D2A 3296   2.964  10.402   9.179 -0.0492 -0.0416 -0.1477
  264YOPE   C3A 3297   2.757  10.529   8.755 -0.4951  0.1945 -0.0483
  264YOPE   C4A 3298   2.378  10.521   8.464  0.0894 -0.0061 -0.1448
  264YOPE   C1B 3299   3.421  10.869   9.575 -0.1143 -0.0023  0.0690
  264YOPE   C2B 3300   3.417  10.635   9.246 -0.0204 -0.0536  0.2968
  264YOPE   D3B 3301   3.222  10.691   8.812  0.0781  0.1574  0.0546
  264YOPE   C4B 3302   3.115  10.585   8.407  0.0596 -0.2206  0.1750
  265YOPE   NH3 3303  16.393  11.970  10.428 -0.0065 -0.1488  0.0120
  265YOPE   PO4 3304  16.843  11.883  10.537 -0.2284  0.0517  0.3045
  265YOPE   GL1 3305  16.760  11.868  10.072  0.1203  0.0006 -0.0799
  265YOPE   GL2 3306  16.908  12.153  10.049  0.2196  0.1272  0.2735
  265YOPE   C1A 3307  16.737  11.663   9.591  0.0835 -0.2483 -0.0409
  265YOPE   D2A 3308  16.519  11.484   9.282 -0.2730 -0.0868  0.0423
  265YOPE   C3A 3309  16.494  11.579   8.913 -0.2313  0.2284  0.2360
  265YOPE   C4A 3310  16.689  11.884   8.741 -0.1299 -0.2423  0.0542
  265YOPE   C1B 3311  16.956  12.201   9.606 -0.0639 -0.0051 -0.1526
  265YOPE   C2B 3312  16.918  12.013   9.272 -0.0138  0.0293  0.1776
  265YOPE   D3B 3313  17.184  12.098   8.835  0.0202  0.1081 -0.0966
  265YOPE   C4B 3314  17.003  11.973   8.345  0.2262 -0.1280 -0.2120
  266YOPE   NH3 3315   1.656  13.869  10.230 -0.1950  0.2432 -0.0556
  266YOPE   PO4 3316   1.506  14.189  10.313  0.0123  0.0401  0.5824
  266YOPE   GL1 3317   1.579  14.386   9.919 -0.2917 -0.1130 -0.1956
  266YOPE   GL2 3318   1.898  14.641   9.870  0.1411 -0.4402 -0.1796
  266YOPE   C1A 3319   1.524  14.420   9.472 -0.0124  0.0742  0.0424
  266YOPE   D2A 3320   1.503  14.285   9.021  0.2912 -0.2248  0.1319
  266YOPE   C3A 3321   1.248  14.380   8.700 -0.0202 -0.0987  0.3063
  266YOPE   C4A 3322   1.076  14.352   8.336  0.2093 -0.0585 -0.2655
  266YOPE   C1B 3323   1.964  14.701   9.410 -0.3051 -0.0939 -0.0992
  266YOPE   C2B 3324   1.904  14.692   8.987  0.2261 -0.1238 -0.2202
  266YOPE   D3B 3325   1.855  14.483   8.621 -0.0052 -0.2441 -0.2945
  266YOPE   C4B 3326   1.556  14.563   8.347  0.1865  0.0278  0.1826
  267YOPE   NH3 3327   5.616   5.682  10.471 -0.1335  0.1468  0.1362
  267YOPE   PO4 3328   5.649   6.076  10.664 -0.2620 -0.0325 -0.0501
  267YOPE   GL1 3329   5.798   6.250  10.310  0.0018 -0.0760 -0.0347
  267YOPE   GL2 3330   6.017   5.947  10.148  0.1457  0.0753  0.0603
  267YOPE   C1A 3331   5.756   6.552  10.040  0.2131 -0.1057  0.1224
  267YOPE   D2A 3332   5.847   6.538   9.592  0.0600 -0.0317  0.1063
  267YOPE   C3A 3333   5.762   6.693   9.263 -0.1256 -0.2205 -0.0475
  267YOPE   C4A 3334   5.883   6.779   8.901 -0.0902 -0.2278 -0.0827
  267YOPE   C1B 3335   5.990   6.104   9.786  0.2315  0.0850 -0.0246
  267YOPE   C2B 3336   6.316   6.051   9.481  0.0102  0.0273  0.3816
  267YOPE   D3B 3337   6.417   5.962   9.174 -0.3711 -0.0001  0.0241
  267YOPE   C4B 3338   6.486   6.102   8.754  0.0060  0.0084 -0.2759
  268POPC   NC3 3339   7.363  16.167  10.279  0.1596 -0.0333  0.1040
  268POPC   PO4 3340   7.326  15.910   9.929 -0.0387  0.1297  0.1808
  268POPC   GL1 3341   7.152  15.731   9.699 -0.0280  0.3426  0.2141
  268POPC   GL2 3342   6.935  15.636   9.753  0.2168  0.0702  0.0003
  268POPC   C1A 3343   7.120  15.747   9.234 -0.2469 -0.2603  0.1323
  268POPC   D2A 3344   7.396  15.764   9.014  0.0388  0.0132 -0.0816
  268POPC   C3A 3345   7.319  15.549   8.611  0.1697  0.0732  0.0749
  268POPC   C4A 3346   7.308  15.648   8.252 -0.2774 -0.1316 -0.0711
  268POPC   C1B 3347   7.167  15.280   9.474  0.1117 -0.1005 -0.0668
  268POPC   C2B 3348   7.101  15.190   9.117 -0.1662  0.0407 -0.2196
  268POPC   C3B 3349   7.171  15.083   8.708  0.1263 -0.1460 -0.2112
  268POPC   C4B 3350   7.264  14.955   8.315  0.0466  0.0435 -0.1422
  269POPC   NC3 3351  16.400   1.712  10.091  0.1284  0.0996 -0.1339
  269POPC   PO4 3352  16.041   1.750  10.127  0.0017  0.0256 -0.1318
  269POPC   GL1 3353  15.738   1.760   9.926 -0.0205 -0.1196 -0.1879
  269POPC   GL2 3354  15.401   1.790   9.949 -0.1857  0.1800  0.0609
  269POPC   C1A 3355  15.732   1.712   9.405  0.0949  0.1802 -0.3002
  269POPC   D2A 3356  16.081   1.846   9.108  0.1574 -0.0469 -0.2170
  269POPC   C3A 3357  16.001   1.857   8.729 -0.1640  0.2849 -0.0684
  269POPC   C4A 3358  15.904   1.889   8.347 -0.0906  0.0567  0.4267
  269POPC   C1B 3359  15.161   1.961   9.616 -0.0279 -0.1197 -0.0933
  269POPC   C2B 3360  15.132   2.224   9.257  0.0828  0.0424  0.0132
  269POPC   C3B 3361  15.090   2.272   8.800  0.0741  0.0842  0.3734
  269POPC   C4B 3362  15.176   2.512   8.424  0.2290  0.1221  0.1509
  270POPC   NC3 3363   0.576  15.776  10.975  0.0203  0.1096 -0.2011
  270POPC   PO4 3364   0.480  15.712  10.503  0.0980 -0.0278  0.0458
  270POPC   GL1 3365   0.565  15.641  10.028 -0.4528 -0.0536 -0.3749
  270POPC   GL2 3366   0.293  15.700  10.009  0.0647 -0.1376 -0.1328
  270POPC   C1A 3367   0.795  15.775   9.627  0.1454  0.1009  0.1224
  270POPC   D2A 3368   0.787  15.683   9.213  0.0523 -0.1342  0.0315
  270POPC   C3A 3369   0.460  15.976   8.900  0.1921  0.1384  0.1534
  270POPC   C4A 3370   0.182  15.948   8.628 -0.1533  0.1611  0.0093
  270POPC   C1B 3371   0.337  15.493   9.612 -0.0805  0.0712  0.1191
  270POPC   C2B 3372   0.249  15.601   9.200  0.0485 -0.1115 -0.0232
  270POPC   C3B 3373   0.228  15.490   8.778  0.1332 -0.1942  0.0691
  270POPC   C4B 3374   0.422  15.591   8.457  0.3601  0.2409 -0.0629
  271POPC   NC3 3375   2.797   0.942  10.465 -0.0239 -0.0869  0.1185
  271POPC   PO4 3376   2.733   0.597  10.386 -0.1474 -0.1242 -0.1173
  271POPC   GL1 3377   2.642   0.664   9.976 -0.2242 -0.1144  0.3024
  271POPC   GL2 3378   2.785   0.967   9.981 -0.1608 -0.0760 -0.2564
  271POPC   C1A 3379   2.417   0.401   9.580 -0.0071  0.1569 -0.0854
  271POPC   D2A 3380   2.526   0.487   9.167 -0.1398  0.1876 -0.0942
  271POPC   C3A 3381   2.257   0.777   8.934  0.0808 -0.2415  0.0653
  271POPC   C4A 3382   2.241   0.777   8.506 -0.1272 -0.0610 -0.1608
  271POPC   C1B 3383   2.747   1.216   9.575  0.1085  0.3122  0.2531
  271POPC   C2B 3384   2.681   1.140   9.177  0.0021 -0.1132  0.2151
  271POPC   C3B 3385   2.570   1.151   8.755 -0.0996 -0.0356 -0.1815
  271POPC   C4B 3386   2.316   1.647   8.667 -0.0242 -0.2657  0.3611
  272POPC   NC3 3387   4.689   1.339  10.325  0.1807  0.0910 -0.2239
  272POPC   PO4 3388   4.187   1.380  10.254  0.1609 -0.0834  0.0875
  272POPC   GL1 3389   3.934   1.573   9.922  0.0974 -0.3727 -0.4268
  272POPC   GL2 3390   3.781   1.834   9.958  0.1871 -0.0254  0.2105
  272POPC   C1A 3391   3.981   1.666   9.544  0.0194  0.0051  0.0887
  272POPC   D2A 3392   4.299   1.838   9.389 -0.0115  0.3793  0.1218
  272POPC   C3A 3393   4.524   2.103   9.695 -0.1641  0.2293  0.0390
  272POPC   C4A 3394   4.940   2.032   9.827  0.0227  0.2939  0.2834
  272POPC   C1B 3395   3.999   2.152   9.820  0.0626 -0.0156  0.2060
  272POPC   C2B 3396   3.907   2.211   9.440 -0.2169 -0.2286 -0.0615
  272POPC   C3B 3397   3.706   2.301   9.080 -0.4542 -0.0283 -0.2282
  272POPC   C4B 3398   4.088   2.281   8.805 -0.1397 -0.0070 -0.2232
  273POPC   NC3 3399  13.707  13.963  10.438  0.1349 -0.0975 -0.2556
  273POPC   PO4 3400  13.617  13.573  10.556 -0.0737 -0.1444  0.0314
  273POPC   GL1 3401  13.706  13.470  10.173  0.1019  0.4370 -0.1022
  273POPC   GL2 3402  13.808  13.160  10.186 -0.0668  0.3423 -0.0217
  273POPC   C1A 3403  13.488  13.520   9.858 -0.3074 -0.1834 -0.0790
  273POPC   D2A 3404  13.129  13.426   9.597 -0.4152  0.0730  0.1516
  273POPC   C3A 3405  13.276  13.514   9.252  0.0608  0.0178  0.0928
  273POPC   C4A 3406  13.599  13.850   9.250  0.1980  0.1635  0.2968
  273POPC   C1B 3407  14.046  12.904   9.884  0.0032 -0.0567 -0.1946
  273POPC   C2B 3408  14.120  13.031   9.469 -0.1192  0.0574  0.0434
  273POPC   C3B 3409  14.152  13.055   9.041 -0.0347 -0.0329 -0.4327
  273POPC   C4B 3410  13.995  13.210   8.568 -0.0978  0.0421  0.0274
  274POPC   NC3 3411   3.724  14.256  10.821  0.2593 -0.0053  0.0306
  274POPC   PO4 3412   3.628  14.144  10.431 -0.0809  0.0398 -0.2295
  274POPC   GL1 3413   3.678  14.212   9.979  0.2013  0.1247 -0.0425
  274POPC   GL2 3414   3.746  14.451  10.048 -0.3505 -0.2033  0.0552
  274POPC   C1A 3415   3.623  14.111   9.585 -0.0379  0.0733 -0.1268
  274POPC   D2A 3416   3.606  14.175   9.143  0.1633 -0.6196  0.1334
  274POPC   C3A 3417   3.170  14.221   8.957 -0.1321  0.2850 -0.0487
  274POPC   C4A 3418   3.076  14.156   8.521  0.1657 -0.3671  0.2627
  274POPC   C1B 3419   3.449  14.568   9.728 -0.1568 -0.3045  0.0362
  274POPC   C2B 3420   3.415  14.575   9.350  0.1122 -0.0822  0.0564
  274POPC   C3B 3421   3.413  14.668   8.905 -0.1865  0.1853  0.0444
  274POPC   C4B 3422   3.417  14.541   8.440  0.3239 -0.0361  0.2786
  275POPC   NC3 3423  16.421  15.105  10.467 -0.0820 -0.0047  0.1718
  275POPC   PO4 3424  16.629  14.861  10.268  0.1818  0.1664 -0.0599
  275POPC   GL1 3425  16.607  14.661   9.859  0.1791  0.0747  0.2892
  275POPC   GL2 3426  16.857  14.447   9.782  0.2246 -0.1219  0.1819
  275POPC   C1A 3427  16.454  14.632   9.386  0.0645 -0.0717 -0.2722
  275POPC   D2A 3428  16.601  14.487   8.988  0.0798 -0.0913 -0.0980
  275POPC   C3A 3429  16.425  14.233   8.779  0.0179  0.0405  0.1390
  275POPC   C4A 3430  16.129  14.196   8.387  0.0477  0.1026  0.0294
  275POPC   C1B 3431  16.912  14.408   9.365 -0.0241  0.2104 -0.3695
  275POPC   C2B 3432  17.071  14.559   8.999  0.3195 -0.0717 -0.2324
  275POPC   C3B 3433  17.175  14.767   8.637 -0.2073  0.1115  0.0095
  275POPC   C4B 3434  17.459  14.905   8.391  0.0931 -0.0337 -0.4988
  276POPC   NC3 3435  12.370   3.023  10.067 -0.1579  0.2492 -0.2140
  276POPC   PO4 3436  11.956   2.754  10.060  0.1284 -0.1090  0.2662
  276POPC   GL1 3437  11.774   2.825   9.618  0.4442  0.1412 -0.0929
  276POPC   GL2 3438  11.767   2.544   9.325  0.2249  0.0504 -0.0287
  276POPC   C1A 3439  11.526   3.104   9.335  0.1874  0.1799 -0.0596
  276POPC   D2A 3440  11.397   3.182   8.937 -0.1952 -0.0954  0.1486
  276POPC   C3A 3441  11.518   3.280   8.528 -0.1545  0.1687 -0.3059
  276POPC   C4A 3442  11.614   3.357   8.113  0.1240  0.2223 -0.0654
  276POPC   C1B 3443  11.667   2.705   9.001  0.1710  0.0028  0.3075
  276POPC   C2B 3444  11.473   2.804   8.600 -0.0853 -0.1528  0.0530
  276POPC   C3B 3445  11.415   2.836   8.183  0.0391  0.0207  0.1020
  276POPC   C4B 3446  11.396   2.935   7.789  0.0780 -0.1706 -0.2365
  277POPC   NC3 3447   3.202  11.369  10.662  0.1555 -0.1213 -0.2198
  277POPC   PO4 3448   3.283  11.748  10.447 -0.1010 -0.4399  0.0163
  277POPC   GL1 3449   3.380  11.918  10.102 -0.0963 -0.1956 -0.0825
  277POPC   GL2 3450   3.210  12.194   9.975 -0.0646  0.3123 -0.0179
  277POPC   C1A 3451   3.291  11.803   9.687  0.0049 -0.2961 -0.0716
  277POPC   D2A 3452   2.974  11.622   9.486  0.2678 -0.0689  0.2278
  277POPC   C3A 3453   2.906  11.581   9.072 -0.1589 -0.0230  0.0797
  277POPC   C4A 3454   3.070  11.462   8.748  0.2559  0.2813 -0.1120
  277POPC   C1B 3455   2.904  11.863   9.965 -0.2261 -0.0972  0.3563
  277POPC   C2B 3456   2.572  11.831   9.652 -0.0066  0.1304 -0.1526
  277POPC   C3B 3457   2.535  11.878   9.200  0.0291 -0.3642  0.1125
  277POPC   C4B 3458   2.643  11.928   8.741 -0.0145  0.2335 -0.0381
  278POPC   NC3 3459  17.097   6.974  10.665 -0.0976 -0.2254 -0.1777
  278POPC   PO4 3460  16.704   7.203  10.697  0.0787 -0.1627  0.1653
  278POPC   GL1 3461  16.782   7.284  10.259 -0.0922  0.0645 -0.2222
  278POPC   GL2 3462  16.468   7.511  10.086  0.0854 -0.0146  0.0865
  278POPC   C1A 3463  16.939   7.327   9.813 -0.1310 -0.0374 -0.1291
  278POPC   D2A 3464  16.824   7.337   9.351  0.1321  0.0347 -0.0797
  278POPC   C3A 3465  17.129   7.254   9.080  0.0989  0.2953  0.0167
  278POPC   C4A 3466  17.471   7.016   8.917 -0.1638 -0.1283 -0.0390
  278POPC   C1B 3467  16.444   7.463   9.703  0.0373  0.2009  0.3175
  278POPC   C2B 3468  16.388   7.568   9.302  0.3996  0.1677 -0.3328
  278POPC   C3B 3469  16.381   7.729   8.933 -0.1557 -0.0390 -0.0626
  278POPC   C4B 3470  16.193   7.874   8.557  0.4454  0.0950 -0.0681
  279POPC   NC3 3471  13.374  14.733  10.192 -0.1546  0.1245 -0.0274
  279POPC   PO4 3472  13.064  15.070  10.076  0.1127  0.1755  0.0229
  279POPC   GL1 3473  13.112  14.849   9.686  0.2203  0.2074 -0.2450
  279POPC   GL2 3474  13.244  14.587   9.758  0.1212 -0.0726  0.0743
  279POPC   C1A 3475  13.022  14.974   9.256 -0.1469 -0.3725 -0.0479
  279POPC   D2A 3476  12.993  14.994   8.694 -0.0797  0.1066  0.0167
  279POPC   C3A 3477  13.019  14.646   8.418  0.1407 -0.2774 -0.1159
  279POPC   C4A 3478  12.993  14.523   8.060  0.2316  0.1460 -0.0710
  279POPC   C1B 3479  13.052  14.449   9.309  0.2036 -0.1253  0.3185
  279POPC   C2B 3480  12.767  14.572   8.928  0.0945  0.2869 -0.1594
  279POPC   C3B 3481  12.566  14.290   8.606  0.0830  0.0377 -0.1574
  279POPC   C4B 3482  12.315  14.059   8.348  0.1485 -0.1091 -0.0929
  280POPC   NC3 3483   7.034   5.145  10.223  0.3621  0.2945 -0.0739
  280POPC   PO4 3484   7.213   5.554  10.240  0.1286 -0.0734 -0.0559
  280POPC   GL1 3485   6.947   5.623   9.954 -0.1720  0.0490  0.0255
  280POPC   GL2 3486   6.791   5.361   9.731  0.2163  0.1768  0.2136
  280POPC   C1A 3487   6.732   5.816   9.583 -0.3538 -0.0128 -0.0056
  280POPC   D2A 3488   6.756   5.556   9.263 -0.0711 -0.1262 -0.0999
  280POPC   C3A 3489   6.867   5.746   8.827 -0.1918  0.3722  0.2201
  280POPC   C4A 3490   6.722   5.827   8.402 -0.0523  0.1898  0.1192
  280POPC   C1B 3491   6.465   5.169   9.618  0.1310 -0.1837 -0.0598
  280POPC   C2B 3492   6.038   5.119   9.589 -0.1858  0.2755  0.1969
  280POPC   C3B 3493   5.606   5.112   9.607 -0.2402 -0.0772  0.3250
  280POPC   C4B 3494   5.215   5.112   9.646 -0.2193  0.2539  0.1701
  281POPC   NC3 3495   5.781   2.475  10.356  0.1499 -0.1021  0.0598
  281POPC   PO4 3496   5.451   2.786  10.298  0.1175  0.0013 -0.0191
  281POPC   GL1 3497   5.419   2.643   9.920  0.1526 -0.0076 -0.0063
  281POPC   GL2 3498   5.495   2.280  10.009  0.0071 -0.0202  0.2980
  281POPC   C1A 3499   5.183   2.761   9.494 -0.1146  0.0955  0.0963
  281POPC   D2A 3500   5.058   2.929   9.062  0.1785 -0.0560  0.0054
  281POPC   C3A 3501   5.064   3.254   8.893  0.1738 -0.1432  0.1677
  281POPC   C4A 3502   4.814   3.438   9.122  0.2947  0.0297  0.1776
  281POPC   C1B 3503   5.347   2.273   9.584  0.2781  0.0768 -0.0141
  281POPC   C2B 3504   5.244   2.317   9.192 -0.0987  0.2499  0.2449
  281POPC   C3B 3505   4.953   2.455   8.946 -0.3750 -0.0448 -0.0892
  281POPC   C4B 3506   4.608   2.422   8.740  0.3375  0.2095  0.0266
  282POPC   NC3 3507  14.052   6.792  10.608  0.1814 -0.0465  0.1356
  282POPC   PO4 3508  14.171   7.139  11.025  0.2788  0.0026 -0.0783
  282POPC   GL1 3509  14.028   7.307  10.532 -0.2426 -0.3226  0.1011
  282POPC   GL2 3510  14.159   7.124  10.265  0.1763  0.1487 -0.0631
  282POPC   C1A 3511  13.914   7.495  10.147  0.0267 -0.1215 -0.2262
  282POPC   D2A 3512  14.214   7.493   9.885 -0.3078 -0.3545  0.1925
  282POPC   C3A 3513  14.384   7.916   9.801  0.3415  0.2163  0.0243
  282POPC   C4A 3514  14.465   8.289  10.076 -0.2210 -0.1601 -0.3283
  282POPC   C1B 3515  13.903   7.056   9.928  0.1199 -0.1216  0.1304
  282POPC   C2B 3516  13.826   7.333   9.613 -0.2208  0.2603 -0.0379
  282POPC   C3B 3517  13.814   7.693   9.598 -0.1617  0.3610  0.0123
  282POPC   C4B 3518  13.908   8.062   9.384 -0.3646  0.1752 -0.0050
  283POPC   NC3 3519   7.083   8.567  10.569 -0.3195 -0.2822  0.0288
  283POPC   PO4 3520   7.071   8.060  10.503 -0.1997 -0.0329  0.3343
  283POPC   GL1 3521   7.069   8.202  10.093  0.1305  0.0395 -0.1592
  283POPC   GL2 3522   6.835   8.374  10.117  0.0474 -0.1091  0.3526
  283POPC   C1A 3523   7.442   8.324   9.860  0.0533  0.4133  0.0793
  283POPC   D2A 3524   7.762   8.135   9.617  0.0640 -0.0003 -0.1865
  283POPC   C3A 3525   7.632   8.239   9.157  0.0408 -0.1614 -0.1484
  283POPC   C4A 3526   7.804   8.164   8.768 -0.2825 -0.1947  0.0538
  283POPC   C1B 3527   6.979   8.519   9.681  0.1001  0.2527 -0.4710
  283POPC   C2B 3528   7.150   8.266   9.391 -0.2446 -0.0098 -0.1041
  283POPC   C3B 3529   7.156   8.217   8.963 -0.1359  0.0499 -0.1518
  283POPC   C4B 3530   6.916   8.111   8.600 -0.3638 -0.1711 -0.2050
  284POPC   NC3 3531  11.655  16.551   9.622  0.2722 -0.2830 -0.2476
  284POPC   PO4 3532  11.895  16.246   9.694  0.2033 -0.3019  0.0589
  284POPC   GL1 3533  11.839  16.221   9.248  0.5439 -0.2329  0.1446
  284POPC   GL2 3534  11.645  16.025   9.131 -0.1693 -0.1081  0.2451
  284POPC   C1A 3535  11.863  16.292   8.783 -0.0946 -0.0870  0.1881
  284POPC   D2A 3536  11.840  16.602   8.458 -0.1560 -0.0738  0.0258
  284POPC   C3A 3537  11.950  16.488   8.052 -0.1040 -0.0711  0.0504
  284POPC   C4A 3538  12.141  16.217   7.706  0.0925  0.0356  0.4563
  284POPC   C1B 3539  12.013  15.827   8.944 -0.1849  0.3942  0.0179
  284POPC   C2B 3540  12.081  15.813   8.521 -0.2631  0.1638 -0.0064
  284POPC   C3B 3541  12.137  15.909   8.047  0.0740 -0.1521  0.1395
  284POPC   C4B 3542  12.501  15.932   7.933 -0.1728  0.1767  0.0485
  285POPC   NC3 3543   6.674   7.870  10.749 -0.0896  0.0298 -0.0859
  285POPC   PO4 3544   6.217   8.000  10.659 -0.0493 -0.1566  0.1243
  285POPC   GL1 3545   6.344   8.076  10.182  0.1619 -0.1125 -0.1410
  285POPC   GL2 3546   6.676   7.836  10.218 -0.1638  0.2373  0.1493
  285POPC   C1A 3547   6.535   8.140   9.779 -0.1446  0.0106 -0.2009
  285POPC   D2A 3548   6.567   8.217   9.292 -0.0119 -0.2407 -0.2583
  285POPC   C3A 3549   6.511   7.955   8.856  0.0254 -0.0741  0.1876
  285POPC   C4A 3550   6.831   7.657   8.759 -0.0584 -0.0592  0.0485
  285POPC   C1B 3551   6.932   7.784   9.821 -0.3968  0.0019  0.2988
  285POPC   C2B 3552   7.348   7.873   9.612 -0.0902 -0.0186 -0.2685
  285POPC   C3B 3553   7.370   7.814   9.212  0.0632  0.1332  0.3461
  285POPC   C4B 3554   7.413   7.837   8.762  0.2671  0.2232 -0.0748
  286POPC   NC3 3555   8.644  11.513  10.968  0.2301  0.1637 -0.4014
  286POPC   PO4 3556   8.250  11.662  10.954 -0.1156  0.2720  0.0082
  286POPC   GL1 3557   8.432  11.677  10.542 -0.2732 -0.0004  0.0953
  286POPC   GL2 3558   8.337  11.860  10.379  0.0251  0.1191  0.3877
  286POPC   C1A 3559   8.465  11.354  10.356  0.2240  0.2888  0.0308
  286POPC   D2A 3560   8.563  11.313   9.914 -0.1779 -0.1275  0.0399
  286POPC   C3A 3561   8.742  10.930   9.642 -0.3585  0.0958 -0.0196
  286POPC   C4A 3562   8.658  10.748   9.223  0.1989 -0.1630  0.1539
  286POPC   C1B 3563   8.351  11.739  10.023 -0.1563  0.0065  0.3052
  286POPC   C2B 3564   8.433  11.710   9.567 -0.0087 -0.2008  0.1480
  286POPC   C3B 3565   8.676  11.768   9.169  0.0524  0.0089 -0.0908
  286POPC   C4B 3566   8.726  11.646   8.658 -0.1996  0.0882  0.0208
  287POPC   NC3 3567  16.042  13.129  10.330  0.1572 -0.3718 -0.3365
  287POPC   PO4 3568  16.414  13.303  10.547 -0.2830 -0.0326  0.0391
  287POPC   GL1 3569  16.291  13.462  10.044 -0.0642  0.1688 -0.0104
  287POPC   GL2 3570  16.094  13.217   9.821  0.1765 -0.1167 -0.1000
  287POPC   C1A 3571  16.426  13.539   9.610  0.1718 -0.3699  0.3481
  287POPC   D2A 3572  16.521  13.549   9.104  0.2420 -0.2764 -0.2282
  287POPC   C3A 3573  16.317  13.324   8.794  0.1135 -0.1161  0.0958
  287POPC   C4A 3574  16.139  13.445   8.339  0.0133 -0.2108  0.0731
  287POPC   C1B 3575  16.402  12.971   9.673 -0.0450  0.1081 -0.0937
  287POPC   C2B 3576  16.494  13.097   9.288 -0.0137 -0.1427 -0.1882
  287POPC   C3B 3577  16.616  12.878   8.885  0.0303  0.1684  0.1056
  287POPC   C4B 3578  16.672  12.992   8.483  0.2642  0.0029  0.2122
  288POPC   NC3 3579   2.021   0.574  10.536 -0.0411  0.0699 -0.1144
  288POPC   PO4 3580   2.178   0.909  10.310 -0.1715 -0.2311  0.2932
  288POPC   GL1 3581   2.210   0.955   9.870  0.0769  0.1668 -0.1699
  288POPC   GL2 3582   2.191   1.265   9.819  0.3207 -0.1040 -0.0716
  288POPC   C1A 3583   2.404   0.878   9.554 -0.1358 -0.1740 -0.0609
  288POPC   D2A 3584   2.826   0.709   9.479 -0.0275 -0.3633  0.0975
  288POPC   C3A 3585   2.999   0.661   9.114  0.0330  0.0098 -0.1909
  288POPC   C4A 3586   2.739   0.657   8.750  0.1159  0.1161 -0.1663
  288POPC   C1B 3587   2.228   1.246   9.339  0.1023  0.1505  0.0154
  288POPC   C2B 3588   2.084   1.282   8.884 -0.3106 -0.1392 -0.0811
  288POPC   C3B 3589   1.779   1.400   8.597  0.2705 -0.2499 -0.1223
  288POPC   C4B 3590   1.726   1.210   8.110  0.0439 -0.0707  0.0679
  289POPC   NC3 3591  13.030  16.101   9.326  0.1064  0.2695 -0.3488
  289POPC   PO4 3592  12.761  15.805   9.579  0.1936 -0.1345 -0.0824
  289POPC   GL1 3593  12.718  15.543   9.246  0.0019 -0.0729  0.0534
  289POPC   GL2 3594  12.368  15.539   9.133 -0.0170  0.2042 -0.2294
  289POPC   C1A 3595  12.745  15.478   8.821  0.0560 -0.2122 -0.2285
  289POPC   D2A 3596  12.669  15.729   8.497 -0.1286  0.3048  0.0114
  289POPC   C3A 3597  12.818  15.568   8.063 -0.1178 -0.4564  0.3330
  289POPC   C4A 3598  12.730  15.582   7.596 -0.2467  0.2432 -0.1668
  289POPC   C1B 3599  12.270  15.384   8.716  0.0680 -0.0558 -0.2101
  289POPC   C2B 3600  12.082  15.465   8.188  0.0150 -0.0475  0.1553
  289POPC   C3B 3601  12.339  15.396   7.821  0.1221  0.0216 -0.0812
  289POPC   C4B 3602  12.345  15.119   7.565 -0.1102 -0.3967  0.0340
  290POPC   NC3 3603  17.657   0.482  10.539  0.4254  0.1085 -0.1322
  290POPC   PO4 3604  17.716   0.995  10.453  0.3441  0.0570  0.0842
  290POPC   GL1 3605  17.888   0.946  10.097  0.1698 -0.0152  0.0928
  290POPC   GL2 3606  17.865   0.573  10.107 -0.0683  0.1786  0.1488
  290POPC   C1A 3607  18.047   1.066   9.616 -0.1002  0.2653  0.2623
  290POPC   D2A 3608  18.184   1.330   9.284 -0.3711  0.1543  0.1635
  290POPC   C3A 3609  18.153   1.338   8.725  0.1694 -0.1544 -0.2232
  290POPC   C4A 3610  18.278   1.219   8.470  0.0266  0.4026 -0.1163
  290POPC   C1B 3611  17.822   0.634   9.708  0.2469  0.1953 -0.3098
  290POPC   C2B 3612  17.600   0.596   9.378 -0.0254  0.3114 -0.1620
  290POPC   C3B 3613  17.711   0.622   8.914  0.0840  0.2098 -0.2231
  290POPC   C4B 3614  17.941   0.885   8.651 -0.0211 -0.1145  0.0020
  291POPC   NC3 3615  18.153  15.086  10.402  0.1599 -0.0476 -0.1563
  291POPC   PO4 3616  18.577  15.281  10.327 -0.4648 -0.4462  0.1431
  291POPC   GL1 3617  18.868  15.163   9.947  0.2842 -0.1468 -0.0802
  291POPC   GL2 3618  18.832  14.783   9.943 -0.0139 -0.0024 -0.1392
  291POPC   C1A 3619  19.023  15.254   9.598 -0.0534 -0.0548  0.1933
  291POPC   D2A 3620  18.846  15.224   9.144  0.1277 -0.1008 -0.0710
  291POPC   C3A 3621  18.962  15.299   8.790 -0.0271  0.4202 -0.1019
  291POPC   C4A 3622  19.135  15.366   8.344  0.2788 -0.2663 -0.0128
  291POPC   C1B 3623  18.803  14.654   9.566  0.2404  0.1004  0.0047
  291POPC   C2B 3624  18.805  14.571   9.156 -0.0141  0.0789 -0.1252
  291POPC   C3B 3625  18.549  14.336   8.900 -0.2940 -0.2740  0.0127
  291POPC   C4B 3626  18.119  14.398   8.774 -0.2180  0.2047 -0.2718
  292POPC   NC3 3627   6.353  16.832   9.840  0.0410  0.0644 -0.1199
  292POPC   PO4 3628   5.919  16.604   9.882  0.1746  0.1749 -0.1236
  292POPC   GL1 3629   5.809  16.707   9.435  0.0905 -0.1086  0.1374
  292POPC   GL2 3630   5.878  16.368   9.254  0.0311  0.0180 -0.0653
  292POPC   C1A 3631   5.784  16.938   9.002 -0.1400 -0.4782  0.1313
  292POPC   D2A 3632   5.434  17.082   8.820 -0.2181 -0.0882 -0.0919
  292POPC   C3A 3633   5.512  17.265   8.438 -0.0936  0.2799  0.0605
  292POPC   C4A 3634   5.441  17.393   8.000 -0.1542  0.0226  0.2871
  292POPC   C1B 3635   6.114  15.994   9.368  0.0921  0.3119  0.0670
  292POPC   C2B 3636   6.159  15.620   9.093 -0.5297 -0.1529  0.5372
  292POPC   C3B 3637   6.199  15.545   8.571 -0.2941  0.1998  0.1217
  292POPC   C4B 3638   6.437  15.759   8.207 -0.0023 -0.2534 -0.2223
  293POPC   NC3 3639   9.170   1.782   9.666  0.0336  0.2941 -0.2767
  293POPC   PO4 3640   9.255   1.400   9.580  0.0708 -0.2477 -0.1042
  293POPC   GL1 3641   9.035   1.544   9.230  0.1326 -0.3186 -0.0054
  293POPC   GL2 3642   8.777   1.404   9.138 -0.3933  0.0401 -0.0007
  293POPC   C1A 3643   9.111   1.651   8.779  0.2766 -0.0390  0.1450
  293POPC   D2A 3644   8.985   1.684   8.284 -0.1065  0.0512  0.1220
  293POPC   C3A 3645   8.859   1.888   7.919  0.1010  0.1549  0.0640
  293POPC   C4A 3646   8.809   2.220   7.626  0.1048  0.1560  0.1915
  293POPC   C1B 3647   8.582   1.407   8.690  0.0582  0.0883  0.0711
  293POPC   C2B 3648   8.538   1.532   8.337  0.4705  0.0991  0.0431
  293POPC   C3B 3649   8.644   1.403   7.973  0.1932 -0.1636  0.0444
  293POPC   C4B 3650   8.833   1.533   7.571 -0.0611 -0.1179 -0.1191
  294POPC   NC3 3651   5.769   0.894   9.988  0.0783 -0.0173 -0.1101
  294POPC   PO4 3652   5.386   0.703   9.905 -0.1596  0.0991 -0.0871
  294POPC   GL1 3653   5.500   0.773   9.485  0.2803  0.0691 -0.1646
  294POPC   GL2 3654   5.906   0.822   9.513  0.0609 -0.0924 -0.1660
  294POPC   C1A 3655   5.585   0.599   9.035  0.1031 -0.2085  0.2501
  294POPC   D2A 3656   5.953   0.652   8.735 -0.1091  0.5150 -0.0425
  294POPC   C3A 3657   5.875   0.635   8.376  0.0875 -0.2312 -0.1697
  294POPC   C4A 3658   5.820   0.890   7.979  0.1908  0.0927 -0.0148
  294POPC   C1B 3659   5.804   1.056   9.069 -0.3872 -0.0867 -0.0956
  294POPC   C2B 3660   5.570   0.998   8.657 -0.0832  0.2547 -0.1815
  294POPC   C3B 3661   5.367   0.820   8.274 -0.2840  0.0407 -0.0252
  294POPC   C4B 3662   5.346   0.828   7.845 -0.0773 -0.2129  0.2093
  295POPC   NC3 3663   6.399   1.881   9.927  0.2806 -0.2431  0.0416
  295POPC   PO4 3664   6.477   1.598   9.658 -0.1878 -0.0416  0.3321
  295POPC   GL1 3665   6.312   1.933   9.342 -0.1424 -0.2471 -0.0704
  295POPC   GL2 3666   6.531   2.173   9.500 -0.2411 -0.0316  0.1469
  295POPC   C1A 3667   6.166   2.223   9.140 -0.2771 -0.0218 -0.0663
  295POPC   D2A 3668   6.060   2.363   8.666  0.3248  0.0589  0.0039
  295POPC   C3A 3669   6.380   2.291   8.286  0.2112 -0.0362 -0.1096
  295POPC   C4A 3670   6.711   2.415   8.010  0.0731 -0.2044  0.2066
  295POPC   C1B 3671   6.694   2.194   9.116 -0.0119 -0.2338 -0.0556
  295POPC   C2B 3672   6.579   2.379   8.774 -0.0172 -0.0256  0.0886
  295POPC   C3B 3673   6.452   2.708   8.532  0.5880 -0.2443 -0.1994
  295POPC   C4B 3674   6.195   2.957   8.586 -0.1864 -0.1006  0.2974
  296POPC   NC3 3675  14.340   4.151   9.909  0.0488  0.3213 -0.1177
  296POPC   PO4 3676  14.342   3.821  10.033  0.0416 -0.2611 -0.0120
  296POPC   GL1 3677  14.565   3.781   9.651  0.0827 -0.1955  0.2318
  296POPC   GL2 3678  14.775   3.513   9.665 -0.2001 -0.0282  0.1631
  296POPC   C1A 3679  14.552   3.960   9.245  0.1499  0.0451 -0.4599
  296POPC   D2A 3680  14.598   3.948   8.771 -0.1618  0.0059  0.0677
  296POPC   C3A 3681  14.295   3.941   8.536 -0.1778 -0.2664  0.2431
  296POPC   C4A 3682  13.910   4.023   8.485  0.3247  0.0224  0.2095
  296POPC   C1B 3683  14.950   3.588   9.324 -0.2115  0.0173 -0.0548
  296POPC   C2B 3684  15.045   3.582   8.851 -0.3667 -0.0871 -0.1877
  296POPC   C3B 3685  15.038   3.416   8.432 -0.1752  0.2367  0.0294
  296POPC   C4B 3686  15.309   3.197   8.095 -0.0807  0.2455  0.1884
  297POPC   NC3 3687   0.638  13.946  10.428  0.3833 -0.0937 -0.1396
  297POPC   PO4 3688   0.392  13.625  10.424 -0.1102  0.1031 -0.0167
  297POPC   GL1 3689   0.544  13.620  10.015 -0.0579  0.2955  0.0323
  297POPC   GL2 3690   0.919  13.449  10.128  0.2797 -0.1890 -0.1889
  297POPC   C1A 3691   0.525  13.521   9.678 -0.0607  0.1464 -0.0297
  297POPC   D2A 3692   0.120  13.450   9.444  0.2141 -0.1118 -0.1081
  297POPC   C3A 3693   0.011  13.462   9.045  0.0302 -0.1012  0.1235
  297POPC   C4A 3694   0.189  13.766   8.703 -0.0873 -0.0976 -0.0704
  297POPC   C1B 3695   1.016  13.392   9.835  0.3228 -0.0503 -0.3536
  297POPC   C2B 3696   0.907  13.263   9.386 -0.0921  0.0470  0.1112
  297POPC   C3B 3697   0.947  13.149   9.107 -0.1865 -0.1566 -0.2995
  297POPC   C4B 3698   0.850  13.005   8.707 -0.3686 -0.0306  0.1624
  298POPC   NC3 3699   9.063  16.083  10.041  0.0876 -0.3588  0.2023
  298POPC   PO4 3700   8.892  16.259   9.711 -0.1863  0.1288  0.2563
  298POPC   GL1 3701   8.920  16.184   9.247  0.1972 -0.2799  0.1270
  298POPC   GL2 3702   8.643  16.256   9.160  0.0097 -0.1783  0.1439
  298POPC   C1A 3703   9.111  16.208   8.865  0.1140 -0.0913 -0.3822
  298POPC   D2A 3704   9.080  16.146   8.397 -0.2048  0.0740  0.1712
  298POPC   C3A 3705   9.355  16.412   8.209  0.0951 -0.1473 -0.1351
  298POPC   C4A 3706   9.393  16.746   7.871  0.2174  0.1675 -0.2412
  298POPC   C1B 3707   8.532  16.551   8.838  0.1220  0.1402 -0.3119
  298POPC   C2B 3708   8.378  16.710   8.481  0.0616 -0.1136 -0.2722
  298POPC   C3B 3709   8.441  16.770   8.149 -0.0808 -0.1883 -0.0406
  298POPC   C4B 3710   8.050  16.893   7.780 -0.1948  0.1065 -0.3259
  299POPC   NC3 3711   6.918  13.017  10.562  0.0165 -0.3287 -0.2821
  299POPC   PO4 3712   6.613  13.315  10.462  0.0428 -0.3029  0.3462
  299POPC   GL1 3713   6.475  13.335  10.005  0.0958 -0.0214  0.3188
  299POPC   GL2 3714   6.563  13.558   9.816 -0.1503 -0.0117 -0.1017
  299POPC   C1A 3715   6.229  13.264   9.575  0.2250  0.3547 -0.2048
  299POPC   D2A 3716   6.283  13.149   9.133  0.2135 -0.1698  0.0813
  299POPC   C3A 3717   6.294  12.827   8.842  0.1646 -0.0183 -0.3120
  299POPC   C4A 3718   6.079  12.486   8.646  0.1051 -0.1952  0.0058
  299POPC   C1B 3719   6.451  13.691   9.429 -0.1735  0.1619 -0.3105
  299POPC   C2B 3720   6.473  13.535   9.018  0.0281  0.2989  0.0624
  299POPC   C3B 3721   6.434  13.430   8.625  0.1486 -0.2335 -0.0004
  299POPC   C4B 3722   6.272  13.442   8.199  0.1267  0.0548  0.0358
  300POPC   NC3 3723  15.643  14.661  10.525 -0.1126  0.1630 -0.0547
  300POPC   PO4 3724  15.808  14.300  10.314  0.0060 -0.2530  0.0703
  300POPC   GL1 3725  15.800  14.038   9.897  0.1310 -0.1820  0.0755
  300POPC   GL2 3726  15.971  13.839   9.903 -0.0699 -0.0447 -0.2532
  300POPC   C1A 3727  15.655  14.086   9.474  0.0961 -0.0922 -0.0717
  300POPC   D2A 3728  15.675  14.216   9.165  0.0178 -0.1677 -0.2176
  300POPC   C3A 3729  15.731  14.138   8.750 -0.0946 -0.0228 -0.2147
  300POPC   C4A 3730  15.585  14.275   8.346 -0.0420 -0.2648  0.0041
  300POPC   C1B 3731  15.907  13.647   9.547 -0.0422  0.3116 -0.0129
  300POPC   C2B 3732  15.816  13.516   9.122  0.1119  0.1012  0.1552
  300POPC   C3B 3733  15.730  13.587   8.704 -0.0681  0.2714  0.2120
  300POPC   C4B 3734  15.733  13.779   8.270 -0.0478  0.0529 -0.1095
  301POPC   NC3 3735  12.372   8.895  10.863 -0.1506  0.1173 -0.3020
  301POPC   PO4 3736  11.920   8.858  10.753 -0.1266  0.0428 -0.0982
  301POPC   GL1 3737  11.966   8.736  10.278  0.4342  0.0060 -0.0581
  301POPC   GL2 3738  11.681   8.837  10.100 -0.3402 -0.2010 -0.1292
  301POPC   C1A 3739  11.868   8.348   9.947 -0.1277 -0.0937  0.0855
  301POPC   D2A 3740  11.913   8.250   9.483  0.0392  0.1984 -0.1227
  301POPC   C3A 3741  12.250   8.384   9.207 -0.0651  0.2234 -0.1435
  301POPC   C4A 3742  12.534   8.520   9.043  0.1683 -0.2065 -0.4460
  301POPC   C1B 3743  11.567   8.748   9.733  0.0396  0.0315 -0.3965
  301POPC   C2B 3744  11.390   8.614   9.390 -0.3893  0.1392 -0.4000
  301POPC   C3B 3745  11.355   8.890   9.051  0.0952 -0.1166  0.0390
  301POPC   C4B 3746  11.614   8.794   8.718 -0.3195  0.1196  0.0345
  302POPC   NC3 3747  16.873  12.734  10.342 -0.0850 -0.0853  0.0461
  302POPC   PO4 3748  16.580  12.465  10.321 -0.1657 -0.0068 -0.2155
  302POPC   GL1 3749  16.694  12.556   9.881 -0.1777  0.1586 -0.0355
  302POPC   GL2 3750  16.909  12.812   9.850  0.1277  0.0245  0.0622
  302POPC   C1A 3751  16.686  12.597   9.419  0.1565  0.1030 -0.2102
  302POPC   D2A 3752  16.708  12.406   8.991  0.1814  0.1467  0.0012
  302POPC   C3A 3753  16.522  12.533   8.569  0.0663  0.2375  0.0706
  302POPC   C4A 3754  16.323  12.599   8.247 -0.2441 -0.0807 -0.2406
  302POPC   C1B 3755  17.145  12.672   9.536  0.1312 -0.4235  0.2143
  302POPC   C2B 3756  17.180  12.594   9.122  0.1245 -0.0378 -0.1023
  302POPC   C3B 3757  17.335  12.554   8.777  0.1354 -0.0514  0.2648
  302POPC   C4B 3758  17.005  12.448   8.510 -0.0244 -0.1645 -0.2558
  303POPC   NC3 3759  15.762  17.892  10.231  0.2379  0.0260  0.3533
  303POPC   PO4 3760  16.145  18.033  10.125  0.1261 -0.2961  0.0030
  303POPC   GL1 3761  16.320  17.972   9.772 -0.1736  0.0221  0.1142
  303POPC   GL2 3762  16.696  17.798   9.763 -0.0095  0.0768 -0.1281
  303POPC   C1A 3763  16.174  17.763   9.454  0.2133 -0.1632 -0.0801
  303POPC   D2A 3764  15.810  17.899   9.236 -0.1610  0.1469  0.0222
  303POPC   C3A 3765  15.871  17.819   8.802 -0.2302  0.3283 -0.0904
  303POPC   C4A 3766  16.093  18.003   8.553  0.0773 -0.0868  0.2461
  303POPC   C1B 3767  16.720  17.826   9.367  0.2980  0.0928 -0.3659
  303POPC   C2B 3768  16.859  17.635   8.981 -0.2430 -0.1833 -0.2978
  303POPC   C3B 3769  16.893  17.354   8.658 -0.0311  0.1351 -0.1204
  303POPC   C4B 3770  16.864  17.136   8.348 -0.4400 -0.0517  0.1193
  304POPC   NC3 3771  10.891   6.922  11.335 -0.1524  0.2302  0.2135
  304POPC   PO4 3772  10.965   7.007  10.892 -0.0798  0.2567  0.0773
  304POPC   GL1 3773  11.054   7.058  10.421 -0.1124 -0.1616 -0.4424
  304POPC   GL2 3774  11.424   6.995  10.277 -0.0632 -0.3368 -0.4242
  304POPC   C1A 3775  10.879   6.849   9.998 -0.4444 -0.2277  0.0628
  304POPC   D2A 3776  11.039   6.759   9.588 -0.1032  0.1299 -0.2267
  304POPC   C3A 3777  11.230   6.869   9.177 -0.1689  0.0220  0.0430
  304POPC   C4A 3778  11.249   7.158   8.894 -0.1770  0.1066 -0.1649
  304POPC   C1B 3779  11.391   7.141   9.851 -0.0463 -0.1652 -0.1470
  304POPC   C2B 3780  11.406   7.296   9.485  0.1088  0.0369  0.3379
  304POPC   C3B 3781  11.397   7.553   9.199  0.0207  0.0939  0.0641
  304POPC   C4B 3782  11.450   7.829   8.874 -0.2859  0.0495  0.0571
  305POPC   NC3 3783  14.659  14.500  10.460 -0.3564  0.1651  0.0691
  305POPC   PO4 3784  14.919  14.493  10.149  0.1923 -0.0028  0.2300
  305POPC   GL1 3785  14.971  14.613   9.783 -0.1946 -0.1836  0.2612
  305POPC   GL2 3786  15.159  14.789   9.607  0.0515  0.0108  0.1051
  305POPC   C1A 3787  14.766  14.607   9.438 -0.0069 -0.0525 -0.0443
  305POPC   D2A 3788  14.964  14.721   9.105 -0.3888  0.1188 -0.0483
  305POPC   C3A 3789  14.803  14.605   8.846  0.3021 -0.2000  0.1035
  305POPC   C4A 3790  14.777  14.699   8.335  0.1085 -0.0238 -0.2856
  305POPC   C1B 3791  15.474  14.808   9.361  0.1037  0.2094 -0.0618
  305POPC   C2B 3792  15.594  14.624   8.907 -0.2114 -0.2223  0.0141
  305POPC   C3B 3793  15.763  14.683   8.535 -0.1014  0.1446  0.1399
  305POPC   C4B 3794  15.898  14.590   8.113 -0.0671 -0.1549  0.1073
  306POPC   NC3 3795   4.517   0.340   9.997 -0.1415 -0.1068 -0.4978
  306POPC   PO4 3796   4.382  -0.025  10.076  0.1645 -0.0956  0.0307
  306POPC   GL1 3797   4.469   0.009   9.635  0.0234 -0.3619 -0.3838
  306POPC   GL2 3798   4.449  -0.216   9.458 -0.3460 -0.0026  0.0794
  306POPC   C1A 3799   4.643   0.287   9.274  0.2491 -0.1278  0.1875
  306POPC   D2A 3800   4.708   0.365   8.911 -0.3000  0.3135 -0.3705
  306POPC   C3A 3801   5.090   0.290   8.781  0.3499 -0.2134 -0.0572
  306POPC   C4A 3802   5.490   0.442   8.575  0.1098 -0.0310 -0.1568
  306POPC   C1B 3803   4.288  -0.100   9.147  0.0262 -0.0024  0.3483
  306POPC   C2B 3804   4.323  -0.101   8.653 -0.0134 -0.2580 -0.0652
  306POPC   C3B 3805   4.472  -0.391   8.261 -0.1672 -0.1659  0.0697
  306POPC   C4B 3806   4.677  -0.668   8.029 -0.2987  0.0108  0.2490
  307POPC   NC3 3807   7.226   1.657  10.020 -0.1196  0.1373  0.1221
  307POPC   PO4 3808   6.999   1.404   9.648 -0.0364  0.2443 -0.4840
  307POPC   GL1 3809   6.873   1.714   9.291 -0.0170 -0.1085 -0.5412
  307POPC   GL2 3810   7.118   2.019   9.179  0.0998 -0.2106 -0.2158
  307POPC   C1A 3811   6.695   1.764   8.922  0.1187 -0.0342  0.1112
  307POPC   D2A 3812   6.615   1.926   8.548  0.1478 -0.0710 -0.0290
  307POPC   C3A 3813   6.798   1.981   8.225  0.0155 -0.1133  0.0033
  307POPC   C4A 3814   6.830   1.981   7.844 -0.4639  0.2424  0.1399
  307POPC   C1B 3815   7.082   2.149   8.735  0.3395 -0.1431 -0.0425
  307POPC   C2B 3816   6.962   2.474   8.403 -0.4287 -0.0317 -0.1193
  307POPC   C3B 3817   7.186   2.584   8.057  0.0503  0.0341  0.2619
  307POPC   C4B 3818   7.340   2.738   7.691 -0.3709 -0.1225  0.0777
  308YOPC   NC3 3819   4.548  10.510  10.918  0.1989 -0.0331  0.0410
  308YOPC   PO4 3820   4.649  10.097  10.827  0.0121 -0.0328 -0.0912
  308YOPC   GL1 3821   4.769  10.264  10.445 -0.1344  0.1962 -0.0882
  308YOPC   GL2 3822   4.767  10.550  10.318 -0.1312 -0.0475  0.1498
  308YOPC   C1A 3823   4.653  10.145  10.023 -0.0418 -0.2270 -0.0479
  308YOPC   D2A 3824   4.470   9.950   9.711  0.0056  0.0830 -0.0399
  308YOPC   C3A 3825   4.696   9.848   9.290 -0.1676 -0.0854  0.1842
  308YOPC   C4A 3826   4.995   9.915   8.940  0.0766  0.0267  0.0169
  308YOPC   C1B 3827   4.752  10.605   9.791  0.2021 -0.1423  0.3354
  308YOPC   C2B 3828   4.676  10.364   9.375 -0.3004  0.1216 -0.1233
  308YOPC   D3B 3829   4.389  10.215   9.159  0.0004  0.1074  0.2798
  308YOPC   C4B 3830   4.458   9.925   8.862 -0.0556 -0.1152 -0.0246
  309YOPC   NC3 3831   6.849   7.434  10.545  0.1907 -0.1144 -0.0037
  309YOPC   PO4 3832   7.370   7.484  10.428  0.5262 -0.4582 -0.0549
  309YOPC   GL1 3833   7.544   7.309  10.034  0.2288  0.1453 -0.2119
  309YOPC   GL2 3834   7.634   6.988   9.898  0.0900 -0.0815  0.1637
  309YOPC   C1A 3835   7.439   7.341   9.615  0.0546 -0.1035  0.3229
  309YOPC   D2A 3836   7.525   7.292   9.222 -0.1498 -0.1905  0.1719
  309YOPC   C3A 3837   7.261   7.362   8.996  0.2463  0.2092 -0.2542
  309YOPC   C4A 3838   7.186   7.184   8.523 -0.3077 -0.0383 -0.1585
  309YOPC   C1B 3839   7.895   6.939   9.523 -0.0500 -0.2285 -0.0627
  309YOPC   C2B 3840   7.992   7.227   9.290 -0.2029  0.1395  0.1521
  309YOPC   D3B 3841   7.821   7.385   8.764  0.0598 -0.1517 -0.0481
  309YOPC   C4B 3842   7.589   7.485   8.438 -0.0795 -0.0677  0.0347
  310YOPC   NC3 3843  11.952  17.991   9.783  0.1038 -0.3849  0.0309
  310YOPC   PO4 3844  11.612  18.246   9.676 -0.1752 -0.2177 -0.0127
  310YOPC   GL1 3845  11.838  18.150   9.247 -0.0943  0.0408  0.1606
  310YOPC   GL2 3846  12.240  18.266   9.275 -0.1969  0.1124 -0.3114
  310YOPC   C1A 3847  11.846  17.944   8.839 -0.1607  0.0189 -0.1007
  310YOPC   D2A 3848  11.876  18.231   8.464 -0.2455 -0.2740  0.0117
  310YOPC   C3A 3849  12.032  17.903   8.037 -0.0055 -0.4642  0.1885
  310YOPC   C4A 3850  11.748  17.448   7.987  0.0694 -0.2129 -0.2283
  310YOPC   C1B 3851  12.340  17.909   8.949 -0.2871  0.2081  0.1392
  310YOPC   C2B 3852  12.663  17.712   8.687  0.0136 -0.1510 -0.0277
  310YOPC   D3B 3853  12.785  17.337   8.421 -0.1584  0.0314  0.1585
  310YOPC   C4B 3854  12.635  17.063   8.123 -0.1175 -0.1877  0.0595
  311YOPC   NC3 3855  10.277   4.145   9.763 -0.0789  0.3661  0.1312
  311YOPC   PO4 3856  10.003   4.324  10.029 -0.0915 -0.0519  0.0470
  311YOPC   GL1 3857  10.094   4.709   9.811  0.0632  0.1440  0.3585
  311YOPC   GL2 3858  10.457   4.629   9.605  0.2120  0.0685  0.1760
  311YOPC   C1A 3859  10.061   4.916   9.331 -0.2145  0.1098 -0.3246
  311YOPC   D2A 3860  10.030   4.762   8.971 -0.0742  0.4344  0.1384
  311YOPC   C3A 3861  10.079   4.871   8.504  0.2129 -0.0948 -0.2198
  311YOPC   C4A 3862  10.185   5.090   8.188 -0.0320 -0.3209 -0.0889
  311YOPC   C1B 3863  10.399   4.513   9.141 -0.4199  0.0869 -0.0999
  311YOPC   C2B 3864  10.431   4.424   8.758 -0.0988 -0.0983  0.0457
  311YOPC   D3B 3865  10.561   4.741   8.378  0.0094  0.2077 -0.1350
  311YOPC   C4B 3866  10.783   5.073   8.340  0.0829 -0.3750  0.2199
  312YOPC   NC3 3867   7.613   2.428  10.051 -0.0194 -0.0328  0.0278
  312YOPC   PO4 3868   7.492   2.084   9.922  0.0818  0.0383 -0.4595
  312YOPC   GL1 3869   7.533   2.259   9.462 -0.3912  0.0810  0.3855
  312YOPC   GL2 3870   7.856   2.208   9.352  0.0892  0.1298  0.1593
  312YOPC   C1A 3871   7.455   2.421   9.117 -0.3220  0.2419  0.1830
  312YOPC   D2A 3872   7.434   2.517   8.678  0.2236  0.0179  0.3866
  312YOPC   C3A 3873   7.336   2.884   8.399 -0.0668 -0.0916 -0.1631
  312YOPC   C4A 3874   7.423   3.085   8.046  0.1470  0.1034 -0.0053
  312YOPC   C1B 3875   7.985   2.175   8.915 -0.3949  0.0885 -0.1252
  312YOPC   C2B 3876   8.173   2.418   8.416  0.0057 -0.1014 -0.0593
  312YOPC   D3B 3877   8.004   2.271   7.963 -0.0504  0.1671  0.2526
  312YOPC   C4B 3878   7.574   2.362   7.856 -0.0991  0.2152  0.1585
  313YOPC   NC3 3879   8.745   8.710  10.326 -0.1004  0.1928 -0.0619
  313YOPC   PO4 3880   8.789   8.335  10.524  0.1305  0.1674 -0.1641
  313YOPC   GL1 3881   8.500   8.285  10.145 -0.0047 -0.1116  0.1147
  313YOPC   GL2 3882   8.771   8.160   9.933  0.0267 -0.0336  0.0141
  313YOPC   C1A 3883   8.274   8.193   9.685  0.1071 -0.0348  0.1034
  313YOPC   D2A 3884   8.129   8.152   9.251 -0.2716  0.1644  0.0697
  313YOPC   C3A 3885   8.069   8.560   8.934 -0.1155  0.3185 -0.0868
  313YOPC   C4A 3886   8.008   8.807   8.466  0.2259  0.2634  0.1750
  313YOPC   C1B 3887   9.090   8.417   9.743  0.1495  0.1937  0.1680
  313YOPC   C2B 3888   9.466   8.164   9.560 -0.0787  0.1356 -0.2613
  313YOPC   D3B 3889   9.548   8.116   9.128  0.0582 -0.0080  0.3150
  313YOPC   C4B 3890   9.756   8.319   8.703 -0.3924  0.0011 -0.1657
  314YOPC   NC3 3891   1.563   1.487  10.462  0.1874 -0.0839  0.0911
  314YOPC   PO4 3892   1.094   1.529  10.466  0.4720  0.0783 -0.5794
  314YOPC   GL1 3893   1.234   1.571  10.134 -0.2348 -0.0428  0.1293
  314YOPC   GL2 3894   1.381   1.944  10.239  0.2368 -0.2219 -0.3075
  314YOPC   C1A 3895   1.177   1.548   9.700 -0.0615 -0.0629 -0.1306
  314YOPC   D2A 3896   0.962   1.834   9.365  0.1883 -0.3357 -0.0090
  314YOPC   C3A 3897   0.831   1.666   9.070  0.1704 -0.1503 -0.3050
  314YOPC   C4A 3898   0.489   1.557   8.751 -0.0261 -0.0086  0.2426
  314YOPC   C1B 3899   1.424   2.061   9.775 -0.1628  0.2887  0.0809
  314YOPC   C2B 3900   1.534   1.855   9.380  0.3441 -0.0283 -0.0956
  314YOPC   D3B 3901   1.312   1.765   8.933 -0.1324  0.2692 -0.0512
  314YOPC   C4B 3902   1.358   1.656   8.522 -0.3741 -0.0663  0.0213
  315YOPC   NC3 3903  10.567  15.308  10.515 -0.0941 -0.2867  0.0677
  315YOPC   PO4 3904  10.400  15.380   9.988  0.3748  0.0666 -0.3570
  315YOPC   GL1 3905  10.417  15.475   9.585  0.0398 -0.0983 -0.0172
  315YOPC   GL2 3906  10.535  15.160   9.543 -0.0902 -0.0921 -0.3809
  315YOPC   C1A 3907  10.363  15.622   9.235  0.0735  0.0273 -0.2232
  315YOPC   D2A 3908  10.482  15.523   8.823 -0.0067 -0.0952  0.1588
  315YOPC   C3A 3909  10.201  15.590   8.562 -0.1029 -0.2999 -0.1062
  315YOPC   C4A 3910   9.845  15.509   8.281  0.1586  0.2948 -0.0422
  315YOPC   C1B 3911  10.517  15.049   9.124  0.0653 -0.2031  0.0948
  315YOPC   C2B 3912  10.454  14.740   8.956 -0.0288  0.1839  0.2450
  315YOPC   D3B 3913  10.463  14.733   8.507  0.0621  0.2046  0.0547
  315YOPC   C4B 3914  10.673  14.857   8.070 -0.0488 -0.1385  0.1516
  316YOPC   NC3 3915  11.858   9.670  10.825  0.1773 -0.2029 -0.1537
  316YOPC   PO4 3916  11.392   9.727  10.765  0.1574  0.0548 -0.1356
  316YOPC   GL1 3917  11.391   9.851  10.364 -0.0685  0.3005 -0.0047
  316YOPC   GL2 3918  11.764   9.673  10.309 -0.2192 -0.3007  0.2806
  316YOPC   C1A 3919  11.056   9.991  10.057 -0.0185 -0.1439 -0.2364
  316YOPC   D2A 3920  10.904   9.660   9.893  0.0011 -0.1608 -0.0679
  316YOPC   C3A 3921  10.767   9.662   9.503  0.0202 -0.0184 -0.0753
  316YOPC   C4A 3922  10.591   9.531   9.107 -0.0582 -0.1168  0.2884
  316YOPC   C1B 3923  11.864   9.784   9.878  0.1694  0.4164  0.0157
  316YOPC   C2B 3924  11.955  10.101   9.668 -0.2434  0.1484  0.0596
  316YOPC   D3B 3925  11.798   9.986   9.291 -0.1535 -0.1136  0.4518
  316YOPC   C4B 3926  11.616   9.979   8.860 -0.1850 -0.4101  0.1200
  317YOPC   NC3 3927  10.319  11.561  11.024 -0.2743  0.0498 -0.1038
  317YOPC   PO4 3928  10.401  12.006  10.865  0.2181 -0.1769  0.3304
  317YOPC   GL1 3929  10.126  12.038  10.462  0.0788  0.0432  0.0976
  317YOPC   GL2 3930  10.285  11.960  10.253 -0.0452  0.0463  0.3395
  317YOPC   C1A 3931   9.882  11.665  10.086 -0.0877 -0.3519  0.0005
  317YOPC   D2A 3932   9.955  11.465   9.711 -0.0708  0.0925 -0.1444
  317YOPC   C3A 3933  10.335  11.186   9.644 -0.1361  0.0359  0.0443
  317YOPC   C4A 3934  10.438  10.923   9.257 -0.0484 -0.1231 -0.0036
  317YOPC   C1B 3935  10.244  11.914   9.841 -0.0661  0.1121  0.2366
  317YOPC   C2B 3936  10.406  11.659   9.537 -0.1547  0.1063 -0.3753
  317YOPC   D3B 3937  10.460  11.499   9.132 -0.1259  0.1280  0.1352
  317YOPC   C4B 3938  10.319  11.281   8.863 -0.1261  0.0400  0.2542
  318YOPC   NC3 3939  17.784   6.436  10.605 -0.0219  0.1969 -0.2360
  318YOPC   PO4 3940  17.507   6.178  10.252  0.2338 -0.0141  0.1139
  318YOPC   GL1 3941  17.703   5.978   9.844 -0.1464  0.0840  0.0954
  318YOPC   GL2 3942  17.391   5.891   9.713 -0.1169 -0.2168 -0.0725
  318YOPC   C1A 3943  17.883   5.806   9.513  0.0596 -0.0271 -0.0932
  318YOPC   D2A 3944  18.272   6.000   9.348  0.2004  0.1986 -0.1365
  318YOPC   C3A 3945  18.697   6.038   9.556  0.2375 -0.0948 -0.1808
  318YOPC   C4A 3946  19.016   6.117   9.380  0.2590 -0.2504  0.2030
  318YOPC   C1B 3947  17.506   5.866   9.243  0.3484  0.0941 -0.1348
  318YOPC   C2B 3948  17.434   5.831   8.880 -0.1072 -0.2644 -0.1023
  318YOPC   D3B 3949  17.465   5.999   8.455 -0.3447 -0.0199  0.2223
  318YOPC   C4B 3950  17.719   6.091   8.146 -0.1269  0.1013 -0.2579
  319YOPC   NC3 3951  14.749  12.971  10.293  0.0970 -0.1898 -0.3135
  319YOPC   PO4 3952  14.376  13.248  10.463 -0.1087  0.3107 -0.0982
  319YOPC   GL1 3953  14.345  13.221  10.061 -0.1530 -0.3478  0.1032
  319YOPC   GL2 3954  14.540  13.250   9.817  0.1260 -0.0414  0.0913
  319YOPC   C1A 3955  14.049  13.415   9.810  0.2104 -0.0526  0.0147
  319YOPC   D2A 3956  13.904  13.604   9.488 -0.4449 -0.0446 -0.3736
  319YOPC   C3A 3957  13.918  13.495   9.077  0.2325 -0.1435 -0.0147
  319YOPC   C4A 3958  13.596  13.406   8.780 -0.1552 -0.1899 -0.0637
  319YOPC   C1B 3959  14.392  13.430   9.412  0.1368  0.2691  0.1313
  319YOPC   C2B 3960  14.315  13.776   9.152  0.0526  0.0854 -0.0251
  319YOPC   D3B 3961  14.266  13.673   8.695 -0.1610 -0.2250 -0.0670
  319YOPC   C4B 3962  13.823  13.673   8.443 -0.0853  0.0997  0.4167
  320YOPC   NC3 3963   2.179   2.193  10.373  0.0288 -0.1776  0.1164
  320YOPC   PO4 3964   1.905   1.848  10.281  0.0916 -0.3337  0.1800
  320YOPC   GL1 3965   2.057   1.839   9.973 -0.1644  0.1065  0.1251
  320YOPC   GL2 3966   2.393   1.833  10.010  0.1609 -0.0233 -0.0170
  320YOPC   C1A 3967   2.015   1.926   9.574  0.0323 -0.2242  0.0068
  320YOPC   D2A 3968   2.025   1.759   9.226 -0.2045  0.0536  0.0432
  320YOPC   C3A 3969   1.798   1.822   8.916 -0.2489  0.1288  0.0672
  320YOPC   C4A 3970   1.753   1.894   8.427  0.1517 -0.1854 -0.0603
  320YOPC   C1B 3971   2.411   1.612   9.582 -0.0906 -0.0134 -0.1462
  320YOPC   C2B 3972   2.507   1.676   9.118 -0.0422 -0.1758  0.0685
  320YOPC   D3B 3973   2.679   1.940   9.009 -0.0961 -0.0681 -0.0136
  320YOPC   C4B 3974   2.694   1.941   8.534 -0.0655  0.4070  0.0746
  321YOPC   NC3 3975   4.386  11.478  11.027  0.0579  0.2084  0.3685
  321YOPC   PO4 3976   4.541  11.067  10.745 -0.1510  0.1294  0.0734
  321YOPC   GL1 3977   4.341  10.877  10.352 -0.1621  0.0001 -0.0284
  321YOPC   GL2 3978   3.992  10.966  10.247  0.1135 -0.2188 -0.0666
  321YOPC   C1A 3979   4.312  10.515  10.129  0.1000  0.1068  0.0059
  321YOPC   D2A 3980   4.112  10.125  10.014  0.0673  0.2960  0.2086
  321YOPC   C3A 3981   4.023  10.034   9.489 -0.0041 -0.0616  0.3415
  321YOPC   C4A 3982   3.962   9.724   9.057  0.0636  0.0215 -0.1212
  321YOPC   C1B 3983   3.922  10.644   9.937 -0.1227  0.3554 -0.0278
  321YOPC   C2B 3984   3.813  10.490   9.602  0.3091 -0.0049  0.0805
  321YOPC   D3B 3985   3.943  10.455   9.230  0.0985  0.0150  0.1712
  321YOPC   C4B 3986   3.961  10.272   8.760 -0.2527 -0.0888  0.0120
  322YOPC   NC3 3987   1.086   0.496  10.331  0.0266 -0.2886 -0.1017
  322YOPC   PO4 3988   1.071   0.122  10.119  0.1318 -0.0394  0.1469
  322YOPC   GL1 3989   1.000   0.143   9.746  0.0890  0.1464  0.0096
  322YOPC   GL2 3990   1.111   0.329   9.429 -0.3557 -0.1005  0.2318
  322YOPC   C1A 3991   0.673   0.292   9.618 -0.0700  0.0980  0.2091
  322YOPC   D2A 3992   0.280   0.472   9.788  0.0093  0.0889 -0.2687
  322YOPC   C3A 3993   0.054   0.572   9.482 -0.0566 -0.0227  0.0234
  322YOPC   C4A 3994  -0.142   0.835   9.207  0.0012  0.1453 -0.1355
  322YOPC   C1B 3995   0.921   0.034   9.137 -0.0372 -0.1444 -0.0682
  322YOPC   C2B 3996   1.051  -0.229   8.839  0.1194  0.2475 -0.1495
  322YOPC   D3B 3997   0.727  -0.416   8.654  0.0711 -0.0921  0.1288
  322YOPC   C4B 3998   0.634  -0.754   8.261 -0.0320  0.3481 -0.0222
  323YOPC   NC3 3999  14.204   8.546  10.841 -0.1374 -0.2350 -0.1976
  323YOPC   PO4 4000  14.651   8.722  10.743  0.0011  0.0696  0.0114
  323YOPC   GL1 4001  14.643   8.815  10.250  0.2498  0.1665 -0.0571
  323YOPC   GL2 4002  14.856   9.036  10.132  0.2298  0.0184 -0.2726
  323YOPC   C1A 4003  14.551   8.831   9.782 -0.2150  0.0259 -0.0681
  323YOPC   D2A 4004  14.413   8.887   9.363  0.1730 -0.0596 -0.1415
  323YOPC   C3A 4005  14.112   8.593   9.217 -0.0588 -0.0671  0.0193
  323YOPC   C4A 4006  14.196   8.250   9.007  0.1850 -0.0112 -0.2120
  323YOPC   C1B 4007  14.953   9.200   9.759 -0.1089 -0.0989  0.0979
  323YOPC   C2B 4008  14.943   9.246   9.359 -0.0109 -0.0416 -0.1523
  323YOPC   D3B 4009  14.760   9.026   9.003 -0.0081  0.3408 -0.2837
  323YOPC   C4B 4010  14.533   8.593   8.872  0.2065 -0.1823  0.0180
  324YOPC   NC3 4011   4.534  14.124  10.483 -0.1885 -0.0575 -0.1890
  324YOPC   PO4 4012   4.541  14.519  10.558  0.2597  0.0949  0.0045
  324YOPC   GL1 4013   4.381  14.694  10.138 -0.1506 -0.0637  0.1588
  324YOPC   GL2 4014   4.434  15.013  10.023  0.0191  0.1458 -0.0049
  324YOPC   C1A 4015   4.474  14.593   9.680 -0.1059  0.0641  0.1703
  324YOPC   D2A 4016   4.440  14.442   9.298  0.0374  0.1663 -0.3321
  324YOPC   C3A 4017   4.654  14.332   8.994  0.0114  0.2736 -0.0568
  324YOPC   C4A 4018   4.654  14.425   8.547 -0.1203  0.1579  0.0353
  324YOPC   C1B 4019   4.814  14.974   9.674 -0.0018 -0.0479  0.0431
  324YOPC   C2B 4020   4.846  14.768   9.398 -0.0931  0.2752 -0.0956
  324YOPC   D3B 4021   4.969  14.414   9.384 -0.1318 -0.3518 -0.0266
  324YOPC   C4B 4022   5.249  14.231   9.093  0.0113  0.0462 -0.2445
  325YOPC   NC3 4023   9.159  16.567   9.442  0.0295  0.1428  0.2251
  325YOPC   PO4 4024   9.600  16.576   9.597  0.0339  0.1447 -0.0872
  325YOPC   GL1 4025   9.591  16.469   9.223  0.3439 -0.2238  0.1380
  325YOPC   GL2 4026   9.756  16.229   9.226  0.2867  0.1320 -0.0300
  325YOPC   C1A 4027   9.485  16.564   8.823  0.1641 -0.1161  0.0588
  325YOPC   D2A 4028   9.531  16.803   8.463 -0.0277  0.0514  0.1584
  325YOPC   C3A 4029   9.865  17.105   8.439 -0.2784  0.1273  0.1539
  325YOPC   C4A 4030  10.067  17.160   8.012 -0.0820  0.3632  0.2599
  325YOPC   C1B 4031   9.612  16.016   8.888 -0.1256 -0.2415  0.1387
  325YOPC   C2B 4032   9.243  15.725   8.623 -0.1245 -0.0213  0.2589
  325YOPC   D3B 4033   9.222  15.383   8.955  0.2560  0.3066  0.1515
  325YOPC   C4B 4034   9.477  15.220   9.175 -0.2461  0.0064 -0.0423
  326YOPC   NC3 4035   6.093  13.474  10.697 -0.2282  0.2407 -0.1061
  326YOPC   PO4 4036   5.793  13.067  10.802 -0.0186  0.1679 -0.3963
  326YOPC   GL1 4037   5.939  13.095  10.363 -0.1068  0.1783  0.0593
  326YOPC   GL2 4038   6.073  13.309  10.230  0.4500 -0.1117  0.0041
  326YOPC   C1A 4039   6.055  12.940   9.929  0.3582  0.0717 -0.2880
  326YOPC   D2A 4040   6.123  12.772   9.577 -0.0724 -0.2267  0.0332
  326YOPC   C3A 4041   6.024  12.599   9.195 -0.1378  0.0488  0.2037
  326YOPC   C4A 4042   5.671  12.655   8.880  0.0007 -0.1823  0.0420
  326YOPC   C1B 4043   6.020  13.524   9.945  0.2692  0.1319  0.1889
  326YOPC   C2B 4044   5.873  13.561   9.641  0.0006  0.4569  0.0801
  326YOPC   D3B 4045   5.983  13.721   9.331  0.0942 -0.2307 -0.0365
  326YOPC   C4B 4046   6.003  13.653   8.909  0.1178  0.1014 -0.1193
  327YOPC   NC3 4047  17.896   1.231  10.827 -0.2697 -0.0036  0.1525
  327YOPC   PO4 4048  17.661   1.633  10.535 -0.1908 -0.4087  0.1043
  327YOPC   GL1 4049  17.541   1.494  10.081 -0.2564 -0.2376  0.0585
  327YOPC   GL2 4050  17.732   1.386   9.917  0.0047 -0.0491  0.0819
  327YOPC   C1A 4051  17.176   1.395   9.789  0.4721 -0.3911 -0.3058
  327YOPC   D2A 4052  17.235   1.347   9.327  0.4113 -0.1832  0.3054
  327YOPC   C3A 4053  17.374   1.661   9.013 -0.0553 -0.3243 -0.0305
  327YOPC   C4A 4054  17.082   1.914   8.703 -0.0076 -0.2168  0.3790
  327YOPC   C1B 4055  17.735   1.524   9.466  0.0273 -0.1195  0.2197
  327YOPC   C2B 4056  17.917   1.661   9.062  0.0939 -0.2535  0.1531
  327YOPC   D3B 4057  17.695   1.729   8.642 -0.2087 -0.1444 -0.0981
  327YOPC   C4B 4058  17.846   1.952   8.339 -0.3747 -0.2911 -0.2171
  328YOPC   NC3 4059  10.876   1.925   9.825  0.1074 -0.0386  0.1750
  328YOPC   PO4 4060  10.633   1.548   9.701 -0.1405 -0.0173 -0.3577
  328YOPC   GL1 4061  10.769   1.709   9.363  0.1397 -0.1874 -0.0181
  328YOPC   GL2 4062  10.553   1.948   9.404  0.1771 -0.2607 -0.1089
  328YOPC   C1A 4063  10.767   1.715   8.845  0.0531  0.1417 -0.3362
  328YOPC   D2A 4064  10.488   1.550   8.593  0.2851 -0.2773  0.1851
  328YOPC   C3A 4065  10.585   1.406   8.214 -0.4366  0.0221 -0.2759
  328YOPC   C4A 4066  10.400   1.033   7.996 -0.2242 -0.0037  0.0877
  328YOPC   C1B 4067  10.414   2.328   9.179 -0.1785 -0.1167  0.1313
  328YOPC   C2B 4068  10.126   2.588   9.019  0.0121  0.1284  0.0761
  328YOPC   D3B 4069  10.063   2.664   8.582 -0.1079  0.3418  0.1732
  328YOPC   C4B 4070  10.293   2.872   8.193 -0.2208 -0.1445 -0.4938
  329YOPC   NC3 4071  11.057  17.207  10.033 -0.1308  0.0675  0.0594
  329YOPC   PO4 4072  10.777  17.227   9.716 -0.2562  0.1301  0.0949
  329YOPC   GL1 4073  10.787  17.535   9.343 -0.1485 -0.1197  0.0876
  329YOPC   GL2 4074  10.467  17.570   9.165 -0.1902 -0.0473 -0.1508
  329YOPC   C1A 4075  11.217  17.521   8.978  0.1883 -0.1642 -0.0882
  329YOPC   D2A 4076  11.143  17.505   8.590 -0.2900  0.0285  0.3095
  329YOPC   C3A 4077  11.401  17.600   8.329  0.2462  0.0940  0.0695
  329YOPC   C4A 4078  11.579  17.974   8.151 -0.3174  0.3193  0.0389
  329YOPC   C1B 4079  10.724  17.409   8.815 -0.1977 -0.0361 -0.1829
  329YOPC   C2B 4080  10.804  17.188   8.450 -0.0480 -0.1677  0.1853
  329YOPC   D3B 4081  11.039  17.330   8.130 -0.1694 -0.0502  0.2279
  329YOPC   C4B 4082  11.299  17.186   7.922 -0.1268 -0.2565 -0.0808
  330YOPC   NC3 4083   8.796  14.444  10.326  0.2005 -0.0031  0.2501
  330YOPC   PO4 4084   9.149  14.317  10.097  0.3096 -0.0004  0.1061
  330YOPC   GL1 4085   9.297  14.215   9.702 -0.2021 -0.0617  0.1620
  330YOPC   GL2 4086   9.409  13.948   9.747 -0.0505 -0.2657 -0.1421
  330YOPC   C1A 4087   9.210  14.413   9.389  0.3222  0.3816  0.2219
  330YOPC   D2A 4088   8.986  14.471   8.993  0.3491 -0.1335 -0.0770
  330YOPC   C3A 4089   9.004  14.505   8.553 -0.4529 -0.0434  0.2989
  330YOPC   C4A 4090   9.203  14.494   8.079  0.2657  0.0622  0.1455
  330YOPC   C1B 4091   9.288  13.811   9.346 -0.0767 -0.0590  0.3636
  330YOPC   C2B 4092   9.225  13.687   8.930 -0.1159 -0.1614  0.0318
  330YOPC   D3B 4093   9.079  13.521   8.566  0.0252  0.1235 -0.0477
  330YOPC   C4B 4094   8.944  13.463   8.133 -0.5677 -0.0159  0.0765
  331YOPC   NC3 4095   6.797  11.745  10.910 -0.0798  0.0261  0.1333
  331YOPC   PO4 4096   6.803  11.345  10.640 -0.2250  0.0538 -0.0366
  331YOPC   GL1 4097   6.807  11.158  10.284  0.0207  0.2168  0.1057
  331YOPC   GL2 4098   6.692  10.738  10.177  0.2096 -0.0363 -0.1196
  331YOPC   C1A 4099   6.753  11.132   9.918 -0.0573  0.1542 -0.1822
  331YOPC   D2A 4100   6.902  10.973   9.497  0.2058 -0.2319 -0.1251
  331YOPC   C3A 4101   6.674  10.916   9.073  0.1045 -0.2355  0.1183
  331YOPC   C4A 4102   6.548  10.659   8.743  0.1545 -0.0516  0.0914
  331YOPC   C1B 4103   6.664  10.498   9.796 -0.0446 -0.1501 -0.2037
  331YOPC   C2B 4104   6.568  10.483   9.279  0.0129 -0.1689 -0.0381
  331YOPC   D3B 4105   6.954  10.400   8.972 -0.0925  0.3130 -0.0146
  331YOPC   C4B 4106   7.418  10.303   9.020  0.1181 -0.2107 -0.0475
  332YOPC   NC3 4107   2.015   7.854  11.072  0.0165  0.0648 -0.3221
  332YOPC   PO4 4108   1.774   7.451  10.954 -0.2465 -0.0725 -0.1459
  332YOPC   GL1 4109   1.837   7.306  10.646 -0.1048 -0.1756  0.2329
  332YOPC   GL2 4110   1.781   7.495  10.322  0.3968 -0.2425 -0.0328
  332YOPC   C1A 4111   1.888   7.054  10.234 -0.1426 -0.0662  0.0567
  332YOPC   D2A 4112   2.088   6.998   9.828  0.1845  0.0794  0.0787
  332YOPC   C3A 4113   2.216   6.745   9.522 -0.0868 -0.0272  0.0350
  332YOPC   C4A 4114   2.333   6.793   9.189  0.0874  0.0831  0.2667
  332YOPC   C1B 4115   1.905   7.482   9.877 -0.1105  0.1937 -0.0175
  332YOPC   C2B 4116   1.672   7.648   9.488  0.0332  0.1455 -0.2937
  332YOPC   D3B 4117   1.895   7.639   9.104  0.2031  0.0093 -0.0126
  332YOPC   C4B 4118   1.898   7.389   8.784 -0.0181 -0.1563  0.0219
  333YOPC   NC3 4119   7.722  17.774   9.751 -0.1854  0.2032  0.1269
  333YOPC   PO4 4120   7.770  17.339   9.587 -0.3844 -0.0827 -0.0510
  333YOPC   GL1 4121   7.584  17.170   9.229 -0.0163  0.0315  0.0349
  333YOPC   GL2 4122   7.255  17.179   9.208  0.1154 -0.0465 -0.2390
  333YOPC   C1A 4123   7.579  17.078   8.788  0.1174 -0.3373  0.2656
  333YOPC   D2A 4124   7.586  16.935   8.423 -0.1938 -0.0156  0.4087
  333YOPC   C3A 4125   7.565  16.448   8.296 -0.0593  0.0895  0.1430
  333YOPC   C4A 4126   7.785  16.109   8.333 -0.2819 -0.3396  0.2944
  333YOPC   C1B 4127   6.971  17.314   8.919  0.0785 -0.0049  0.0274
  333YOPC   C2B 4128   6.715  17.251   8.603  0.3285 -0.1647  0.0623
  333YOPC   D3B 4129   6.749  17.092   8.140 -0.2201 -0.2584 -0.2381
  333YOPC   C4B 4130   6.716  16.921   7.796  0.0195 -0.1970  0.0923
  334YOPC   NC3 4131   4.881  18.133  10.050  0.2308  0.0871 -0.0659
  334YOPC   PO4 4132   4.760  17.831   9.817 -0.1478  0.0393 -0.2665
  334YOPC   GL1 4133   5.017  18.004   9.470  0.0389  0.0159  0.2534
  334YOPC   GL2 4134   5.299  18.083   9.508 -0.0836  0.3748 -0.0824
  334YOPC   C1A 4135   4.876  18.100   9.068 -0.0075 -0.2443  0.1643
  334YOPC   D2A 4136   4.808  18.146   8.613  0.1429  0.1182 -0.0143
  334YOPC   C3A 4137   4.618  18.464   8.307 -0.1445 -0.0792 -0.1172
  334YOPC   C4A 4138   4.111  18.617   8.165 -0.0878  0.2156 -0.0594
  334YOPC   C1B 4139   5.292  18.481   9.268  0.0347 -0.1838  0.0301
  334YOPC   C2B 4140   5.040  18.894   9.180 -0.1392  0.0526 -0.2331
  334YOPC   D3B 4141   5.133  19.027   8.839  0.3760  0.0544 -0.0607
  334YOPC   C4B 4142   4.935  19.010   8.489  0.2839 -0.1646  0.0022
  335YOPC   NC3 4143  16.423   0.942  10.361  0.0621 -0.2867 -0.2009
  335YOPC   PO4 4144  16.258   0.585  10.139 -0.0651 -0.3773 -0.0412
  335YOPC   GL1 4145  16.529   0.789   9.827 -0.0407  0.0009 -0.1674
  335YOPC   GL2 4146  16.553   1.089   9.620 -0.0895 -0.1189 -0.1440
  335YOPC   C1A 4147  16.993   0.908   9.732 -0.0350 -0.0209 -0.1368
  335YOPC   D2A 4148  17.193   0.892   9.286 -0.1574  0.0194 -0.1355
  335YOPC   C3A 4149  17.041   0.832   8.912 -0.1898  0.0474 -0.1774
  335YOPC   C4A 4150  16.890   0.543   8.607 -0.3193 -0.3026 -0.0598
  335YOPC   C1B 4151  16.643   0.802   9.321  0.1945  0.0363  0.0305
  335YOPC   C2B 4152  16.569   0.579   8.963  0.0467  0.0406 -0.1565
  335YOPC   D3B 4153  16.375   0.586   8.507 -0.0891  0.0625  0.2493
  335YOPC   C4B 4154  16.415   0.724   8.143  0.2156 -0.2458 -0.1203
  336YOPC   NC3 4155  12.732   5.821  10.821  0.2218  0.0805  0.0798
  336YOPC   PO4 4156  12.876   5.574  10.487  0.1259 -0.0997 -0.1850
  336YOPC   GL1 4157  13.043   5.697  10.091 -0.0453  0.1432  0.0422
  336YOPC   GL2 4158  13.236   5.878  10.096  0.0234  0.1526  0.0462
  336YOPC   C1A 4159  12.867   5.814   9.688  0.2019  0.0944  0.1005
  336YOPC   D2A 4160  12.714   5.843   9.323  0.0925  0.1136  0.1428
  336YOPC   C3A 4161  12.810   5.850   8.981  0.1263 -0.2446  0.0580
  336YOPC   C4A 4162  12.914   6.188   8.730  0.2645  0.1653 -0.2544
  336YOPC   C1B 4163  13.252   6.040   9.691 -0.3914 -0.0577  0.1241
  336YOPC   C2B 4164  13.153   6.123   9.268  0.1815  0.0524  0.0983
  336YOPC   D3B 4165  13.371   6.103   8.993  0.1887 -0.1739  0.3640
  336YOPC   C4B 4166  13.419   5.995   8.539 -0.0837 -0.0631 -0.1150
  337YOPC   NC3 4167   6.720   6.847  10.904  0.0229 -0.1308  0.0807
  337YOPC   PO4 4168   6.471   7.054  10.595  0.0318 -0.1468 -0.1635
  337YOPC   GL1 4169   6.403   7.343  10.283 -0.3974  0.0449 -0.0461
  337YOPC   GL2 4170   6.081   7.568  10.205  0.2737 -0.0374  0.1000
  337YOPC   C1A 4171   6.639   7.329   9.820  0.0681 -0.0737  0.0337
  337YOPC   D2A 4172   6.921   7.366   9.436 -0.0069  0.0835 -0.0896
  337YOPC   C3A 4173   6.741   7.163   9.013  0.0285 -0.1049 -0.0104
  337YOPC   C4A 4174   6.696   7.179   8.617 -0.3263 -0.1520  0.1700
  337YOPC   C1B 4175   6.250   7.638   9.847 -0.1644  0.1766  0.0250
  337YOPC   C2B 4176   6.173   7.674   9.427 -0.1307  0.1174 -0.0597
  337YOPC   D3B 4177   6.548   7.553   9.204  0.1036 -0.1807  0.2302
  337YOPC   C4B 4178   6.865   7.829   9.257  0.1378  0.3640 -0.1337
  338YOPC   NC3 4179   5.726   4.157  10.540  0.0527 -0.1557 -0.0555
  338YOPC   PO4 4180   6.105   4.412  10.460 -0.4001  0.2366 -0.3940
  338YOPC   GL1 4181   6.014   4.191  10.081 -0.1813  0.1343  0.0510
  338YOPC   GL2 4182   5.930   3.843   9.998 -0.0266  0.0732 -0.0267
  338YOPC   C1A 4183   6.027   4.130   9.603  0.1625 -0.1165 -0.1621
  338YOPC   D2A 4184   6.132   4.036   9.255  0.1067  0.1893 -0.3184
  338YOPC   C3A 4185   6.551   3.894   9.333  0.2929 -0.0448 -0.1603
  338YOPC   C4A 4186   6.892   3.596   9.333 -0.1594 -0.0880  0.1655
  338YOPC   C1B 4187   5.554   4.057   9.851 -0.2013 -0.1338  0.1876
  338YOPC   C2B 4188   5.531   4.183   9.405  0.1280  0.1023 -0.1865
  338YOPC   D3B 4189   5.653   4.335   9.018  0.2131 -0.1850  0.0762
  338YOPC   C4B 4190   5.740   4.285   8.573  0.3003 -0.4026  0.0101
  339YOPC   NC3 4191   3.747   7.590  10.430  0.0871 -0.0016  0.2509
  339YOPC   PO4 4192   4.163   7.848  10.565 -0.0340  0.0188 -0.3389
  339YOPC   GL1 4193   4.038   7.894  10.084  0.2272  0.1206  0.1094
  339YOPC   GL2 4194   4.262   8.137  10.021  0.0437  0.1967 -0.0902
  339YOPC   C1A 4195   3.878   7.827   9.640  0.1715 -0.0520  0.2464
  339YOPC   D2A 4196   3.889   7.710   9.246 -0.0705  0.1451 -0.0426
  339YOPC   C3A 4197   3.587   7.533   8.969 -0.1853  0.4913  0.1696
  339YOPC   C4A 4198   3.277   7.635   8.699 -0.0319  0.2450 -0.0038
  339YOPC   C1B 4199   4.427   8.306   9.676  0.2619 -0.1823 -0.1785
  339YOPC   C2B 4200   4.522   8.462   9.410 -0.0416  0.0840  0.2874
  339YOPC   D3B 4201   4.347   8.542   9.035 -0.0872  0.1273 -0.1311
  339YOPC   C4B 4202   4.554   8.610   8.617  0.4062 -0.1998  0.2602
  340YOPC   NC3 4203   3.281  16.515  10.166 -0.1671 -0.0192  0.0286
  340YOPC   PO4 4204   3.075  16.836   9.915  0.0160 -0.0441 -0.0807
  340YOPC   GL1 4205   3.261  16.615   9.540 -0.0966  0.0076  0.0040
  340YOPC   GL2 4206   3.259  16.245   9.423  0.1646 -0.2924  0.1878
  340YOPC   C1A 4207   3.698  16.445   9.358 -0.0127 -0.1286 -0.1523
  340YOPC   D2A 4208   4.068  16.223   9.190 -0.0832 -0.1644  0.0309
  340YOPC   C3A 4209   4.103  16.284   8.723 -0.3734 -0.3512 -0.1543
  340YOPC   C4A 4210   4.195  16.653   8.538 -0.0184  0.1413 -0.0868
  340YOPC   C1B 4211   3.324  16.461   9.001 -0.3983  0.0992  0.0309
  340YOPC   C2B 4212   3.249  16.516   8.604  0.2641 -0.4946  0.3134
  340YOPC   D3B 4213   3.216  16.823   8.352 -0.0707  0.0903  0.0740
  340YOPC   C4B 4214   3.275  16.955   8.013  0.0346 -0.0788 -0.0845
  341YOPC   NC3 4215   8.651   3.543  10.304 -0.0345 -0.1329  0.1565
  341YOPC   PO4 4216   8.382   3.819  10.304 -0.1921  0.0529  0.1878
  341YOPC   GL1 4217   8.256   3.625   9.898  0.1270  0.2136  0.0849
  341YOPC   GL2 4218   8.430   3.880   9.620 -0.1356 -0.1257  0.3010
  341YOPC   C1A 4219   7.998   3.636   9.581  0.0686 -0.0830  0.0674
  341YOPC   D2A 4220   7.961   3.577   9.204 -0.3029 -0.1905  0.1680
  341YOPC   C3A 4221   8.137   3.631   8.863  0.1392 -0.2292 -0.0183
  341YOPC   C4A 4222   8.188   3.534   8.445 -0.0789  0.3093 -0.0456
  341YOPC   C1B 4223   8.341   3.923   9.253  0.0688  0.2586 -0.2797
  341YOPC   C2B 4224   8.366   4.060   8.805 -0.5895  0.2912  0.0352
  341YOPC   D3B 4225   8.033   3.967   8.489  0.1875 -0.0515 -0.2707
  341YOPC   C4B 4226   7.706   4.237   8.277  0.0259  0.0924  0.0758
  342YOPC   NC3 4227  10.289   5.587  10.542 -0.3945  0.1516 -0.0758
  342YOPC   PO4 4228  10.714   5.723  10.531  0.1696 -0.0980  0.2017
  342YOPC   GL1 4229  10.562   6.086  10.273  0.2449 -0.2647 -0.0905
  342YOPC   GL2 4230  10.402   6.016  10.095  0.0910  0.0298 -0.0251
  342YOPC   C1A 4231  10.773   6.373  10.042 -0.0106 -0.0240  0.2322
  342YOPC   D2A 4232  11.181   6.498  10.116  0.1719 -0.3185 -0.1916
  342YOPC   C3A 4233  11.437   6.647   9.837  0.1583 -0.1845  0.4581
  342YOPC   C4A 4234  11.615   6.678   9.513 -0.0931 -0.0988 -0.2386
  342YOPC   C1B 4235  10.295   5.899   9.684 -0.1245 -0.1711 -0.0636
  342YOPC   C2B 4236  10.452   6.146   9.221  0.1652 -0.2708 -0.0030
  342YOPC   D3B 4237  10.157   6.399   8.981 -0.1133 -0.0831 -0.0961
  342YOPC   C4B 4238  10.055   6.631   8.589  0.2659 -0.1945 -0.0235
  343YOPC   NC3 4239  12.561  15.379  10.131 -0.0819 -0.4361 -0.1300
  343YOPC   PO4 4240  12.143  15.336  10.190 -0.0652 -0.1124 -0.0058
  343YOPC   GL1 4241  11.894  15.201   9.792  0.2459 -0.0577  0.1073
  343YOPC   GL2 4242  12.154  14.991   9.590 -0.1108  0.0801 -0.0150
  343YOPC   C1A 4243  11.955  15.182   9.206 -0.2178  0.0733  0.0120
  343YOPC   D2A 4244  12.011  14.924   8.834  0.0432 -0.0433  0.0657
  343YOPC   C3A 4245  12.025  15.048   8.387 -0.1400 -0.4416 -0.0889
  343YOPC   C4A 4246  12.199  14.957   8.014 -0.0610 -0.1108 -0.1022
  343YOPC   C1B 4247  12.447  15.064   9.254  0.1467 -0.2887 -0.0575
  343YOPC   C2B 4248  12.546  14.981   8.881  0.0098  0.2364 -0.1669
  343YOPC   D3B 4249  12.541  14.831   8.454 -0.0239  0.2368  0.2053
  343YOPC   C4B 4250  12.417  14.519   8.162 -0.0625  0.2693 -0.2354
  344YOPC   NC3 4251  12.495   2.347  10.032  0.1594 -0.3567 -0.4642
  344YOPC   PO4 4252  12.710   2.715   9.864  0.0736 -0.0349  0.0803
  344YOPC   GL1 4253  12.323   2.657   9.647  0.2572  0.1560 -0.1301
  344YOPC   GL2 4254  12.139   2.414   9.722  0.1187 -0.0028  0.0727
  344YOPC   C1A 4255  12.444   2.991   9.347 -0.1910 -0.2039 -0.0962
  344YOPC   D2A 4256  12.690   3.362   9.187 -0.1803  0.1004  0.1150
  344YOPC   C3A 4257  12.609   3.314   8.760  0.0704 -0.1662 -0.1534
  344YOPC   C4A 4258  12.835   3.350   8.396  0.2490  0.0395 -0.0072
  344YOPC   C1B 4259  12.150   2.229   9.405 -0.1702 -0.0621  0.1718
  344YOPC   C2B 4260  11.947   2.172   9.095  0.0054 -0.5363  0.0049
  344YOPC   D3B 4261  11.868   2.387   8.691  0.0754 -0.0540  0.1399
  344YOPC   C4B 4262  11.777   2.440   8.194  0.1426 -0.0231 -0.1342
  345YOPC   NC3 4263   9.737   6.466  10.515 -0.2172 -0.1832 -0.1331
  345YOPC   PO4 4264  10.110   6.461  10.258 -0.0117  0.1572 -0.2219
  345YOPC   GL1 4265  10.397   6.670   9.958 -0.2362 -0.0532 -0.1486
  345YOPC   GL2 4266  10.234   6.884   9.719 -0.2430 -0.0766  0.1145
  345YOPC   C1A 4267  10.587   6.544   9.541  0.1508 -0.1461 -0.2793
  345YOPC   D2A 4268  10.751   6.727   9.124 -0.1822 -0.2328 -0.1100
  345YOPC   C3A 4269  10.969   6.700   8.712  0.1156 -0.1753  0.1798
  345YOPC   C4A 4270  11.238   6.597   8.366  0.0407  0.0050  0.1441
  345YOPC   C1B 4271  10.272   6.862   9.277  0.1183 -0.0914  0.0669
  345YOPC   C2B 4272  10.291   7.064   8.936 -0.3019  0.1343 -0.0285
  345YOPC   D3B 4273  10.469   6.807   8.704  0.0608  0.1610  0.1733
  345YOPC   C4B 4274  10.578   6.400   8.646  0.0158 -0.0279  0.0280
  346YOPC   NC3 4275   3.835   1.751  10.465  0.1350 -0.0142 -0.1359
  346YOPC   PO4 4276   3.603   2.113  10.506  0.2099  0.0734  0.3786
  346YOPC   GL1 4277   3.611   2.375  10.135 -0.1103 -0.0986 -0.1707
  346YOPC   GL2 4278   3.631   2.612  10.292  0.1851 -0.0736  0.1125
  346YOPC   C1A 4279   3.566   2.443   9.747 -0.3573 -0.0120 -0.0190
  346YOPC   D2A 4280   3.252   2.484   9.511  0.0428 -0.0401  0.1918
  346YOPC   C3A 4281   3.263   2.122   9.196 -0.2839  0.0220 -0.1100
  346YOPC   C4A 4282   3.103   2.077   8.779 -0.1111 -0.0846 -0.0792
  346YOPC   C1B 4283   3.651   2.940  10.113 -0.4488 -0.0599 -0.2774
  346YOPC   C2B 4284   3.384   3.225   9.947 -0.1559  0.0915  0.0067
  346YOPC   D3B 4285   3.328   3.449   9.574  0.2682 -0.2689 -0.2352
  346YOPC   C4B 4286   3.530   3.745   9.294 -0.1189 -0.0326  0.2222
  347YOPC   NC3 4287  11.546   0.574   9.636  0.1104 -0.1435 -0.1867
  347YOPC   PO4 4288  11.976   0.495   9.476  0.2986  0.0953  0.2233
  347YOPC   GL1 4289  11.619   0.431   9.191 -0.0752  0.1439 -0.0899
  347YOPC   GL2 4290  11.882   0.317   8.981 -0.0805 -0.0056  0.1557
  347YOPC   C1A 4291  11.483   0.315   8.696 -0.3406 -0.1977 -0.1647
  347YOPC   D2A 4292  11.315   0.175   8.222  0.2260 -0.2011  0.1006
  347YOPC   C3A 4293  11.267   0.597   7.977  0.1675  0.0437 -0.1512
  347YOPC   C4A 4294  11.126   0.930   7.766 -0.0285 -0.1823  0.0873
  347YOPC   C1B 4295  12.209   0.128   8.755  0.1716 -0.2111 -0.0028
  347YOPC   C2B 4296  12.415  -0.084   8.411  0.3249  0.1262  0.0791
  347YOPC   D3B 4297  12.304   0.185   7.996 -0.3110 -0.1389 -0.0057
  347YOPC   C4B 4298  12.054   0.552   7.792 -0.0787  0.0683 -0.2705
  348YOPC   NC3 4299  14.699   3.524  10.216  0.1915 -0.0398  0.1348
  348YOPC   PO4 4300  14.790   3.153  10.290  0.0407  0.1006  0.2063
  348YOPC   GL1 4301  14.856   2.939   9.845  0.4599  0.0480  0.0896
  348YOPC   GL2 4302  15.141   3.174   9.680  0.2427 -0.0207  0.2068
  348YOPC   C1A 4303  14.714   3.063   9.391  0.0864 -0.1830 -0.2017
  348YOPC   D2A 4304  14.788   3.091   8.884  0.1256 -0.0152 -0.0874
  348YOPC   C3A 4305  14.532   3.013   8.507  0.3043  0.1960 -0.3112
  348YOPC   C4A 4306  14.302   3.066   8.109 -0.0822 -0.0538 -0.0365
  348YOPC   C1B 4307  15.197   3.142   9.206 -0.1239 -0.3443  0.2794
  348YOPC   C2B 4308  15.349   3.140   8.786 -0.1221  0.1230  0.1610
  348YOPC   D3B 4309  15.057   2.934   8.496  0.2463 -0.3209  0.1970
  348YOPC   C4B 4310  14.979   2.880   7.935  0.2575  0.1218  0.0559
  349YOPC   NC3 4311   0.240  16.741  10.978  0.0480 -0.1032  0.1728
  349YOPC   PO4 4312   0.333  16.368  10.760 -0.0788  0.1204 -0.1173
  349YOPC   GL1 4313   0.586  16.321  10.324 -0.0013  0.3801 -0.1953
  349YOPC   GL2 4314   0.595  16.538  10.154 -0.2657 -0.0384 -0.0165
  349YOPC   C1A 4315   0.618  16.165   9.855  0.2935  0.0897 -0.3361
  349YOPC   D2A 4316   0.551  16.225   9.481 -0.1325 -0.2109  0.2469
  349YOPC   C3A 4317   0.777  16.270   9.117 -0.0366 -0.2625  0.2387
  349YOPC   C4A 4318   0.873  16.294   8.735  0.1717  0.0099  0.1383
  349YOPC   C1B 4319   0.493  16.834   9.813  0.1240  0.1294 -0.3467
  349YOPC   C2B 4320   0.491  16.698   9.330  0.0497 -0.0509 -0.1154
  349YOPC   D3B 4321   0.559  16.635   8.831 -0.1098  0.0157  0.3047
  349YOPC   C4B 4322   0.425  16.290   8.441  0.1319  0.0872  0.0058
  350YOPC   NC3 4323   7.875   3.028  10.565  0.1415 -0.1625  0.1799
  350YOPC   PO4 4324   7.901   2.813  10.111  0.0321 -0.1003 -0.0296
  350YOPC   GL1 4325   7.623   2.911   9.834 -0.0740 -0.2474  0.0831
  350YOPC   GL2 4326   7.695   3.305   9.784 -0.1125 -0.1759  0.0342
  350YOPC   C1A 4327   7.501   2.770   9.464  0.1300 -0.1198 -0.0743
  350YOPC   D2A 4328   7.455   2.884   8.977 -0.0250 -0.0035  0.0012
  350YOPC   C3A 4329   7.312   3.211   8.755 -0.0663  0.2685  0.0275
  350YOPC   C4A 4330   7.244   3.441   8.432  0.0362  0.5886  0.1693
  350YOPC   C1B 4331   7.748   3.165   9.332 -0.0570 -0.0436 -0.1358
  350YOPC   C2B 4332   7.826   3.182   8.961  0.0719 -0.0474  0.1567
  350YOPC   D3B 4333   7.768   3.184   8.467  0.2118 -0.0231 -0.2177
  350YOPC   C4B 4334   7.927   3.230   7.999  0.0075 -0.0300 -0.2450
  351YOPC   NC3 4335   5.364   8.345  10.451 -0.0642  0.1171 -0.0490
  351YOPC   PO4 4336   5.046   8.652  10.639 -0.0001 -0.2311 -0.0479
  351YOPC   GL1 4337   5.165   8.750  10.172 -0.0506  0.1248 -0.0423
  351YOPC   GL2 4338   5.324   8.575   9.919 -0.4514  0.1645 -0.2228
  351YOPC   C1A 4339   4.842   8.728   9.783 -0.0557  0.0479 -0.0509
  351YOPC   D2A 4340   4.937   8.792   9.361  0.1274  0.1075  0.3477
  351YOPC   C3A 4341   4.754   8.839   8.993 -0.1616  0.2829  0.1311
  351YOPC   C4A 4342   4.590   9.149   8.650  0.1048  0.2058  0.0652
  351YOPC   C1B 4343   5.447   8.484   9.470  0.4843  0.0785  0.0830
  351YOPC   C2B 4344   5.354   8.604   9.040 -0.0004 -0.1216  0.0820
  351YOPC   D3B 4345   5.683   8.599   8.784 -0.0208 -0.0647 -0.3028
  351YOPC   C4B 4346   6.130   8.777   8.791  0.0040 -0.3077  0.0084
  352YOPC   NC3 4347   6.598   9.219  10.539 -0.0635  0.2716  0.1396
  352YOPC   PO4 4348   6.163   9.461  10.573 -0.2707  0.1023 -0.2108
  352YOPC   GL1 4349   6.389   9.585  10.182 -0.2589  0.0940  0.1135
  352YOPC   GL2 4350   6.572   9.714  10.408 -0.2762 -0.2456  0.1873
  352YOPC   C1A 4351   6.640   9.420   9.928 -0.2644 -0.0514  0.1570
  352YOPC   D2A 4352   6.746   9.579   9.492  0.0718 -0.0339 -0.0485
  352YOPC   C3A 4353   6.902   9.153   9.088 -0.0181 -0.0570  0.1556
  352YOPC   C4A 4354   6.551   8.976   8.854 -0.0043 -0.2111 -0.2972
  352YOPC   C1B 4355   6.922   9.782  10.109  0.0232 -0.1144  0.1394
  352YOPC   C2B 4356   7.098  10.061   9.733 -0.0415  0.0905  0.1765
  352YOPC   D3B 4357   7.025   9.915   9.308  0.1534 -0.0021 -0.0705
  352YOPC   C4B 4358   7.027   9.627   9.046 -0.3373  0.1779  0.0377
  353YOPC   NC3 4359   4.117  16.924   9.922  0.2838  0.1812  0.2682
  353YOPC   PO4 4360   4.272  16.488  10.032 -0.0040 -0.2205  0.1502
  353YOPC   GL1 4361   4.383  16.589   9.685 -0.1105  0.0091 -0.3464
  353YOPC   GL2 4362   4.152  16.601   9.448 -0.0263  0.2658 -0.2068
  353YOPC   C1A 4363   4.634  16.673   9.274  0.1371  0.2020 -0.1223
  353YOPC   D2A 4364   4.976  16.755   9.079  0.0558  0.3591 -0.0868
  353YOPC   C3A 4365   5.018  16.802   8.598  0.0303  0.1643  0.0466
  353YOPC   C4A 4366   5.004  16.683   8.233 -0.1381 -0.0447  0.2325
  353YOPC   C1B 4367   4.103  16.719   9.021  0.0346 -0.1797 -0.0023
  353YOPC   C2B 4368   3.740  16.612   8.770 -0.0220  0.0208  0.1185
  353YOPC   D3B 4369   3.705  16.748   8.385  0.1436  0.0614 -0.1195
  353YOPC   C4B 4370   3.708  16.736   7.959  0.2557  0.1084 -0.1428
  354YOPC   NC3 4371   6.906   0.870   9.983 -0.0556 -0.1929  0.2486
  354YOPC   PO4 4372   7.184   0.842   9.639 -0.0393  0.2237  0.2366
  354YOPC   GL1 4373   7.115   1.003   9.220 -0.0132  0.1946  0.2762
  354YOPC   GL2 4374   6.864   1.206   9.131  0.4357  0.1588 -0.1639
  354YOPC   C1A 4375   7.068   1.019   8.705 -0.3501  0.1530  0.0976
  354YOPC   D2A 4376   6.945   1.097   8.335  0.1183  0.3384  0.0098
  354YOPC   C3A 4377   7.152   0.991   8.038  0.2785  0.1584  0.2271
  354YOPC   C4A 4378   7.098   0.908   7.563 -0.4102  0.1986  0.0902
  354YOPC   C1B 4379   6.629   1.324   8.684 -0.2616  0.5434  0.1374
  354YOPC   C2B 4380   6.509   1.476   8.264  0.0172  0.1738 -0.4566
  354YOPC   D3B 4381   6.514   1.196   8.024 -0.0995  0.1566  0.3343
  354YOPC   C4B 4382   6.605   0.958   7.608  0.2557  0.3003 -0.2731
  355YOPC   NC3 4383  10.403  14.086  10.152  0.0634 -0.4181  0.0337
  355YOPC   PO4 4384  10.592  14.537  10.017 -0.2349 -0.2391 -0.0381
  355YOPC   GL1 4385  10.640  14.124   9.709  0.0822 -0.0635  0.0431
  355YOPC   GL2 4386  10.822  13.904   9.766 -0.2471  0.0730  0.1434
  355YOPC   C1A 4387  10.527  14.204   9.335 -0.0260  0.1499 -0.1153
  355YOPC   D2A 4388  10.437  14.279   8.841 -0.0576  0.2300 -0.0405
  355YOPC   C3A 4389  10.793  14.327   8.556  0.0281 -0.1281 -0.1500
  355YOPC   C4A 4390  10.736  14.324   8.178  0.3264 -0.2884 -0.1182
  355YOPC   C1B 4391  10.724  13.637   9.435  0.0712  0.2753  0.1068
  355YOPC   C2B 4392  10.942  13.564   9.185  0.0165 -0.1291 -0.1278
  355YOPC   D3B 4393  11.295  13.803   8.951  0.1273 -0.1787 -0.0012
  355YOPC   C4B 4394  11.634  14.126   9.046  0.1164  0.1971  0.1530
  356YOPC   NC3 4395  17.767   4.616  10.318  0.2581 -0.1766 -0.1521
  356YOPC   PO4 4396  17.444   4.847  10.457 -0.2109  0.0110 -0.1024
  356YOPC   GL1 4397  17.283   4.637  10.028 -0.0926 -0.0778  0.1636
  356YOPC   GL2 4398  17.107   4.389   9.976  0.0634  0.0258 -0.1362
  356YOPC   C1A 4399  17.255   4.544   9.544  0.3334 -0.0555  0.1005
  356YOPC   D2A 4400  17.261   4.372   9.162  0.1152  0.2112  0.0815
  356YOPC   C3A 4401  17.474   4.434   8.778 -0.4883  0.0882 -0.0951
  356YOPC   C4A 4402  17.594   4.365   8.361  0.5121  0.0734 -0.1278
  356YOPC   C1B 4403  17.121   3.942  10.094  0.0391 -0.1824 -0.0603
  356YOPC   C2B 4404  17.117   3.491  10.137  0.0599  0.1659 -0.2515
  356YOPC   D3B 4405  17.407   3.164   9.981 -0.0186 -0.6308 -0.3089
  356YOPC   C4B 4406  17.568   2.865   9.852 -0.1780 -0.1052  0.1768
  357YOPC   NC3 4407   3.244   3.083  10.821  0.0921  0.0068 -0.4092
  357YOPC   PO4 4408   3.115   2.849  10.423 -0.2117 -0.0769 -0.2759
  357YOPC   GL1 4409   3.100   2.638  10.020 -0.3096  0.0078 -0.0960
  357YOPC   GL2 4410   3.236   2.757   9.908 -0.0247  0.1280 -0.2201
  357YOPC   C1A 4411   2.769   2.562   9.690  0.0357  0.1060  0.1675
  357YOPC   D2A 4412   2.877   2.411   9.219  0.1302  0.0467  0.3224
  357YOPC   C3A 4413   2.619   2.471   8.877 -0.0016  0.0172 -0.0458
  357YOPC   C4A 4414   2.577   2.583   8.455 -0.0621  0.0656  0.0799
  357YOPC   C1B 4415   3.545   2.976   9.527 -0.1415  0.3373 -0.0590
  357YOPC   C2B 4416   3.529   2.766   9.177 -0.2528  0.1702 -0.0224
  357YOPC   D3B 4417   3.546   2.968   8.767  0.0315 -0.5384  0.0579
  357YOPC   C4B 4418   3.269   3.099   8.393 -0.2449  0.2261 -0.1059
  358YOPC   NC3 4419  16.742  14.220  10.913 -0.1031  0.0483  0.0226
  358YOPC   PO4 4420  17.120  14.188  10.518  0.0662 -0.0026 -0.0547
  358YOPC   GL1 4421  17.049  13.971  10.161 -0.1467  0.1176  0.0023
  358YOPC   GL2 4422  16.750  13.975   9.973 -0.1426 -0.2380  0.1615
  358YOPC   C1A 4423  17.241  13.788   9.865  0.0502  0.1005  0.0457
  358YOPC   D2A 4424  17.354  13.639   9.504 -0.2140  0.0073 -0.1837
  358YOPC   C3A 4425  17.170  13.552   9.074  0.1819 -0.2322 -0.0727
  358YOPC   C4A 4426  16.883  13.390   8.825  0.1870 -0.0358 -0.4247
  358YOPC   C1B 4427  16.843  13.828   9.513 -0.0267 -0.2265 -0.1417
  358YOPC   C2B 4428  16.783  13.968   9.084 -0.1475 -0.2760 -0.0764
  358YOPC   D3B 4429  16.743  13.823   8.694 -0.0461 -0.3054 -0.0897
  358YOPC   C4B 4430  16.629  13.500   8.392 -0.0075 -0.0100  0.2076
  359YOPC   NC3 4431  11.525   7.959  10.552  0.0092 -0.1269  0.2564
  359YOPC   PO4 4432  11.274   7.655  10.629  0.1682 -0.1542 -0.0922
  359YOPC   GL1 4433  11.101   7.512  10.210 -0.4262 -0.3859  0.0675
  359YOPC   GL2 4434  10.740   7.614  10.145 -0.2264 -0.1675 -0.2620
  359YOPC   C1A 4435  11.139   7.569   9.776  0.1229 -0.0046  0.3213
  359YOPC   D2A 4436  11.113   7.811   9.473 -0.0157 -0.1488 -0.2578
  359YOPC   C3A 4437  10.949   7.648   9.015 -0.0655 -0.2851  0.0531
  359YOPC   C4A 4438  11.070   7.587   8.597 -0.1029 -0.1068 -0.0014
  359YOPC   C1B 4439  10.875   7.997   9.961  0.2823 -0.1351 -0.0719
  359YOPC   C2B 4440  10.871   8.230   9.529 -0.0165 -0.0084 -0.0541
  359YOPC   D3B 4441  11.048   8.154   9.089  0.0764 -0.2328  0.2688
  359YOPC   C4B 4442  10.935   8.070   8.768  0.5934  0.1023  0.1683
  360YOPC   NC3 4443  16.731  18.030  10.319  0.3344  0.1092 -0.2019
  360YOPC   PO4 4444  17.169  17.803  10.158  0.1701  0.0449  0.1278
  360YOPC   GL1 4445  17.214  17.758   9.769 -0.0973 -0.1983  0.0427
  360YOPC   GL2 4446  17.467  17.597   9.695  0.0252  0.0374 -0.0464
  360YOPC   C1A 4447  17.186  17.747   9.290  0.0685 -0.0233  0.2012
  360YOPC   D2A 4448  17.372  17.663   8.848  0.3061  0.0289  0.1560
  360YOPC   C3A 4449  17.114  17.740   8.496 -0.5142 -0.1595  0.0807
  360YOPC   C4A 4450  16.837  17.682   8.174 -0.3410  0.1711  0.0956
  360YOPC   C1B 4451  17.674  17.603   9.322 -0.0916 -0.2031 -0.2197
  360YOPC   C2B 4452  17.905  17.596   8.887 -0.0671 -0.1123 -0.1756
  360YOPC   D3B 4453  17.683  17.571   8.472  0.2065 -0.0662 -0.0303
  360YOPC   C4B 4454  17.336  17.283   8.427  0.2249  0.0347 -0.4956
  361YOPC   NC3 4455   3.923  15.746   9.857  0.2780  0.0548 -0.0004
  361YOPC   PO4 4456   3.870  15.310   9.970 -0.1376 -0.2551 -0.3017
  361YOPC   GL1 4457   4.048  15.077   9.684  0.2614 -0.0901 -0.0619
  361YOPC   GL2 4458   3.963  14.819   9.745 -0.1978 -0.0312 -0.3527
  361YOPC   C1A 4459   4.287  14.888   9.308 -0.0244 -0.2304 -0.0709
  361YOPC   D2A 4460   4.502  14.773   8.975 -0.0601  0.0929  0.3405
  361YOPC   C3A 4461   4.469  14.926   8.580 -0.0453  0.2941 -0.1656
  361YOPC   C4A 4462   4.278  14.866   8.131 -0.0859  0.4415 -0.1152
  361YOPC   C1B 4463   3.891  14.479   9.415  0.0709 -0.0608  0.0685
  361YOPC   C2B 4464   4.067  14.516   8.962 -0.0769  0.0975  0.0422
  361YOPC   D3B 4465   3.796  14.337   8.726 -0.1271  0.0806  0.4017
  361YOPC   C4B 4466   3.839  14.073   8.300 -0.2416  0.2365  0.0040
  362YOPC   NC3 4467   3.802   5.828  10.976  0.1693  0.3613  0.3188
  362YOPC   PO4 4468   3.773   5.600  10.737  0.4383 -0.0009  0.1921
  362YOPC   GL1 4469   3.540   5.527  10.381  0.0455 -0.1262  0.1358
  362YOPC   GL2 4470   3.804   5.470  10.207 -0.1099  0.2784 -0.0821
  362YOPC   C1A 4471   3.303   5.696   9.994 -0.0369 -0.2221  0.2085
  362YOPC   D2A 4472   3.085   5.927   9.747  0.2932 -0.0812 -0.2539
  362YOPC   C3A 4473   2.837   6.241   9.899 -0.1112  0.0157  0.1203
  362YOPC   C4A 4474   2.608   6.364  10.178  0.1939  0.0045  0.1783
  362YOPC   C1B 4475   3.674   5.605   9.684  0.2466 -0.0857  0.1067
  362YOPC   C2B 4476   3.501   5.877   9.445 -0.0622 -0.2404 -0.1134
  362YOPC   D3B 4477   3.755   6.043   9.107  0.1315 -0.0435  0.1837
  362YOPC   C4B 4478   4.053   5.864   8.943  0.0485  0.3017 -0.1528
  363YOPC   NC3 4479   5.724   9.837  10.657 -0.0431  0.0435 -0.2948
  363YOPC   PO4 4480   5.353   9.624  10.772  0.1346 -0.3892  0.0053
  363YOPC   GL1 4481   5.429   9.469  10.362  0.1392  0.1156 -0.0374
  363YOPC   GL2 4482   5.773   9.413  10.224 -0.0177 -0.1136 -0.1247
  363YOPC   C1A 4483   5.314   9.278  10.050  0.0822  0.3062  0.0569
  363YOPC   D2A 4484   5.209   9.091   9.754  0.2098 -0.0266  0.2445
  363YOPC   C3A 4485   5.249   9.180   9.253 -0.0660  0.2785 -0.0246
  363YOPC   C4A 4486   5.180   9.071   8.762 -0.0886  0.1174 -0.0267
  363YOPC   C1B 4487   5.758   9.464   9.809  0.0070  0.0054 -0.1107
  363YOPC   C2B 4488   5.641   9.394   9.514  0.1872  0.0170  0.2126
  363YOPC   D3B 4489   5.892   9.435   9.206 -0.2388 -0.3534  0.2616
  363YOPC   C4B 4490   6.013   9.362   8.811  0.0940  0.1012 -0.3243
  364YOPC   NC3 4491   4.957   5.679  10.931  0.0520 -0.1379  0.1559
  364YOPC   PO4 4492   5.199   5.871  10.502  0.1244 -0.0851 -0.2224
  364YOPC   GL1 4493   5.266   5.728  10.039  0.3221 -0.0094  0.1610
  364YOPC   GL2 4494   5.532   5.906   9.964  0.0113 -0.0561 -0.1322
  364YOPC   C1A 4495   5.223   5.573   9.531 -0.2255  0.1090  0.0012
  364YOPC   D2A 4496   5.529   5.446   9.202  0.2675  0.0642  0.1065
  364YOPC   C3A 4497   5.624   5.216   8.777  0.1314  0.3189 -0.0661
  364YOPC   C4A 4498   5.600   4.734   8.771 -0.0562 -0.1967 -0.2579
  364YOPC   C1B 4499   5.788   5.747   9.574 -0.0993  0.0250 -0.0566
  364YOPC   C2B 4500   5.894   6.003   9.239 -0.1373 -0.1308  0.3455
  364YOPC   D3B 4501   5.586   5.807   8.850  0.0008  0.1402 -0.0985
  364YOPC   C4B 4502   5.193   5.842   8.574  0.2618 -0.0988  0.4179
  365YOPC   NC3 4503  13.548   2.863   9.873  0.0766  0.0497 -0.0958
  365YOPC   PO4 4504  13.971   2.623   9.847 -0.0802  0.1489  0.0774
  365YOPC   GL1 4505  14.105   2.257   9.479 -0.0689  0.1112  0.1389
  365YOPC   GL2 4506  13.885   2.118   9.377 -0.0630 -0.0533  0.0470
  365YOPC   C1A 4507  14.275   2.095   9.070  0.1098  0.0633  0.0721
  365YOPC   D2A 4508  14.603   2.002   8.874 -0.0873  0.1459  0.1384
  365YOPC   C3A 4509  14.463   2.098   8.535 -0.1177 -0.1023  0.0103
  365YOPC   C4A 4510  14.638   2.101   8.129 -0.0361  0.0512 -0.1060
  365YOPC   C1B 4511  13.794   1.979   9.041  0.0223  0.2566 -0.1139
  365YOPC   C2B 4512  13.402   2.173   8.828  0.0829  0.3583  0.2512
  365YOPC   D3B 4513  13.564   2.520   8.570 -0.2186  0.0468 -0.2820
  365YOPC   C4B 4514  13.759   2.639   8.160 -0.0098  0.1085 -0.0304
  366YOPC   NC3 4515  13.939  13.120  10.712  0.0835  0.2933  0.0160
  366YOPC   PO4 4516  13.449  13.046  10.519  0.0057 -0.1145  0.3378
  366YOPC   GL1 4517  13.449  12.823  10.045  0.1409  0.1966  0.1856
  366YOPC   GL2 4518  13.787  12.597  10.160  0.0310  0.2406 -0.0803
  366YOPC   C1A 4519  13.531  12.966   9.689 -0.1907  0.1106  0.2219
  366YOPC   D2A 4520  13.717  13.092   9.226  0.2417 -0.1080 -0.1787
  366YOPC   C3A 4521  13.651  12.931   8.835  0.0348  0.1073 -0.2820
  366YOPC   C4A 4522  13.448  12.979   8.537 -0.5394  0.2684 -0.3993
  366YOPC   C1B 4523  13.733  12.517   9.728  0.1008  0.1772  0.2154
  366YOPC   C2B 4524  13.853  12.331   9.379  0.0839 -0.3327 -0.0632
  366YOPC   D3B 4525  14.025  12.559   8.924 -0.0867 -0.1894 -0.2826
  366YOPC   C4B 4526  14.336  12.832   8.612  0.0009  0.1669 -0.1568
  367YOPC   NC3 4527   5.651  15.819   9.921 -0.1209  0.2207 -0.0118
  367YOPC   PO4 4528   6.046  15.562   9.821 -0.1588  0.0327  0.1422
  367YOPC   GL1 4529   5.993  15.414   9.474 -0.0842  0.2407  0.3163
  367YOPC   GL2 4530   5.691  15.213   9.674 -0.2614 -0.0487 -0.2906
  367YOPC   C1A 4531   5.784  15.300   9.062 -0.1699 -0.1020 -0.1673
  367YOPC   D2A 4532   5.675  15.437   8.631 -0.1917  0.1544 -0.0713
  367YOPC   C3A 4533   5.604  15.256   8.291 -0.2555  0.1297 -0.1643
  367YOPC   C4A 4534   5.493  15.040   7.976  0.0173  0.2616 -0.0306
  367YOPC   C1B 4535   5.846  14.891   9.438 -0.1538  0.3564  0.1065
  367YOPC   C2B 4536   5.848  14.692   9.109  0.2254  0.2438 -0.2539
  367YOPC   D3B 4537   5.822  14.930   8.677  0.2364  0.0354  0.0405
  367YOPC   C4B 4538   5.898  14.782   8.097  0.1103 -0.0020  0.1424
  368YOPC   NC3 4539  16.285   6.815  10.717  0.0418  0.1415  0.0429
  368YOPC   PO4 4540  16.714   6.686  10.786  0.2578  0.2600  0.0831
  368YOPC   GL1 4541  16.609   6.807  10.304  0.0815  0.2315 -0.1567
  368YOPC   GL2 4542  16.336   7.033  10.288 -0.2814 -0.1508  0.0085
  368YOPC   C1A 4543  16.741   6.727   9.903 -0.0912  0.1444 -0.1157
  368YOPC   D2A 4544  16.767   6.847   9.450 -0.0508  0.0198 -0.1090
  368YOPC   C3A 4545  17.019   6.729   9.086  0.2553  0.1626 -0.1581
  368YOPC   C4A 4546  17.461   6.581   9.168 -0.1263  0.1229 -0.0348
  368YOPC   C1B 4547  16.296   6.967   9.898  0.0308 -0.2509 -0.3103
  368YOPC   C2B 4548  16.264   6.987   9.438  0.1535 -0.0206  0.2318
  368YOPC   D3B 4549  16.475   7.013   9.056 -0.1966  0.0263 -0.0802
  368YOPC   C4B 4550  16.708   7.088   8.783 -0.4285 -0.0610 -0.2150
  369YOPC   NC3 4551   7.695   9.764  10.801 -0.2383 -0.0952  0.0573
  369YOPC   PO4 4552   7.813  10.225  10.782  0.0764 -0.1109 -0.1660
  369YOPC   GL1 4553   7.903  10.465  10.409  0.0011 -0.1226  0.3789
  369YOPC   GL2 4554   8.045  10.716  10.446 -0.0337 -0.1095  0.0748
  369YOPC   C1A 4555   8.109  10.518   9.971  0.1444  0.3312  0.2385
  369YOPC   D2A 4556   7.977  10.295   9.590  0.0302 -0.1362 -0.1364
  369YOPC   C3A 4557   7.931   9.956   9.552 -0.1411 -0.1664 -0.1617
  369YOPC   C4A 4558   8.056   9.568   9.765 -0.2193  0.0755  0.0510
  369YOPC   C1B 4559   8.200  10.962  10.088  0.0140  0.0637 -0.1083
  369YOPC   C2B 4560   8.237  10.897   9.686 -0.2702  0.4337 -0.3188
  369YOPC   D3B 4561   8.440  11.218   9.387 -0.0382 -0.0554 -0.0928
  369YOPC   C4B 4562   8.546  11.326   8.973 -0.0257 -0.0303  0.1568
  370YOPC   NC3 4563  15.918  10.306  11.061  0.0447 -0.4342  0.2267
  370YOPC   PO4 4564  15.871  10.279  10.642  0.0625  0.0028  0.0866
  370YOPC   GL1 4565  15.969  10.235  10.254  0.0503  0.3015 -0.1236
  370YOPC   GL2 4566  16.036   9.870  10.092  0.3094 -0.1509 -0.4243
  370YOPC   C1A 4567  15.665  10.243   9.904  0.0650  0.1033 -0.0161
  370YOPC   D2A 4568  15.524   9.981   9.570 -0.2927  0.1449 -0.3344
  370YOPC   C3A 4569  15.724   9.921   9.183 -0.0884 -0.1472 -0.3018
  370YOPC   C4A 4570  15.764   9.513   8.957 -0.1229  0.2324  0.2873
  370YOPC   C1B 4571  16.054   9.788   9.688 -0.0432 -0.0812  0.0806
  370YOPC   C2B 4572  16.009   9.617   9.371  0.0976  0.1324  0.0396
  370YOPC   D3B 4573  16.294   9.737   9.056  0.5305  0.0707 -0.1423
  370YOPC   C4B 4574  16.655   9.954   8.893  0.1261  0.2877 -0.2987
  371YOPC   NC3 4575   8.056  15.629  10.143  0.0860  0.0178  0.0928
  371YOPC   PO4 4576   8.166  15.618   9.721 -0.2310 -0.2575 -0.0916
  371YOPC   GL1 4577   8.076  15.828   9.359 -0.2616 -0.1263  0.2487
  371YOPC   GL2 4578   7.842  15.895   9.096  0.1240 -0.1181 -0.1074
  371YOPC   C1A 4579   8.385  15.840   8.958  0.4086 -0.4938 -0.1947
  371YOPC   D2A 4580   8.653  16.124   8.662 -0.0273  0.0073  0.0986
  371YOPC   C3A 4581   8.569  16.264   8.311  0.4826  0.0461 -0.1522
  371YOPC   C4A 4582   8.838  16.483   7.929 -0.1365 -0.0130 -0.1126
  371YOPC   C1B 4583   7.825  15.790   8.708 -0.4661 -0.0135  0.3423
  371YOPC   C2B 4584   7.820  15.453   8.427  0.1448 -0.1084 -0.2317
  371YOPC   D3B 4585   7.659  15.229   8.072  0.2255 -0.0679  0.1075
  371YOPC   C4B 4586   7.672  15.148   7.572 -0.3303  0.1653 -0.2052
  372YOPC   NC3 4587   9.232   6.186  10.796 -0.2000  0.0337  0.1851
  372YOPC   PO4 4588   9.226   6.482  10.579 -0.0812 -0.0682  0.0403
  372YOPC   GL1 4589   9.313   6.527  10.112  0.1298  0.1327 -0.0166
  372YOPC   GL2 4590   9.127   6.578   9.936 -0.0321 -0.0243  0.1011
  372YOPC   C1A 4591   9.701   6.691   9.872  0.2751 -0.1414 -0.0503
  372YOPC   D2A 4592   9.719   7.111   9.610  0.0804  0.0403 -0.2485
  372YOPC   C3A 4593   9.856   7.150   9.262 -0.1251 -0.0730  0.0400
  372YOPC   C4A 4594   9.810   6.944   8.851  0.1758  0.1057 -0.0964
  372YOPC   C1B 4595   9.293   6.681   9.536  0.0440 -0.0518  0.1721
  372YOPC   C2B 4596   9.481   6.831   9.283  0.2895  0.1813  0.1825
  372YOPC   D3B 4597   9.822   6.575   9.294 -0.0796  0.1125  0.0697
  372YOPC   C4B 4598  10.146   6.408   9.527  0.0299  0.0397 -0.3319
  373YOPC   NC3 4599  14.379  17.945   9.696  0.0474  0.2100  0.3680
  373YOPC   PO4 4600  14.675  18.253   9.759  0.1469  0.2357 -0.0506
  373YOPC   GL1 4601  14.875  18.239   9.398  0.2173  0.5327 -0.1457
  373YOPC   GL2 4602  14.796  18.010   9.260 -0.1148 -0.1703  0.1204
  373YOPC   C1A 4603  14.905  18.449   8.945 -0.3622  0.0307  0.2140
  373YOPC   D2A 4604  14.991  18.473   8.559 -0.1695  0.2960  0.0750
  373YOPC   C3A 4605  15.248  18.450   8.253  0.0467  0.1979  0.0164
  373YOPC   C4A 4606  15.545  18.418   7.934 -0.1033 -0.0232 -0.0434
  373YOPC   C1B 4607  14.929  17.940   8.890  0.1947  0.2512  0.0291
  373YOPC   C2B 4608  14.909  17.997   8.469  0.0278 -0.2187  0.0695
  373YOPC   D3B 4609  15.224  17.965   8.149  0.2307  0.0600 -0.2438
  373YOPC   C4B 4610  15.326  17.895   7.742 -0.0520  0.1111 -0.0306
  374YOPC   NC3 4611   8.374   7.992  10.560  0.0518 -0.1568  0.0007
  374YOPC   PO4 4612   7.980   8.184  10.459 -0.2010  0.0752 -0.2254
  374YOPC   GL1 4613   8.031   8.474  10.035  0.0861 -0.0299 -0.0812
  374YOPC   GL2 4614   7.926   8.808  10.119 -0.2234  0.2475 -0.1691
  374YOPC   C1A 4615   7.982   8.554   9.645 -0.1214  0.2692  0.0699
  374YOPC   D2A 4616   8.098   8.874   9.367  0.2043 -0.0557 -0.0336
  374YOPC   C3A 4617   8.429   8.968   9.179 -0.1359 -0.1263 -0.2034
  374YOPC   C4A 4618   8.678   9.294   9.089 -0.0589 -0.0201  0.0053
  374YOPC   C1B 4619   8.024   9.081   9.809  0.1918  0.0965 -0.1048
  374YOPC   C2B 4620   7.783   9.234   9.515  0.1040  0.0021 -0.1152
  374YOPC   D3B 4621   7.817   9.140   9.073  0.1114 -0.0740  0.2955
  374YOPC   C4B 4622   7.395   9.158   8.887  0.0551 -0.1026 -0.2663
  375YOPC   NC3 4623   8.001   0.384   9.447 -0.1986  0.1014 -0.0710
  375YOPC   PO4 4624   8.329   0.323   9.190  0.0362  0.0359 -0.1714
  375YOPC   GL1 4625   8.105   0.610   8.969 -0.2874 -0.0233 -0.0101
  375YOPC   GL2 4626   8.236   0.442   8.723  0.0925 -0.0816  0.1526
  375YOPC   C1A 4627   7.864   0.739   8.695 -0.1811  0.0571  0.0019
  375YOPC   D2A 4628   7.922   0.898   8.336  0.2086 -0.0320  0.0524
  375YOPC   C3A 4629   7.708   0.920   7.976  0.0727 -0.0304  0.0612
  375YOPC   C4A 4630   7.624   0.842   7.614 -0.1186 -0.0440 -0.2961
  375YOPC   C1B 4631   8.373   0.428   8.265 -0.0663 -0.0328  0.1233
  375YOPC   C2B 4632   8.548   0.534   7.950  0.4946  0.0120 -0.0330
  375YOPC   D3B 4633   8.579   0.875   7.623  0.2828  0.0640 -0.0651
  375YOPC   C4B 4634   8.370   1.267   7.461  0.2171  0.2575  0.2507
  376YOPC   NC3 4635   9.351  12.794  10.790 -0.3660 -0.0498  0.0155
  376YOPC   PO4 4636   9.473  13.137  10.442 -0.0152 -0.2726  0.2612
  376YOPC   GL1 4637   9.147  13.088  10.155 -0.0365  0.2696 -0.3201
  376YOPC   GL2 4638   8.978  13.276  10.169  0.3661 -0.0616 -0.3553
  376YOPC   C1A 4639   9.174  12.984   9.726 -0.0087  0.0401  0.0807
  376YOPC   D2A 4640   9.154  12.822   9.289  0.2579  0.1872  0.1183
  376YOPC   C3A 4641   9.539  12.692   9.039 -0.2580 -0.1802  0.0353
  376YOPC   C4A 4642   9.598  12.651   8.621  0.2410 -0.2456 -0.1881
  376YOPC   C1B 4643   8.917  13.527   9.759  0.1382  0.0706 -0.1448
  376YOPC   C2B 4644   8.861  13.533   9.331  0.2145  0.2450 -0.2198
  376YOPC   D3B 4645   8.987  13.227   9.046  0.0121 -0.2626 -0.3245
  376YOPC   C4B 4646   8.888  12.840   8.884  0.1785  0.0640 -0.2365
  377YOPC   NC3 4647  17.917  11.277  10.243  0.1492 -0.1666 -0.3424
  377YOPC   PO4 4648  17.620  11.521  10.169  0.6338  0.0084  0.1832
  377YOPC   GL1 4649  17.588  11.416   9.877 -0.0191  0.2051  0.1024
  377YOPC   GL2 4650  17.832  11.487   9.708 -0.1628 -0.0190  0.1006
  377YOPC   C1A 4651  17.317  11.266   9.630  0.1740  0.1951  0.0791
  377YOPC   D2A 4652  16.947  11.130   9.495  0.2419  0.0803 -0.1825
  377YOPC   C3A 4653  16.948  11.302   9.050  0.3764  0.0100  0.0108
  377YOPC   C4A 4654  17.059  11.541   8.639  0.1518 -0.3139  0.0331
  377YOPC   C1B 4655  18.080  11.393   9.318 -0.0299 -0.1774  0.1247
  377YOPC   C2B 4656  17.905  11.171   8.970 -0.1406  0.0518  0.2865
  377YOPC   D3B 4657  18.232  11.040   8.571  0.2394 -0.1945 -0.2277
  377YOPC   C4B 4658  18.443  10.907   8.269 -0.3717 -0.1988 -0.1029
  378YOPC   NC3 4659   1.391  16.196  10.637  0.2487 -0.0647 -0.0635
  378YOPC   PO4 4660   1.145  16.354  10.351 -0.1929 -0.3368  0.3030
  378YOPC   GL1 4661   1.146  16.348   9.871 -0.1808 -0.3337  0.0910
  378YOPC   GL2 4662   1.128  16.070   9.870  0.3370 -0.0088  0.1084
  378YOPC   C1A 4663   0.946  16.562   9.529  0.3133 -0.0270 -0.0099
  378YOPC   D2A 4664   1.223  16.489   9.084 -0.0980  0.0986 -0.2817
  378YOPC   C3A 4665   1.402  16.889   8.934  0.3064  0.4664 -0.0305
  378YOPC   C4A 4666   1.493  17.075   8.509  0.0263 -0.0613 -0.2128
  378YOPC   C1B 4667   1.192  16.007   9.398 -0.0873  0.0247  0.0557
  378YOPC   C2B 4668   1.185  15.956   8.999 -0.0016 -0.0015 -0.2785
  378YOPC   D3B 4669   0.943  15.714   8.693 -0.3108  0.0600 -0.1889
  378YOPC   C4B 4670   0.835  15.935   8.378 -0.0634  0.0211 -0.1548
  379YOPC   NC3 4671   7.421  10.558  10.852 -0.1381 -0.0384  0.2290
  379YOPC   PO4 4672   7.584  11.017  10.769  0.1318  0.0142 -0.1978
  379YOPC   GL1 4673   7.516  10.855  10.393  0.0712  0.2242  0.3324
  379YOPC   GL2 4674   7.229  10.731  10.273  0.0461 -0.2445 -0.0216
  379YOPC   C1A 4675   7.714  10.836   9.943 -0.0124 -0.0159  0.0868
  379YOPC   D2A 4676   7.765  10.859   9.523 -0.0437  0.2773 -0.1249
  379YOPC   C3A 4677   8.063  10.963   9.240 -0.0807  0.1423 -0.2075
  379YOPC   C4A 4678   8.225  10.742   8.903 -0.3266 -0.0073  0.0929
  379YOPC   C1B 4679   7.181  10.671   9.803 -0.0849 -0.0636 -0.0878
  379YOPC   C2B 4680   7.065  10.471   9.436 -0.0064  0.1316  0.2896
  379YOPC   D3B 4681   7.298  10.785   9.252  0.0383  0.0994 -0.1979
  379YOPC   C4B 4682   7.310  10.829   8.816 -0.0197  0.3145 -0.3619
  380YOPC   NC3 4683   4.169  12.424  10.765 -0.1105  0.1634 -0.1342
  380YOPC   PO4 4684   4.160  12.429  10.340  0.0804 -0.0556  0.1993
  380YOPC   GL1 4685   4.401  12.472  10.045 -0.0135 -0.4276  0.2797
  380YOPC   GL2 4686   4.791  12.476  10.068  0.3049  0.0358  0.2121
  380YOPC   C1A 4687   4.301  12.412   9.585  0.0294  0.0338  0.3372
  380YOPC   D2A 4688   4.217  12.151   9.196  0.0337 -0.1107 -0.0758
  380YOPC   C3A 4689   4.440  11.807   9.043 -0.3506 -0.0304 -0.0875
  380YOPC   C4A 4690   4.743  11.743   8.790  0.0245  0.0223  0.3016
  380YOPC   C1B 4691   4.619  12.739   9.703  0.2151 -0.2775  0.0115
  380YOPC   C2B 4692   4.460  12.864   9.311 -0.0886  0.0250 -0.2535
  380YOPC   D3B 4693   4.653  12.823   8.985 -0.1828  0.0267  0.0164
  380YOPC   C4B 4694   4.510  12.762   8.676 -0.2048  0.1236  0.2027
  381YOPC   NC3 4695   2.831  10.109  10.638  0.2246 -0.1194  0.1167
  381YOPC   PO4 4696   2.436  10.253  10.413  0.3145 -0.0831  0.0162
  381YOPC   GL1 4697   2.253   9.962  10.105 -0.0849 -0.1732  0.2073
  381YOPC   GL2 4698   1.975  10.143   9.923  0.1194 -0.1515 -0.1771
  381YOPC   C1A 4699   2.431   9.778   9.785 -0.2803 -0.1787 -0.0424
  381YOPC   D2A 4700   2.481   9.826   9.356  0.3236  0.0633  0.0619
  381YOPC   C3A 4701   2.486   9.527   8.943 -0.0568  0.4362 -0.1058
  381YOPC   C4A 4702   2.525   9.153   8.840  0.2391 -0.1562  0.1823
  381YOPC   C1B 4703   1.984   9.995   9.548 -0.1016 -0.0383 -0.0456
  381YOPC   C2B 4704   2.069  10.120   9.090  0.0820 -0.1362  0.1838
  381YOPC   D3B 4705   2.100  10.510   8.877 -0.5020  0.2317 -0.2410
  381YOPC   C4B 4706   2.383  10.800   8.851 -0.0195 -0.1313 -0.3426
  382YOPC   NC3 4707  14.184   4.896  10.322 -0.2500  0.1988 -0.1694
  382YOPC   PO4 4708  14.135   4.672   9.866  0.0376 -0.1188  0.0422
  382YOPC   GL1 4709  13.987   4.390   9.542  0.1708  0.2236  0.1680
  382YOPC   GL2 4710  14.232   4.319   9.328 -0.0539  0.1495 -0.1284
  382YOPC   C1A 4711  13.742   4.314   9.234 -0.0107 -0.2718  0.0981
  382YOPC   D2A 4712  13.654   4.027   8.898  0.0351 -0.1024 -0.2004
  382YOPC   C3A 4713  13.419   4.154   8.735  0.0215  0.1500  0.1177
  382YOPC   C4A 4714  13.305   4.164   8.392 -0.0705 -0.0783  0.2783
  382YOPC   C1B 4715  14.162   4.291   8.909 -0.1609  0.1617 -0.0176
  382YOPC   C2B 4716  14.162   4.451   8.547 -0.3783  0.1575  0.1579
  382YOPC   D3B 4717  14.324   4.330   8.280  0.0310  0.0932  0.1970
  382YOPC   C4B 4718  14.198   4.111   7.858 -0.0974 -0.3271  0.1482
  383YOPC   NC3 4719  14.328  15.755   9.764 -0.3072 -0.0158 -0.0551
  383YOPC   PO4 4720  14.499  15.382   9.783  0.1718 -0.0202 -0.1081
  383YOPC   GL1 4721  14.184  15.379   9.426  0.0799 -0.2457 -0.0183
  383YOPC   GL2 4722  14.339  15.499   9.237 -0.2276  0.3388  0.2343
  383YOPC   C1A 4723  14.008  15.201   9.040  0.2333 -0.3767 -0.0191
  383YOPC   D2A 4724  13.969  15.035   8.622  0.0564 -0.3253 -0.1935
  383YOPC   C3A 4725  14.264  14.835   8.317  0.1388  0.2799  0.0711
  383YOPC   C4A 4726  14.428  14.387   8.244  0.1049 -0.2029  0.0036
  383YOPC   C1B 4727  14.323  15.451   8.756 -0.3212 -0.0872 -0.2950
  383YOPC   C2B 4728  14.264  15.369   8.343  0.1315  0.2067 -0.0955
  383YOPC   D3B 4729  14.620  15.199   8.064 -0.1356  0.0813 -0.2297
  383YOPC   C4B 4730  14.668  15.398   7.669 -0.2284 -0.2018  0.2186
  384YOPC   NC3 4731  13.803  10.935  10.966 -0.0846  0.1632  0.1845
  384YOPC   PO4 4732  13.615  10.734  10.626  0.0895  0.1390 -0.1124
  384YOPC   GL1 4733  13.705  10.983  10.262 -0.0425  0.0027 -0.0770
  384YOPC   GL2 4734  13.489  11.167  10.479  0.0395  0.0282 -0.1155
  384YOPC   C1A 4735  13.470  11.092   9.892  0.1773 -0.0574  0.1796
  384YOPC   D2A 4736  13.480  11.214   9.481 -0.2646 -0.1180  0.0539
  384YOPC   C3A 4737  13.714  10.964   9.158  0.2026 -0.0161 -0.0252
  384YOPC   C4A 4738  14.044  10.805   9.008 -0.0875  0.0101 -0.0144
  384YOPC   C1B 4739  13.121  11.009  10.198  0.1466 -0.2058 -0.0731
  384YOPC   C2B 4740  13.027  11.175   9.802 -0.0269  0.0997 -0.1086
  384YOPC   D3B 4741  13.003  11.057   9.373  0.1809  0.1934  0.1189
  384YOPC   C4B 4742  13.248  11.155   9.010  0.1041  0.2410 -0.4371
  385YOPC   NC3 4743  16.364   3.984  10.526  0.1339 -0.0181  0.1930
  385YOPC   PO4 4744  16.339   4.427  10.284  0.2199 -0.0669  0.1480
  385YOPC   GL1 4745  16.201   4.515   9.841 -0.1976 -0.2058 -0.0014
  385YOPC   GL2 4746  15.794   4.516   9.832 -0.1893  0.0112  0.0442
  385YOPC   C1A 4747  16.318   4.219   9.521 -0.0082 -0.0293  0.0077
  385YOPC   D2A 4748  16.561   3.894   9.297  0.0714  0.1274 -0.1639
  385YOPC   C3A 4749  16.632   3.951   8.823  0.1309 -0.0729  0.0361
  385YOPC   C4A 4750  16.929   3.872   8.416  0.2865 -0.1617 -0.1255
  385YOPC   C1B 4751  15.789   4.431   9.442 -0.1858  0.2753 -0.2992
  385YOPC   C2B 4752  16.187   4.460   9.169  0.0864 -0.3315 -0.1502
  385YOPC   D3B 4753  16.381   4.433   8.733  0.2287 -0.1059  0.0528
  385YOPC   C4B 4754  16.607   4.310   8.303 -0.0716 -0.1442  0.0096
  386YOPC   NC3 4755   9.254   0.040   9.483 -0.1306  0.1221  0.0620
  386YOPC   PO4 4756   9.075  -0.316   9.440  0.2831 -0.4608  0.0052
  386YOPC   GL1 4757   8.999  -0.342   9.097  0.1821  0.3989 -0.3548
  386YOPC   GL2 4758   9.334  -0.483   8.972 -0.2443  0.1427  0.1373
  386YOPC   C1A 4759   8.772  -0.101   8.865  0.1719 -0.0125  0.0563
  386YOPC   D2A 4760   8.700  -0.277   8.439  0.0922 -0.0740 -0.2965
  386YOPC   C3A 4761   9.082  -0.395   8.139 -0.0681  0.1730  0.1414
  386YOPC   C4A 4762   9.409  -0.490   7.835  0.3714  0.1904 -0.0845
  386YOPC   C1B 4763   9.191  -0.356   8.643  0.1077 -0.0664 -0.0826
  386YOPC   C2B 4764   9.108   0.036   8.312 -0.1596  0.0073  0.2059
  386YOPC   D3B 4765   9.280   0.051   7.935 -0.1102 -0.1979  0.0855
  386YOPC   C4B 4766   9.278   0.364   7.601 -0.1033  0.3997 -0.1236
  387YOPC   NC3 4767  11.176   8.761  11.014  0.1516  0.0377  0.1309
  387YOPC   PO4 4768  10.745   9.006  10.959 -0.0641 -0.2018 -0.2221
  387YOPC   GL1 4769  10.691   9.242  10.544  0.2670  0.0344  0.1168
  387YOPC   GL2 4770  10.504   9.539  10.501 -0.0608  0.0431  0.2315
  387YOPC   C1A 4771  10.923   9.210  10.073 -0.2059  0.0643 -0.5664
  387YOPC   D2A 4772  11.174   9.219   9.676 -0.1597  0.2450 -0.0653
  387YOPC   C3A 4773  11.133   9.249   9.284 -0.2560  0.3259  0.1370
  387YOPC   C4A 4774  11.089   9.249   8.794 -0.2448 -0.3002 -0.0060
  387YOPC   C1B 4775  10.447   9.520  10.000 -0.2487 -0.0250 -0.4126
  387YOPC   C2B 4776  10.254   9.542   9.565  0.0475  0.3373 -0.2264
  387YOPC   D3B 4777   9.869   9.425   9.505  0.4174 -0.1528 -0.1802
  387YOPC   C4B 4778   9.747   9.098   9.324 -0.0238  0.0234 -0.1371
  388YOPC   NC3 4779   1.790  15.540  10.392  0.1708 -0.1706  0.4579
  388YOPC   PO4 4780   2.147  15.844  10.423  0.0271  0.0160 -0.0723
  388YOPC   GL1 4781   2.105  15.827   9.989  0.3278 -0.3671 -0.1043
  388YOPC   GL2 4782   1.776  15.900   9.932 -0.2491 -0.1372 -0.0468
  388YOPC   C1A 4783   2.021  16.059   9.533  0.0109  0.1970 -0.0423
  388YOPC   D2A 4784   2.162  16.089   9.118 -0.1727 -0.2908 -0.2005
  388YOPC   C3A 4785   2.507  15.827   8.917 -0.3493 -0.4262 -0.0358
  388YOPC   C4A 4786   2.597  15.906   8.459 -0.1143  0.2493 -0.0081
  388YOPC   C1B 4787   1.633  15.807   9.452 -0.1355 -0.1373 -0.1628
  388YOPC   C2B 4788   1.717  15.698   9.122  0.0113  0.0252  0.2248
  388YOPC   D3B 4789   1.532  15.831   8.707 -0.1817  0.1232  0.2486
  388YOPC   C4B 4790   1.393  16.220   8.546 -0.1258  0.0028 -0.0449
  389YOPC   NC3 4791   5.050  12.423  10.757  0.0937 -0.1996  0.2085
  389YOPC   PO4 4792   5.439  12.454  10.643 -0.2359 -0.1582  0.1019
  389YOPC   GL1 4793   5.575  12.422  10.279 -0.1574 -0.0300 -0.0887
  389YOPC   GL2 4794   5.885  12.427  10.118  0.0352 -0.1735 -0.0966
  389YOPC   C1A 4795   5.447  12.225   9.944  0.3699  0.0260 -0.1957
  389YOPC   D2A 4796   5.290  11.882   9.955  0.1706 -0.0350 -0.2442
  389YOPC   C3A 4797   4.988  11.627   9.637 -0.1140  0.2624  0.2039
  389YOPC   C4A 4798   5.042  11.352   9.288 -0.0261  0.0873  0.1157
  389YOPC   C1B 4799   5.729  12.580   9.778  0.1396  0.3202  0.1150
  389YOPC   C2B 4800   5.673  12.343   9.380 -0.3466 -0.1069 -0.0397
  389YOPC   D3B 4801   5.368  12.087   9.438 -0.1529  0.3396 -0.3731
  389YOPC   C4B 4802   5.088  11.842   9.137  0.2677 -0.1932  0.0202
  390YOPC   NC3 4803   8.807   4.024   9.960 -0.6816  0.3930  0.0907
  390YOPC   PO4 4804   8.595   4.340   9.862 -0.2045  0.1293 -0.0650
  390YOPC   GL1 4805   8.619   4.268   9.452 -0.1420  0.1117  0.1409
  390YOPC   GL2 4806   8.852   4.415   9.356 -0.1263  0.2955 -0.0046
  390YOPC   C1A 4807   8.814   4.014   9.097  0.0240 -0.0163 -0.2802
  390YOPC   D2A 4808   8.915   4.004   8.667  0.0556 -0.0446  0.0627
  390YOPC   C3A 4809   8.979   4.407   8.453 -0.2716  0.0203 -0.0502
  390YOPC   C4A 4810   8.884   4.911   8.467 -0.0944  0.0273  0.0152
  390YOPC   C1B 4811   8.611   4.485   8.952  0.0454  0.1882 -0.0223
  390YOPC   C2B 4812   8.479   4.587   8.523  0.2363  0.1338 -0.0759
  390YOPC   D3B 4813   8.250   4.404   8.348  0.3486  0.1571  0.0071
  390YOPC   C4B 4814   8.109   4.361   7.922 -0.2216 -0.1421 -0.1577
  391YOPC   NC3 4815   5.972   6.266  11.017  0.2249 -0.1498 -0.2329
  391YOPC   PO4 4816   6.307   6.171  10.892 -0.0949 -0.2225  0.0687
  391YOPC   GL1 4817   6.430   6.106  10.393 -0.0801 -0.2546 -0.1594
  391YOPC   GL2 4818   6.296   6.306  10.326  0.0479 -0.1514  0.0195
  391YOPC   C1A 4819   6.457   5.936   9.964  0.0530 -0.1471  0.0952
  391YOPC   D2A 4820   6.279   5.579   9.824  0.0763  0.1549  0.0997
  391YOPC   C3A 4821   6.229   5.541   9.271  0.1549 -0.1863  0.0056
  391YOPC   C4A 4822   5.998   5.328   9.105  0.0237  0.0090 -0.2280
  391YOPC   C1B 4823   6.250   6.469   9.933 -0.0029 -0.0610 -0.0837
  391YOPC   C2B 4824   6.332   6.583   9.468  0.1917 -0.0940  0.0106
  391YOPC   D3B 4825   6.222   6.422   9.056 -0.4253  0.0277  0.0739
  391YOPC   C4B 4826   5.771   6.266   8.828 -0.1427 -0.1443 -0.1343
  392YOPC   NC3 4827   9.560   4.650  10.039  0.1744  0.1723  0.1080
  392YOPC   PO4 4828   9.270   5.026   9.985 -0.0689 -0.0569  0.0296
  392YOPC   GL1 4829   9.090   5.107   9.601 -0.2456  0.0636 -0.1458
  392YOPC   GL2 4830   9.049   5.375   9.676 -0.0603  0.1287  0.3984
  392YOPC   C1A 4831   9.184   5.165   9.253  0.5754 -0.1298 -0.2637
  392YOPC   D2A 4832   8.974   5.358   8.875  0.0719 -0.0593  0.3141
  392YOPC   C3A 4833   8.705   5.453   8.478 -0.0029  0.0150 -0.2200
  392YOPC   C4A 4834   8.340   5.656   8.454  0.0268  0.0388  0.1468
  392YOPC   C1B 4835   9.312   5.678   9.551  0.1951  0.1113 -0.1661
  392YOPC   C2B 4836   9.251   5.672   9.161  0.0001 -0.5077  0.0155
  392YOPC   D3B 4837   9.614   5.608   8.925  0.0116  0.1368 -0.1194
  392YOPC   C4B 4838   9.719   5.653   8.542  0.3416  0.2813  0.0057
  393YOPC   NC3 4839  15.131  15.739   9.996 -0.0930  0.0926  0.1571
  393YOPC   PO4 4840  15.082  15.310   9.859 -0.0431 -0.1829 -0.0129
  393YOPC   GL1 4841  15.149  15.322   9.471  0.0385  0.1235  0.0566
  393YOPC   GL2 4842  14.804  15.232   9.381  0.3153 -0.3432 -0.0158
  393YOPC   C1A 4843  15.240  15.134   9.016 -0.3895  0.0048  0.4772
  393YOPC   D2A 4844  15.176  14.893   8.678 -0.1845  0.1107  0.0672
  393YOPC   C3A 4845  15.346  14.756   8.278  0.1731 -0.1247  0.1432
  393YOPC   C4A 4846  15.045  14.851   7.979  0.1348 -0.2555  0.0332
  393YOPC   C1B 4847  14.711  15.198   8.969 -0.0102 -0.0247 -0.2827
  393YOPC   C2B 4848  14.731  15.129   8.572 -0.0757 -0.1344  0.1861
  393YOPC   D3B 4849  15.088  15.247   8.333 -0.0167  0.2173 -0.1677
  393YOPC   C4B 4850  15.102  15.414   8.020 -0.0092 -0.0741  0.1954
  394YOPC   NC3 4851   2.704   9.161  10.836  0.1716  0.1705  0.0185
  394YOPC   PO4 4852   2.424   9.073  10.560  0.2858 -0.0078  0.0313
  394YOPC   GL1 4853   2.468   8.835  10.282  0.1287  0.1687  0.2755
  394YOPC   GL2 4854   2.369   8.586  10.397 -0.0970 -0.0102 -0.1602
  394YOPC   C1A 4855   2.766   8.779   9.927  0.0651  0.1788 -0.0245
  394YOPC   D2A 4856   3.130   8.966   9.813  0.0116  0.0256  0.0262
  394YOPC   C3A 4857   3.280   9.005   9.456 -0.1472  0.0131 -0.0174
  394YOPC   C4A 4858   3.436   8.967   9.110 -0.2545  0.3071  0.2284
  394YOPC   C1B 4859   2.622   8.336  10.108 -0.2836 -0.0829  0.0147
  394YOPC   C2B 4860   2.982   8.107   9.882  0.1317 -0.1043  0.0084
  394YOPC   D3B 4861   2.990   8.035   9.381  0.1945 -0.1474  0.2701
  394YOPC   C4B 4862   3.078   7.991   8.941  0.0189 -0.1027 -0.0913
  395YOPC   NC3 4863   2.815   7.508  10.842  0.0929  0.2031  0.2694
  395YOPC   PO4 4864   2.584   7.773  10.544 -0.1996 -0.1147  0.1508
  395YOPC   GL1 4865   2.794   7.699  10.118  0.0098 -0.0594 -0.3041
  395YOPC   GL2 4866   2.514   7.813  10.006 -0.0271 -0.3151  0.2098
  395YOPC   C1A 4867   2.842   7.629   9.660 -0.3323 -0.3540  0.0172
  395YOPC   D2A 4868   2.738   7.546   9.243 -0.0400  0.1359  0.4748
  395YOPC   C3A 4869   2.726   7.618   8.778  0.0465 -0.1808  0.3491
  395YOPC   C4A 4870   2.906   7.905   8.499  0.1527  0.2682 -0.2101
  395YOPC   C1B 4871   2.486   7.963   9.610  0.0045 -0.0235  0.0862
  395YOPC   C2B 4872   2.484   8.031   9.150 -0.1889 -0.0832  0.1239
  395YOPC   D3B 4873   2.240   7.791   8.827  0.1855 -0.0801 -0.1467
  395YOPC   C4B 4874   2.283   7.426   8.463  0.1789  0.1332  0.0223
  396YOPC   NC3 4875  18.026   6.761  10.212 -0.0582 -0.1581 -0.3516
  396YOPC   PO4 4876  18.277   6.544  10.523 -0.2443 -0.1959  0.0728
  396YOPC   GL1 4877  18.587   6.668  10.225  0.0449  0.1721  0.3198
  396YOPC   GL2 4878  18.325   6.490   9.924 -0.1443 -0.0027 -0.0289
  396YOPC   C1A 4879  18.951   6.947  10.028  0.1239  0.5321 -0.1748
  396YOPC   D2A 4880  19.127   7.025   9.620 -0.0188  0.2001 -0.1213
  396YOPC   C3A 4881  19.090   7.042   9.197 -0.2222 -0.2065  0.0865
  396YOPC   C4A 4882  19.231   6.976   8.780  0.1892  0.3322 -0.0327
  396YOPC   C1B 4883  18.323   6.444   9.603 -0.0679  0.0720 -0.0533
  396YOPC   C2B 4884  18.503   6.463   9.132 -0.0544  0.1834 -0.0715
  396YOPC   D3B 4885  18.200   6.138   8.904 -0.0915 -0.2791 -0.2886
  396YOPC   C4B 4886  17.919   5.864   8.852 -0.0315 -0.0132  0.1310
  397YOPC   NC3 4887   9.877   7.319  10.823 -0.0545 -0.0273 -0.1496
  397YOPC   PO4 4888   9.696   7.414  10.398  0.1223 -0.1229 -0.0374
  397YOPC   GL1 4889   9.648   7.669  10.023 -0.1600  0.1915 -0.0791
  397YOPC   GL2 4890   9.503   7.572   9.805  0.0468 -0.2765  0.0237
  397YOPC   C1A 4891   9.869   7.894   9.691 -0.3555 -0.0936  0.0263
  397YOPC   D2A 4892  10.053   7.933   9.303  0.4316  0.1818 -0.1313
  397YOPC   C3A 4893   9.989   7.891   8.916 -0.2364 -0.2518  0.1110
  397YOPC   C4A 4894  10.077   7.615   8.567 -0.0832  0.1836  0.0046
  397YOPC   C1B 4895   9.648   7.650   9.356  0.1989  0.0103  0.0009
  397YOPC   C2B 4896   9.660   7.458   8.879 -0.1199  0.0324 -0.1671
  397YOPC   D3B 4897   9.560   7.698   8.499 -0.2963  0.0802 -0.1886
  397YOPC   C4B 4898   9.350   7.824   8.109 -0.1447 -0.0181 -0.1121
  398YOPC   NC3 4899  12.995  11.941  10.342 -0.5236  0.3291  0.3056
  398YOPC   PO4 4900  12.742  11.909  10.771  0.0256  0.0971  0.2116
  398YOPC   GL1 4901  12.631  11.650  10.368 -0.0378  0.5609 -0.1594
  398YOPC   GL2 4902  12.788  11.682  10.004 -0.0692  0.0986  0.1617
  398YOPC   C1A 4903  12.342  11.529  10.160 -0.0288  0.0544 -0.0496
  398YOPC   D2A 4904  12.237  11.474   9.743  0.2317  0.0508  0.0139
  398YOPC   C3A 4905  11.889  11.675   9.436 -0.1159  0.0751 -0.1726
  398YOPC   C4A 4906  11.945  12.112   9.357 -0.0069  0.2265 -0.2011
  398YOPC   C1B 4907  12.727  11.536   9.680  0.1252 -0.0622  0.0842
  398YOPC   C2B 4908  12.683  11.419   9.306 -0.0858  0.1728  0.1503
  398YOPC   D3B 4909  12.245  11.432   9.166  0.0140  0.0170 -0.0698
  398YOPC   C4B 4910  11.910  11.526   8.832  0.3621 -0.0813 -0.1007
  399YOPC   NC3 4911  11.178   0.672  10.031 -0.2818 -0.1673 -0.3115
  399YOPC   PO4 4912  11.356   1.055   9.799 -0.2788  0.1399 -0.1444
  399YOPC   GL1 4913  11.333   1.234   9.334 -0.1208 -0.3090  0.1898
  399YOPC   GL2 4914  11.224   1.576   9.235 -0.2159  0.0662 -0.1456
  399YOPC   C1A 4915  11.536   1.343   8.949  0.3780 -0.0339 -0.3717
  399YOPC   D2A 4916  11.648   1.251   8.527 -0.0154 -0.2969 -0.1149
  399YOPC   C3A 4917  11.732   1.521   8.136  0.2167 -0.2043  0.1443
  399YOPC   C4A 4918  11.983   1.503   7.777  0.0549 -0.0460 -0.1300
  399YOPC   C1B 4919  11.282   1.780   8.876  0.3609 -0.1354  0.0043
  399YOPC   C2B 4920  11.374   1.685   8.475 -0.3066  0.0690 -0.0047
  399YOPC   D3B 4921  11.016   1.729   8.197 -0.1822  0.0735  0.2158
  399YOPC   C4B 4922  10.942   1.578   7.765 -0.2995  0.1159 -0.1487
  400YOPC   NC3 4923  13.134   1.582  10.225 -0.1139  0.0844 -0.1839
  400YOPC   PO4 4924  12.806   1.348   9.937  0.1015  0.2770  0.0046
  400YOPC   GL1 4925  12.497   1.452   9.609  0.0132 -0.0923 -0.0386
  400YOPC   GL2 4926  12.282   1.451   9.664 -0.1560 -0.1619  0.1356
  400YOPC   C1A 4927  12.374   1.223   9.205 -0.0304  0.0071  0.0785
  400YOPC   D2A 4928  12.479   1.153   8.694 -0.0332  0.0839  0.0659
  400YOPC   C3A 4929  12.456   1.488   8.355  0.3303 -0.0881  0.0993
  400YOPC   C4A 4930  12.692   1.713   8.150  0.2389 -0.0593  0.1171
  400YOPC   C1B 4931  12.210   1.732   9.270  0.2512  0.2331  0.2223
  400YOPC   C2B 4932  12.445   1.658   8.820  0.0770  0.0349 -0.2420
  400YOPC   D3B 4933  12.655   1.930   8.628 -0.0472  0.0739  0.0531
  400YOPC   C4B 4934  13.067   1.923   8.450 -0.2964 -0.1477 -0.0471
  401YOPC   NC3 4935   1.137  17.525  10.693 -0.0792  0.0730 -0.0281
  401YOPC   PO4 4936   0.729  17.469  10.590  0.1995 -0.1453  0.1948
  401YOPC   GL1 4937   0.499  17.557  10.162 -0.0300  0.1322  0.1088
  401YOPC   GL2 4938   0.218  17.343  10.209 -0.0418 -0.0125  0.2403
  401YOPC   C1A 4939   0.451  17.299   9.765  0.0818 -0.1135  0.1580
  401YOPC   D2A 4940   0.347  17.179   9.408 -0.1234  0.1886 -0.1692
  401YOPC   C3A 4941   0.639  17.376   9.110 -0.0707 -0.1639 -0.0707
  401YOPC   C4A 4942   0.988  17.705   9.204 -0.2232 -0.2860  0.0524
  401YOPC   C1B 4943  -0.004  17.110   9.876 -0.0086  0.1261 -0.0423
  401YOPC   C2B 4944  -0.258  17.253   9.603  0.0304 -0.1159 -0.3384
  401YOPC   D3B 4945  -0.548  17.113   9.344  0.1182  0.0194 -0.0553
  401YOPC   C4B 4946  -0.622  17.139   8.875  0.2970 -0.0404 -0.1128
  402YOPC   NC3 4947  15.578  12.401  10.248  0.0664  0.1775 -0.2977
  402YOPC   PO4 4948  15.975  12.191  10.257 -0.3733  0.0021  0.3151
  402YOPC   GL1 4949  15.870  12.261   9.848 -0.2367  0.0038  0.1146
  402YOPC   GL2 4950  15.471  12.231   9.781 -0.1176 -0.0995  0.0415
  402YOPC   C1A 4951  15.838  12.326   9.426  0.2510  0.0069 -0.0720
  402YOPC   D2A 4952  15.837  12.293   9.010 -0.1092  0.0900 -0.3809
  402YOPC   C3A 4953  15.701  12.054   8.735  0.1574 -0.0847  0.1093
  402YOPC   C4A 4954  15.762  11.972   8.353  0.2191  0.3769 -0.2040
  402YOPC   C1B 4955  15.468  12.609   9.636 -0.2753 -0.0438 -0.0266
  402YOPC   C2B 4956  15.620  12.757   9.155  0.1895 -0.0728 -0.0524
  402YOPC   D3B 4957  15.442  12.509   8.845 -0.1818  0.3083 -0.0418
  402YOPC   C4B 4958  15.191  12.531   8.464  0.3819  0.0589  0.2121
  403YOPC   NC3 4959   1.975   5.457  11.266 -0.0473 -0.1101 -0.0854
  403YOPC   PO4 4960   1.986   5.806  10.852 -0.1117  0.1283 -0.0452
  403YOPC   GL1 4961   2.280   5.711  10.570  0.1785 -0.0131  0.2471
  403YOPC   GL2 4962   2.482   5.882  10.483 -0.3971  0.0051  0.0685
  403YOPC   C1A 4963   2.304   5.490  10.155  0.1053 -0.0295  0.1707
  403YOPC   D2A 4964   2.475   5.398   9.751 -0.0872 -0.1549  0.1130
  403YOPC   C3A 4965   2.667   5.809   9.481 -0.1555  0.1981  0.0237
  403YOPC   C4A 4966   2.964   6.074   9.215  0.1702 -0.1642 -0.1394
  403YOPC   C1B 4967   2.148   6.066  10.256  0.1713  0.3535 -0.0206
  403YOPC   C2B 4968   1.685   6.081  10.043  0.2608 -0.1202 -0.1459
  403YOPC   D3B 4969   1.572   5.865   9.887 -0.1220 -0.1179 -0.1626
  403YOPC   C4B 4970   1.350   5.470   9.896 -0.1261 -0.0759 -0.0615
  404YOPC   NC3 4971   9.253   9.998  10.750 -0.1741  0.1985  0.1561
  404YOPC   PO4 4972   9.510   9.652  10.858 -0.0649 -0.0723  0.0766
  404YOPC   GL1 4973   9.677   9.735  10.404  0.1872 -0.3787 -0.1887
  404YOPC   GL2 4974   9.948   9.454  10.246 -0.0317 -0.1354 -0.2060
  404YOPC   C1A 4975   9.381   9.904  10.008 -0.5841 -0.0346  0.1393
  404YOPC   D2A 4976   9.172   9.915   9.568 -0.0220 -0.0355  0.0548
  404YOPC   C3A 4977   9.478   9.829   9.319 -0.0343  0.2072  0.2865
  404YOPC   C4A 4978   9.505   9.960   8.880  0.2046 -0.0004 -0.0493
  404YOPC   C1B 4979   9.900   9.724   9.968  0.3144  0.0162 -0.1010
  404YOPC   C2B 4980   9.934   9.945   9.571 -0.1906  0.2786 -0.3682
  404YOPC   D3B 4981   9.918   9.788   9.179  0.1333 -0.4162 -0.3620
  404YOPC   C4B 4982   9.711   9.527   8.996 -0.1435 -0.1848 -0.0476
  405YOPC   NC3 4983   7.310   4.322  10.150  0.2151  0.1776  0.0206
  405YOPC   PO4 4984   7.383   4.711  10.276 -0.0158 -0.0537  0.1708
  405YOPC   GL1 4985   7.446   4.732   9.906 -0.0678  0.1343  0.0048
  405YOPC   GL2 4986   7.723   4.858   9.712 -0.1143  0.1678 -0.0776
  405YOPC   C1A 4987   7.284   4.664   9.488  0.0419 -0.1120  0.1919
  405YOPC   D2A 4988   7.102   4.626   9.121  0.2388 -0.1214  0.2934
  405YOPC   C3A 4989   6.805   4.729   8.849  0.2460 -0.0693 -0.0887
  405YOPC   C4A 4990   6.479   4.818   8.647 -0.1721 -0.0774 -0.1840
  405YOPC   C1B 4991   7.858   4.975   9.364  0.1935  0.2250 -0.2380
  405YOPC   C2B 4992   7.891   5.072   8.952 -0.1047 -0.2269 -0.0871
  405YOPC   D3B 4993   7.761   5.174   8.606  0.0922  0.1547  0.1032
  405YOPC   C4B 4994   7.912   5.247   8.121  0.0290  0.0082 -0.1371
  406YOPC   NC3 4995  15.084   0.296   9.737 -0.1792  0.3156 -0.0625
  406YOPC   PO4 4996  15.550   0.364   9.807  0.0586 -0.1766 -0.0061
  406YOPC   GL1 4997  15.634   0.488   9.473  0.0052 -0.2604 -0.2905
  406YOPC   GL2 4998  15.839   0.299   9.279 -0.1506 -0.0125  0.2626
  406YOPC   C1A 4999  15.631   0.698   9.058  0.0060 -0.1505 -0.0150
  406YOPC   D2A 5000  15.636   0.580   8.609  0.0522  0.2001 -0.0927
  406YOPC   C3A 5001  15.959   0.280   8.472  0.2008  0.1830 -0.0300
  406YOPC   C4A 5002  15.986   0.134   8.056 -0.0966 -0.1128 -0.0904
  406YOPC   C1B 5003  16.071   0.314   9.017  0.4218 -0.0817 -0.2156
  406YOPC   C2B 5004  16.430   0.149   8.788 -0.2303 -0.2475 -0.2984
  406YOPC   D3B 5005  16.471   0.150   8.296 -0.1397  0.2038 -0.0377
  406YOPC   C4B 5006  16.683  -0.070   7.924 -0.0712  0.0081 -0.0703
  407YOPC   NC3 5007   0.499   6.756  10.716 -0.3284 -0.0470 -0.3806
  407YOPC   PO4 5008   0.962   6.927  10.740  0.1880 -0.2684 -0.2489
  407YOPC   GL1 5009   1.063   6.636  10.475 -0.0853 -0.2754  0.0496
  407YOPC   GL2 5010   1.295   6.331  10.390  0.1231 -0.0588 -0.0356
  407YOPC   C1A 5011   1.134   6.644   9.970 -0.3120  0.1905 -0.0978
  407YOPC   D2A 5012   1.129   6.628   9.494  0.1572  0.0599 -0.3343
  407YOPC   C3A 5013   1.343   6.848   9.161 -0.0625  0.4213  0.1625
  407YOPC   C4A 5014   1.488   6.987   8.798  0.2811  0.0052 -0.2610
  407YOPC   C1B 5015   1.163   6.149  10.065  0.0352  0.0038  0.1209
  407YOPC   C2B 5016   1.427   6.284   9.670  0.0572  0.1675 -0.0564
  407YOPC   D3B 5017   1.322   6.303   9.215 -0.2196  0.0742 -0.2706
  407YOPC   C4B 5018   1.269   6.482   8.774  0.1491 -0.1542 -0.1543
  408YOPC   NC3 5019  11.499  15.966   9.946  0.0905  0.2122 -0.0631
  408YOPC   PO4 5020  11.382  16.025   9.545  0.0027  0.2453 -0.1201
  408YOPC   GL1 5021  11.045  16.120   9.219  0.1547 -0.0345  0.1122
  408YOPC   GL2 5022  10.775  15.999   9.461  0.3420  0.1650  0.3491
  408YOPC   C1A 5023  11.112  16.063   8.766 -0.1443 -0.1378  0.0544
  408YOPC   D2A 5024  11.144  15.750   8.431 -0.1242 -0.1587 -0.0739
  408YOPC   C3A 5025  11.313  15.841   8.087 -0.0200 -0.2974  0.2564
  408YOPC   C4A 5026  11.720  15.811   7.771  0.0296  0.3505 -0.1353
  408YOPC   C1B 5027  10.660  15.935   9.008 -0.0889  0.2533 -0.0595
  408YOPC   C2B 5028  10.629  15.963   8.578  0.1641 -0.1682  0.1974
  408YOPC   D3B 5029  10.676  15.574   8.324  0.0593 -0.1974 -0.1537
  408YOPC   C4B 5030  10.697  15.244   8.456  0.0507  0.2899 -0.0687
  409YOPC   NC3 5031   6.611  14.739  10.078 -0.1741  0.2501 -0.2847
  409YOPC   PO4 5032   6.691  15.186  10.071 -0.3955  0.1061  0.0910
  409YOPC   GL1 5033   6.862  15.010   9.731  0.0677 -0.0168 -0.1631
  409YOPC   GL2 5034   7.100  14.758   9.684  0.0731 -0.0511  0.2934
  409YOPC   C1A 5035   6.634  15.020   9.410 -0.3630 -0.1846  0.1895
  409YOPC   D2A 5036   6.238  15.059   9.159 -0.3244 -0.0505  0.1391
  409YOPC   C3A 5037   6.300  15.066   8.663 -0.1020 -0.0821  0.2492
  409YOPC   C4A 5038   6.303  14.704   8.357 -0.1485  0.0694  0.1539
  409YOPC   C1B 5039   7.006  14.744   9.273 -0.0764 -0.0109 -0.3941
  409YOPC   C2B 5040   6.690  14.883   8.944  0.0451  0.1075 -0.1471
  409YOPC   D3B 5041   6.756  14.944   8.550  0.1611  0.0541  0.1105
  409YOPC   C4B 5042   6.649  15.222   8.246  0.1099  0.0217  0.1524
  410YOPC   NC3 5043  13.381   1.917   9.673  0.0828  0.0192 -0.0773
  410YOPC   PO4 5044  12.941   1.865   9.907 -0.1040 -0.2730 -0.1758
  410YOPC   GL1 5045  12.875   2.286   9.581  0.0209 -0.0943  0.0766
  410YOPC   GL2 5046  13.073   2.317   9.243  0.1557 -0.3424 -0.1728
  410YOPC   C1A 5047  12.577   2.439   9.252  0.0380  0.0457  0.0114
  410YOPC   D2A 5048  12.343   2.321   8.771 -0.0597 -0.1323 -0.1014
  410YOPC   C3A 5049  12.278   2.647   8.475  0.1207  0.6776  0.0054
  410YOPC   C4A 5050  12.435   2.997   8.360  0.3378  0.1302  0.3647
  410YOPC   C1B 5051  12.927   2.350   8.804  0.0435 -0.0961 -0.1365
  410YOPC   C2B 5052  12.722   2.423   8.419  0.3019  0.2056 -0.3824
  410YOPC   D3B 5053  12.808   2.271   8.006  0.0169  0.0827  0.1963
  410YOPC   C4B 5054  12.863   2.601   7.709  0.1482  0.1408  0.0530
  411YOPC   NC3 5055  13.717  12.188  10.401 -0.0410  0.0800 -0.1603
  411YOPC   PO4 5056  13.905  11.945  10.323  0.1833  0.0486 -0.0050
  411YOPC   GL1 5057  14.221  11.701  10.103 -0.2791 -0.0118 -0.1796
  411YOPC   GL2 5058  14.385  11.836   9.833 -0.2314  0.4472 -0.1253
  411YOPC   C1A 5059  14.260  11.439   9.619 -0.0163  0.2554  0.3228
  411YOPC   D2A 5060  14.053  11.297   9.285  0.0355  0.2222 -0.0283
  411YOPC   C3A 5061  14.059  11.322   8.824 -0.1172 -0.0687 -0.1581
  411YOPC   C4A 5062  13.879  11.242   8.467 -0.2032  0.0852 -0.0554
  411YOPC   C1B 5063  14.464  11.828   9.387 -0.1714  0.3081 -0.2599
  411YOPC   C2B 5064  14.485  11.488   9.118 -0.1161  0.0441  0.0428
  411YOPC   D3B 5065  14.659  11.476   8.687 -0.0739 -0.0306  0.0000
  411YOPC   C4B 5066  14.782  11.436   8.223 -0.0992 -0.1700  0.0447
  412YOPC   NC3 5067  12.019   4.678  10.164 -0.1701  0.0264 -0.1346
  412YOPC   PO4 5068  11.608   4.941  10.171  0.0247  0.1689  0.0028
  412YOPC   GL1 5069  11.851   5.095   9.856 -0.0651 -0.2614 -0.0969
  412YOPC   GL2 5070  12.133   5.156   9.933 -0.0379 -0.1668 -0.0080
  412YOPC   C1A 5071  11.973   5.007   9.443 -0.0090 -0.0299  0.0503
  412YOPC   D2A 5072  12.268   5.034   9.182  0.1408  0.1339  0.2600
  412YOPC   C3A 5073  12.251   5.169   8.713 -0.0354 -0.3415 -0.1655
  412YOPC   C4A 5074  12.167   5.524   8.404  0.3906  0.0783 -0.0902
  412YOPC   C1B 5075  12.528   5.014   9.672 -0.0477  0.0803 -0.0132
  412YOPC   C2B 5076  12.674   4.681   9.404  0.2337  0.0279  0.0000
  412YOPC   D3B 5077  12.930   4.819   9.022  0.2297 -0.1661  0.1573
  412YOPC   C4B 5078  12.881   4.996   8.539 -0.1230 -0.0800 -0.0854
  413YOPC   NC3 5079  13.438   8.574  11.172 -0.0920  0.1013  0.2143
  413YOPC   PO4 5080  13.833   8.848  10.942 -0.0944 -0.0008 -0.2857
  413YOPC   GL1 5081  13.886   8.858  10.475 -0.1244 -0.2594 -0.0870
  413YOPC   GL2 5082  14.147   8.775  10.329  0.0917  0.0463 -0.0472
  413YOPC   C1A 5083  13.644   8.991  10.128 -0.2206 -0.2398 -0.0636
  413YOPC   D2A 5084  13.911   8.907   9.727  0.0453 -0.2083 -0.3048
  413YOPC   C3A 5085  13.894   9.012   9.247 -0.0262 -0.2468 -0.0854
  413YOPC   C4A 5086  13.741   9.013   8.863 -0.3307  0.0229 -0.1073
  413YOPC   C1B 5087  14.150   9.211  10.108  0.1596  0.0151  0.1302
  413YOPC   C2B 5088  14.185   9.354   9.599  0.2431 -0.1153  0.1532
  413YOPC   D3B 5089  14.488   9.506   9.318 -0.1015  0.0374  0.0017
  413YOPC   C4B 5090  14.811   9.572   9.016  0.0934  0.2313  0.1317
  414YOPC   NC3 5091  17.145  10.991  10.632  0.0153 -0.1060  0.0268
  414YOPC   PO4 5092  17.270  10.602  10.737  0.2726 -0.2549  0.2099
  414YOPC   GL1 5093  17.197  10.675  10.255 -0.0307 -0.2052 -0.2248
  414YOPC   GL2 5094  17.272  11.026  10.173  0.3651 -0.2171 -0.4767
  414YOPC   C1A 5095  16.928  10.771   9.885 -0.3299  0.2528  0.0037
  414YOPC   D2A 5096  16.753  10.648   9.641 -0.0913  0.1399  0.1544
  414YOPC   C3A 5097  16.904  10.670   9.276  0.1880 -0.0283  0.0225
  414YOPC   C4A 5098  16.833  10.445   8.940  0.1141  0.0801  0.0637
  414YOPC   C1B 5099  17.467  10.821   9.739  0.1427  0.2135  0.0293
  414YOPC   C2B 5100  17.376  10.477   9.388 -0.0935 -0.0708 -0.0744
  414YOPC   D3B 5101  17.623  10.690   8.991 -0.0681 -0.0898  0.3008
  414YOPC   C4B 5102  17.757  10.858   8.622  0.2319 -0.0510 -0.2133
  415YOPC   NC3 5103  15.399   0.942   9.956  0.0424  0.1723  0.4149
  415YOPC   PO4 5104  15.224   0.778   9.649  0.3037  0.1813  0.1150
  415YOPC   GL1 5105  15.204   0.978   9.274 -0.2701  0.3787 -0.0912
  415YOPC   GL2 5106  14.917   1.151   9.202 -0.0310  0.1699  0.1542
  415YOPC   C1A 5107  15.326   1.056   8.885  0.1743 -0.0944 -0.0685
  415YOPC   D2A 5108  15.545   1.086   8.574 -0.0100 -0.1488 -0.1094
  415YOPC   C3A 5109  15.596   1.189   8.199 -0.1034 -0.3540 -0.1119
  415YOPC   C4A 5110  15.798   1.493   7.988 -0.0112 -0.1681 -0.1953
  415YOPC   C1B 5111  14.801   1.070   8.718  0.0122  0.0654 -0.0769
  415YOPC   C2B 5112  15.053   1.277   8.490  0.1239 -0.1870  0.1782
  415YOPC   D3B 5113  15.057   1.179   8.104  0.1294 -0.0030 -0.0115
  415YOPC   C4B 5114  15.310   1.356   7.771 -0.0905 -0.2600 -0.2160
  416YOPC   NC3 5115  14.809   3.968  10.006 -0.1524  0.2469 -0.0431
  416YOPC   PO4 5116  15.134   3.705   9.936  0.2573  0.1892 -0.0342
  416YOPC   GL1 5117  15.143   3.971   9.587  0.2012  0.0073  0.0291
  416YOPC   GL2 5118  14.911   4.217   9.569  0.0212  0.3001  0.1541
  416YOPC   C1A 5119  15.404   4.098   9.326 -0.0614 -0.0755 -0.4225
  416YOPC   D2A 5120  15.700   4.211   8.993 -0.2292 -0.1729  0.1535
  416YOPC   C3A 5121  15.753   4.294   8.593  0.2362  0.0546 -0.1750
  416YOPC   C4A 5122  15.635   4.100   8.397  0.0633  0.1148  0.1061
  416YOPC   C1B 5123  15.007   4.049   9.136  0.0475 -0.1264  0.1790
  416YOPC   C2B 5124  15.305   3.999   8.806 -0.1589  0.2743  0.0675
  416YOPC   D3B 5125  15.127   3.897   8.451 -0.1159  0.0404 -0.1039
  416YOPC   C4B 5126  14.704   3.819   8.279 -0.0597 -0.1077  0.1283
  417YOPC   NC3 5127   8.892  10.134  11.141  0.1611  0.0364  0.0412
  417YOPC   PO4 5128   8.955  10.442  10.875 -0.0777 -0.4682  0.1830
  417YOPC   GL1 5129   8.773  10.557  10.488  0.3831 -0.1975 -0.1183
  417YOPC   GL2 5130   8.499  10.855  10.488  0.1984 -0.1657 -0.2586
  417YOPC   C1A 5131   8.548  10.623  10.061 -0.1077  0.1447  0.1164
  417YOPC   D2A 5132   8.517  10.506   9.655  0.2123 -0.0450 -0.2128
  417YOPC   C3A 5133   8.328  10.329   9.224 -0.0767 -0.0363  0.0057
  417YOPC   C4A 5134   7.922  10.153   9.044  0.1438 -0.3558 -0.0754
  417YOPC   C1B 5135   8.835  11.003  10.227 -0.0484 -0.0810  0.1410
  417YOPC   C2B 5136   9.056  11.196   9.974  0.0068  0.4333  0.0038
  417YOPC   D3B 5137   9.237  10.929   9.728  0.0545 -0.1914  0.2835
  417YOPC   C4B 5138   9.291  10.776   9.385  0.3035  0.0301 -0.0082
  418YOPC   NC3 5139  15.120   7.361  10.965  0.2463  0.1621 -0.0485
  418YOPC   PO4 5140  15.250   7.089  10.738 -0.0046 -0.1339  0.0262
  418YOPC   GL1 5141  15.270   7.444  10.411 -0.1592  0.0427 -0.1854
  418YOPC   GL2 5142  15.373   7.169  10.206 -0.4073  0.2536 -0.0088
  418YOPC   C1A 5143  15.206   7.700  10.132  0.1404 -0.1903  0.1926
  418YOPC   D2A 5144  15.430   8.013   9.886 -0.0348 -0.0150  0.1089
  418YOPC   C3A 5145  15.279   8.340   9.513 -0.1147 -0.2594 -0.0610
  418YOPC   C4A 5146  15.479   8.300   9.144  0.2187  0.0972  0.0240
  418YOPC   C1B 5147  15.230   7.160   9.880 -0.0440 -0.0113  0.0989
  418YOPC   C2B 5148  15.083   6.937   9.533 -0.3336 -0.1186  0.1270
  418YOPC   D3B 5149  15.034   6.969   9.159 -0.0816 -0.0610  0.1851
  418YOPC   C4B 5150  15.063   7.193   8.819  0.1082 -0.0355  0.1041
  419YOPC   NC3 5151   5.735  15.373  10.141 -0.1261 -0.2191  0.1053
  419YOPC   PO4 5152   5.321  15.479   9.898  0.3151  0.2348  0.0277
  419YOPC   GL1 5153   5.154  15.337   9.616  0.1283  0.0805  0.1224
  419YOPC   GL2 5154   5.312  15.376   9.332  0.0364  0.2244 -0.4157
  419YOPC   C1A 5155   4.846  15.282   9.259 -0.0873  0.3625  0.0864
  419YOPC   D2A 5156   4.848  15.151   8.871  0.1477  0.0431 -0.2000
  419YOPC   C3A 5157   4.935  14.751   8.766  0.1994 -0.1466 -0.1212
  419YOPC   C4A 5158   5.192  14.490   8.614 -0.0613  0.1377 -0.0579
  419YOPC   C1B 5159   5.220  15.553   8.932  0.1542 -0.1484 -0.0133
  419YOPC   C2B 5160   5.237  15.549   8.432 -0.1397  0.0796  0.0167
  419YOPC   D3B 5161   4.952  15.467   8.272 -0.3699 -0.1547  0.0535
  419YOPC   C4B 5162   4.623  15.293   8.160 -0.1690  0.2446  0.1934
  420YOPC   NC3 5163   5.130   4.853  10.450  0.0657  0.2434 -0.1777
  420YOPC   PO4 5164   4.761   4.740  10.679 -0.2375  0.2501  0.1002
  420YOPC   GL1 5165   4.794   4.722  10.174 -0.0202 -0.2504 -0.0984
  420YOPC   GL2 5166   4.500   4.472  10.087  0.1033 -0.1105 -0.2667
  420YOPC   C1A 5167   4.846   4.763   9.766  0.3778  0.0753 -0.2351
  420YOPC   D2A 5168   4.888   4.797   9.365 -0.1520  0.0868  0.0490
  420YOPC   C3A 5169   5.063   5.218   9.157 -0.0268 -0.0204 -0.2337
  420YOPC   C4A 5170   5.138   5.398   8.779  0.1041  0.0872 -0.0612
  420YOPC   C1B 5171   4.274   4.239   9.757  0.0160  0.1865  0.2708
  420YOPC   C2B 5172   4.193   4.224   9.271 -0.1515  0.1380  0.1642
  420YOPC   D3B 5173   4.146   4.414   8.858 -0.0150  0.0742  0.2449
  420YOPC   C4B 5174   4.153   4.897   8.744 -0.0079  0.0653 -0.2131
  421YOPC   NC3 5175  17.179   1.398  10.409  0.1472  0.2275 -0.1015
  421YOPC   PO4 5176  16.817   1.682  10.414  0.0657  0.1788 -0.2242
  421YOPC   GL1 5177  16.893   1.822   9.950  0.0390  0.0202  0.0932
  421YOPC   GL2 5178  17.261   1.932   9.890 -0.1800  0.2965  0.1710
  421YOPC   C1A 5179  16.867   1.692   9.532  0.0795  0.0879 -0.1430
  421YOPC   D2A 5180  16.875   1.571   9.056  0.1210  0.0047 -0.0253
  421YOPC   C3A 5181  16.743   1.218   8.907  0.1461  0.0441  0.1845
  421YOPC   C4A 5182  16.634   1.023   8.518  0.1289  0.0832 -0.0698
  421YOPC   C1B 5183  17.375   2.046   9.527  0.2701 -0.0729  0.2210
  421YOPC   C2B 5184  17.471   2.238   9.321  0.2932 -0.2397  0.0163
  421YOPC   D3B 5185  17.403   2.184   8.928  0.1945  0.0275  0.1058
  421YOPC   C4B 5186  17.451   2.223   8.469 -0.1806  0.0476 -0.1932
  422YOPC   NC3 5187   0.495  10.121  11.047 -0.3297 -0.0046 -0.0362
  422YOPC   PO4 5188   0.326   9.948  10.582  0.1827  0.0401 -0.1309
  422YOPC   GL1 5189   0.257   9.946  10.128 -0.1217  0.1235  0.3087
  422YOPC   GL2 5190  -0.069  10.021  10.035 -0.4076 -0.1813  0.0442
  422YOPC   C1A 5191   0.318   9.791   9.733 -0.2055  0.0808  0.0303
  422YOPC   D2A 5192   0.160   9.599   9.490  0.1733  0.1910 -0.3074
  422YOPC   C3A 5193   0.213   9.723   8.986 -0.5039  0.0836 -0.0727
  422YOPC   C4A 5194   0.126  10.089   8.751 -0.4120  0.2149  0.2322
  422YOPC   C1B 5195  -0.027  10.210   9.602  0.1684  0.0178  0.0027
  422YOPC   C2B 5196   0.190  10.196   9.223 -0.4094  0.3028 -0.0095
  422YOPC   D3B 5197   0.538  10.167   8.972 -0.0238  0.1526 -0.0691
  422YOPC   C4B 5198   0.770   9.871   8.783 -0.2706 -0.0850  0.0770
  423YOPC   NC3 5199   0.818   2.663  10.246  0.2169 -0.0733  0.0856
  423YOPC   PO4 5200   1.107   2.997  10.117  0.0988 -0.0146 -0.0084
  423YOPC   GL1 5201   1.102   2.944   9.700  0.0630 -0.0827  0.3089
  423YOPC   GL2 5202   0.785   3.001   9.651  0.3613  0.1475  0.0315
  423YOPC   C1A 5203   0.995   3.019   9.189 -0.3189 -0.2810 -0.1757
  423YOPC   D2A 5204   0.881   2.753   8.891 -0.0624 -0.3112 -0.1005
  423YOPC   C3A 5205   1.028   2.441   8.687 -0.3400  0.0459  0.0813
  423YOPC   C4A 5206   1.392   2.174   8.556 -0.0244 -0.2070 -0.0479
  423YOPC   C1B 5207   0.416   2.791   9.335 -0.0474 -0.2425  0.4211
  423YOPC   C2B 5208   0.426   2.605   8.992 -0.0207  0.0579 -0.0811
  423YOPC   D3B 5209   0.204   2.172   8.867  0.4864 -0.2638  0.0986
  423YOPC   C4B 5210   0.019   1.854   8.673 -0.0156  0.0151 -0.1890
  424YOPC   NC3 5211  13.144   9.316  10.803  0.2022 -0.2544  0.1030
  424YOPC   PO4 5212  12.865   8.995  10.677  0.0870 -0.4890  0.0129
  424YOPC   GL1 5213  13.028   9.146  10.292  0.2387  0.1916  0.0277
  424YOPC   GL2 5214  12.907   9.458  10.314 -0.3422 -0.0361  0.0678
  424YOPC   C1A 5215  13.280   9.221   9.916  0.0475 -0.2957 -0.3056
  424YOPC   D2A 5216  13.431   9.031   9.587 -0.1060 -0.1176 -0.0889
  424YOPC   C3A 5217  13.457   9.278   9.192 -0.0478  0.0809 -0.1282
  424YOPC   C4A 5218  13.506   9.575   8.882  0.1134  0.0676  0.0506
  424YOPC   C1B 5219  12.741   9.428  10.006 -0.1720 -0.0925  0.1290
  424YOPC   C2B 5220  12.773   9.249   9.668  0.2580 -0.1422 -0.0428
  424YOPC   D3B 5221  12.418   9.205   9.302  0.0089  0.2047 -0.0311
  424YOPC   C4B 5222  12.400   9.393   8.932  0.3149 -0.0570  0.2415
  425YOPC   NC3 5223   6.758  17.706   9.791  0.6130  0.1606 -0.0983
  425YOPC   PO4 5224   7.230  17.751   9.986  0.2533 -0.0309 -0.1396
  425YOPC   GL1 5225   7.227  17.909   9.575  0.1989 -0.0164  0.1421
  425YOPC   GL2 5226   7.413  17.673   9.315  0.1676  0.0918  0.4965
  425YOPC   C1A 5227   7.216  18.124   9.126 -0.1368 -0.0656 -0.1932
  425YOPC   D2A 5228   7.242  18.287   8.749 -0.3221 -0.1254  0.0609
  425YOPC   C3A 5229   7.291  18.267   8.395  0.0933 -0.1451  0.0195
  425YOPC   C4A 5230   7.541  18.203   8.005 -0.0408 -0.0180 -0.2641
  425YOPC   C1B 5231   7.304  17.674   8.837  0.1132  0.2663 -0.2457
  425YOPC   C2B 5232   7.181  17.323   8.467 -0.0866  0.0577 -0.0614
  425YOPC   D3B 5233   7.291  17.189   8.071 -0.1359  0.1012  0.2818
  425YOPC   C4B 5234   7.580  16.817   7.860  0.2723 -0.0387  0.1488
  426YOPC   NC3 5235   5.468  11.399  10.715  0.1283  0.0675  0.0881
  426YOPC   PO4 5236   5.874  11.661  10.900 -0.1765  0.0884 -0.1684
  426YOPC   GL1 5237   6.038  11.443  10.519 -0.0153  0.1223 -0.0726
  426YOPC   GL2 5238   6.362  11.276  10.472 -0.1028  0.0371  0.0268
  426YOPC   C1A 5239   5.982  11.375  10.089  0.2478  0.2921 -0.2108
  426YOPC   D2A 5240   6.062  11.296   9.723 -0.0075 -0.2249 -0.3095
  426YOPC   C3A 5241   5.897  11.305   9.330  0.1077  0.2748  0.0252
  426YOPC   C4A 5242   6.276  11.349   9.000 -0.3232 -0.1729  0.1484
  426YOPC   C1B 5243   6.295  10.998  10.119  0.0616  0.0828  0.1241
  426YOPC   C2B 5244   6.402  10.918   9.747 -0.1540  0.2025  0.1168
  426YOPC   D3B 5245   6.475  11.210   9.446 -0.0194 -0.1376 -0.1752
  426YOPC   C4B 5246   6.369  11.615   9.416 -0.1329 -0.0472  0.0816
  427YOPC   NC3 5247  14.736  11.004  10.749  0.1266  0.0215  0.1746
  427YOPC   PO4 5248  14.561  10.593  10.588 -0.1190 -0.2841 -0.1650
  427YOPC   GL1 5249  14.603  10.360  10.270  0.1340 -0.0632  0.3014
  427YOPC   GL2 5250  14.544   9.971  10.325  0.1003 -0.0127 -0.0480
  427YOPC   C1A 5251  14.739  10.510   9.843  0.0451  0.1589 -0.0324
  427YOPC   D2A 5252  14.607  10.266   9.475  0.1497 -0.0485  0.1262
  427YOPC   C3A 5253  14.316  10.390   9.116  0.2114 -0.2019 -0.0906
  427YOPC   C4A 5254  14.463  10.620   8.683  0.0167 -0.0782  0.0642
  427YOPC   C1B 5255  14.565  10.017   9.896 -0.2361 -0.0220  0.1706
  427YOPC   C2B 5256  14.252   9.856   9.536 -0.1941 -0.0512 -0.2385
  427YOPC   D3B 5257  14.366   9.924   9.078  0.0884  0.2114 -0.3312
  427YOPC   C4B 5258  14.452   9.963   8.651  0.1111 -0.1787  0.1713
  428YOPC   NC3 5259   5.395  13.787  10.845  0.0424  0.0454  0.1743
  428YOPC   PO4 5260   5.613  13.505  10.464 -0.3028 -0.0814 -0.2765
  428YOPC   GL1 5261   5.571  13.788  10.167 -0.0907  0.2074 -0.2801
  428YOPC   GL2 5262   5.230  13.848  10.127 -0.0583  0.2007 -0.2175
  428YOPC   C1A 5263   5.765  13.974   9.905 -0.2997  0.0589 -0.1366
  428YOPC   D2A 5264   6.172  14.034   9.795 -0.5077  0.1523  0.2064
  428YOPC   C3A 5265   6.238  14.161   9.382  0.0270 -0.1390 -0.0804
  428YOPC   C4A 5266   6.374  14.058   9.009 -0.2338  0.0068 -0.0536
  428YOPC   C1B 5267   5.366  13.600   9.763 -0.0272  0.1874  0.1401
  428YOPC   C2B 5268   5.097  13.424   9.444  0.0132  0.0175 -0.0846
  428YOPC   D3B 5269   5.009  13.597   8.988 -0.1842  0.2870  0.1517
  428YOPC   C4B 5270   4.973  13.988   8.717  0.1375  0.0825 -0.2200
  429YOPC   NC3 5271   0.946   4.300  10.455  0.3584 -0.0658 -0.1027
  429YOPC   PO4 5272   1.297   4.037  10.255  0.1001  0.0243 -0.2939
  429YOPC   GL1 5273   1.349   3.873   9.895 -0.5352  0.0484 -0.1030
  429YOPC   GL2 5274   1.588   4.115   9.737 -0.0119  0.2149 -0.1331
  429YOPC   C1A 5275   1.158   4.032   9.527  0.0632 -0.0230 -0.0944
  429YOPC   D2A 5276   0.918   4.256   9.190 -0.1126  0.2014 -0.0166
  429YOPC   C3A 5277   0.877   4.137   8.706 -0.0830 -0.0340  0.2214
  429YOPC   C4A 5278   0.900   4.240   8.218  0.0722 -0.1463 -0.0516
  429YOPC   C1B 5279   1.671   4.238   9.394 -0.3649 -0.2745  0.2031
  429YOPC   C2B 5280   1.667   4.668   9.296  0.1471  0.3232  0.3049
  429YOPC   D3B 5281   1.714   4.792   8.922 -0.0634 -0.1233  0.2778
  429YOPC   C4B 5282   1.860   5.120   8.702  0.0589  0.0507 -0.1118
  430YOPC   NC3 5283   5.607  10.670  10.800  0.0271  0.0865  0.2824
  430YOPC   PO4 5284   5.486  10.943  10.598  0.0773  0.0231 -0.0935
  430YOPC   GL1 5285   5.632  11.073  10.250 -0.1125 -0.0749 -0.2718
  430YOPC   GL2 5286   5.404  11.258  10.184 -0.0171 -0.0234 -0.0832
  430YOPC   C1A 5287   5.781  10.873   9.839  0.1997  0.1397  0.1072
  430YOPC   D2A 5288   5.993  10.823   9.431 -0.1076  0.0159  0.1951
  430YOPC   C3A 5289   5.999  10.869   9.025  0.1441 -0.1391 -0.0706
  430YOPC   C4A 5290   6.060  10.661   8.659  0.0935  0.2997  0.0410
  430YOPC   C1B 5291   5.473  11.361   9.863  0.1260  0.2286  0.2270
  430YOPC   C2B 5292   5.468  11.602   9.448 -0.2832  0.2436 -0.1369
  430YOPC   D3B 5293   5.573  11.792   9.050  0.1210 -0.1483 -0.1414
  430YOPC   C4B 5294   5.800  12.146   8.900 -0.0895 -0.2841  0.0080
  431YOPC   NC3 5295   0.253   2.531  11.023  0.1741 -0.0339  0.0502
  431YOPC   PO4 5296   0.116   2.464  10.602 -0.0038 -0.0314 -0.0472
  431YOPC   GL1 5297   0.080   2.734  10.333 -0.2936 -0.0883  0.2499
  431YOPC   GL2 5298  -0.098   2.923  10.096  0.1103  0.1320  0.2554
  431YOPC   C1A 5299   0.295   2.716   9.862  0.0222  0.0884 -0.1987
  431YOPC   D2A 5300   0.653   2.491   9.761  0.0467 -0.3418  0.0877
  431YOPC   C3A 5301   0.834   2.529   9.357 -0.0406  0.2032 -0.0054
  431YOPC   C4A 5302   1.133   2.244   9.134  0.4447 -0.0082  0.4360
  431YOPC   C1B 5303  -0.203   2.738   9.775 -0.3057  0.0347 -0.0742
  431YOPC   C2B 5304  -0.010   2.598   9.452  0.0675  0.0734 -0.1436
  431YOPC   D3B 5305  -0.175   2.336   9.130  0.1178 -0.2107  0.1621
  431YOPC   C4B 5306  -0.342   2.130   8.809 -0.0331  0.2518  0.0798
  432YOPC   NC3 5307  13.007   1.014  10.226 -0.2229  0.0373 -0.0090
  432YOPC   PO4 5308  13.386   1.001  10.064 -0.0764 -0.0385 -0.0456
  432YOPC   GL1 5309  13.290   0.928   9.633 -0.0690 -0.4457  0.1048
  432YOPC   GL2 5310  13.235   0.666   9.517  0.3799 -0.0674  0.1469
  432YOPC   C1A 5311  13.402   1.258   9.320 -0.1138 -0.1403 -0.0453
  432YOPC   D2A 5312  13.390   1.677   9.178  0.0460 -0.1205 -0.2591
  432YOPC   C3A 5313  13.021   1.909   9.018  0.1713 -0.0868 -0.0582
  432YOPC   C4A 5314  12.604   1.984   9.146 -0.1360  0.2543  0.3203
  432YOPC   C1B 5315  13.265   0.858   9.023  0.0864  0.0609  0.1670
  432YOPC   C2B 5316  13.244   0.852   8.629 -0.0278  0.0189 -0.3045
  432YOPC   D3B 5317  13.278   0.934   8.245  0.2880 -0.1692  0.1142
  432YOPC   C4B 5318  13.465   0.559   8.013  0.0570  0.0718  0.0448
  433YOPC   NC3 5319   7.980   2.000   9.817 -0.0327 -0.2144  0.2544
  433YOPC   PO4 5320   8.391   2.227   9.670 -0.1983  0.2531  0.0097
  433YOPC   GL1 5321   8.364   2.221   9.289  0.0663  0.0985  0.0299
  433YOPC   GL2 5322   8.265   1.851   9.164 -0.0834  0.2650  0.0796
  433YOPC   C1A 5323   8.356   2.473   8.844  0.1277 -0.0660 -0.3163
  433YOPC   D2A 5324   8.710   2.572   8.538 -0.4459 -0.1026 -0.4146
  433YOPC   C3A 5325   8.718   2.752   8.117 -0.1200 -0.0234  0.5809
  433YOPC   C4A 5326   8.594   2.642   7.695  0.1248 -0.1638 -0.0390
  433YOPC   C1B 5327   8.240   1.714   8.772  0.0335 -0.2995  0.1430
  433YOPC   C2B 5328   8.159   1.905   8.465  0.3742 -0.1214 -0.0092
  433YOPC   D3B 5329   8.270   1.799   8.023 -0.0565  0.3333  0.0482
  433YOPC   C4B 5330   8.211   1.711   7.596 -0.0932  0.1060 -0.1025
  434YOPC   NC3 5331  13.593  15.032   9.868  0.2243 -0.4028 -0.1773
  434YOPC   PO4 5332  13.778  15.387   9.765  0.1900  0.2099  0.0442
  434YOPC   GL1 5333  13.449  15.295   9.426  0.4288 -0.0086  0.2998
  434YOPC   GL2 5334  13.275  15.642   9.284 -0.2977  0.0841  0.2397
  434YOPC   C1A 5335  13.415  15.162   8.962  0.3321 -0.2382 -0.0420
  434YOPC   D2A 5336  13.448  15.014   8.480  0.1732  0.1054 -0.0818
  434YOPC   C3A 5337  13.763  15.112   8.153  0.2081 -0.3047  0.1294
  434YOPC   C4A 5338  14.051  15.047   7.785 -0.2602  0.1116 -0.2271
  434YOPC   C1B 5339  13.187  15.707   8.890  0.1709  0.0921 -0.2391
  434YOPC   C2B 5340  13.177  15.479   8.450  0.1639  0.0474 -0.0626
  434YOPC   D3B 5341  12.945  15.104   8.203 -0.0427  0.2188  0.0055
  434YOPC   C4B 5342  12.524  15.268   8.295  0.0670 -0.1231  0.0662
  435YOPC   NC3 5343   7.625  12.874  10.911 -0.0316  0.2827  0.0650
  435YOPC   PO4 5344   7.717  12.490  10.751 -0.0280 -0.2424  0.0155
  435YOPC   GL1 5345   7.564  12.320  10.301  0.0536 -0.1633 -0.0876
  435YOPC   GL2 5346   7.286  12.119  10.256  0.1780  0.2068 -0.4183
  435YOPC   C1A 5347   7.570  12.559   9.912 -0.0210 -0.1678  0.1560
  435YOPC   D2A 5348   7.882  12.808   9.839 -0.0819 -0.0876 -0.1582
  435YOPC   C3A 5349   7.972  12.993   9.477 -0.0135 -0.0649  0.0547
  435YOPC   C4A 5350   7.976  12.816   9.106 -0.0755  0.2198  0.0580
  435YOPC   C1B 5351   7.290  12.195   9.791 -0.2124 -0.0305 -0.1481
  435YOPC   C2B 5352   7.308  12.103   9.408  0.0621  0.1387 -0.1256
  435YOPC   D3B 5353   6.825  12.017   9.214 -0.2312 -0.3212 -0.0771
  435YOPC   C4B 5354   6.656  11.685   9.025  0.2749  0.1914  0.2994
  436YOPC   NC3 5355   7.902   6.506  10.862  0.0097 -0.1653 -0.2315
  436YOPC   PO4 5356   7.927   6.222  10.375  0.1824 -0.1000  0.2039
  436YOPC   GL1 5357   8.105   6.379   9.986  0.0580  0.0749 -0.0024
  436YOPC   GL2 5358   8.316   6.551  10.098 -0.0493 -0.2867  0.0203
  436YOPC   C1A 5359   7.847   6.466   9.640  0.1105 -0.0833  0.0420
  436YOPC   D2A 5360   7.974   6.450   9.239  0.1655  0.0669 -0.1351
  436YOPC   C3A 5361   7.902   6.811   9.014  0.0850  0.0056 -0.0247
  436YOPC   C4A 5362   7.604   6.947   8.749 -0.0641 -0.0762 -0.0490
  436YOPC   C1B 5363   8.320   6.656   9.637  0.0533  0.0814  0.0876
  436YOPC   C2B 5364   8.321   6.824   9.276  0.2235  0.1272 -0.0562
  436YOPC   D3B 5365   8.460   7.030   9.030  0.1151 -0.0866  0.1823
  436YOPC   C4B 5366   8.189   7.023   8.684  0.0757  0.0963  0.2495
  437YOPC   NC3 5367  13.087  13.445  10.540 -0.0692  0.0497 -0.0776
  437YOPC   PO4 5368  12.670  13.347  10.442 -0.0232 -0.1188  0.1620
  437YOPC   GL1 5369  12.632  13.077  10.088 -0.2631 -0.1071  0.0082
  437YOPC   GL2 5370  12.587  13.274   9.869 -0.1230  0.0395  0.0035
  437YOPC   C1A 5371  12.562  12.651   9.885  0.0296 -0.0341  0.3057
  437YOPC   D2A 5372  12.695  12.485   9.602 -0.0274  0.1782  0.3310
  437YOPC   C3A 5373  12.778  12.665   9.210 -0.0070 -0.1454 -0.0312
  437YOPC   C4A 5374  12.578  13.026   8.925  0.0611 -0.0683 -0.0016
  437YOPC   C1B 5375  12.864  12.981   9.639 -0.3230 -0.1591  0.1090
  437YOPC   C2B 5376  13.172  13.028   9.340  0.2074 -0.0244  0.3920
  437YOPC   D3B 5377  13.067  12.953   8.884  0.0778  0.1593 -0.2946
  437YOPC   C4B 5378  13.097  12.625   8.519 -0.1980  0.1291  0.0181
  438YOPC   NC3 5379  13.615   5.391  10.877  0.1269 -0.2629 -0.0611
  438YOPC   PO4 5380  13.755   5.532  10.377  0.2588 -0.0358 -0.0144
  438YOPC   GL1 5381  13.688   5.736   9.913  0.0566  0.1259 -0.1140
  438YOPC   GL2 5382  13.932   5.837   9.948  0.0215  0.0004  0.2356
  438YOPC   C1A 5383  13.757   5.830   9.430  0.1923 -0.3525  0.0249
  438YOPC   D2A 5384  13.864   5.882   9.046  0.3812  0.1519  0.2494
  438YOPC   C3A 5385  13.817   6.203   8.744 -0.0563  0.0138 -0.3277
  438YOPC   C4A 5386  13.529   6.462   8.668 -0.2317  0.0420 -0.0194
  438YOPC   C1B 5387  13.716   6.190   9.755 -0.2077  0.0552 -0.0026
  438YOPC   C2B 5388  13.612   6.363   9.350  0.0612  0.0488  0.1075
  438YOPC   D3B 5389  13.911   6.556   9.030  0.1203 -0.1056 -0.0968
  438YOPC   C4B 5390  14.049   6.801   8.696 -0.2208  0.1114 -0.1539
  439YOPC   NC3 5391   4.966  17.317   9.919 -0.2157 -0.0786 -0.0708
  439YOPC   PO4 5392   5.440  17.373  10.078  0.0563 -0.1278  0.0972
  439YOPC   GL1 5393   5.397  17.292   9.618  0.0710  0.0418  0.0849
  439YOPC   GL2 5394   5.357  17.558   9.468  0.0095 -0.0090 -0.0486
  439YOPC   C1A 5395   5.369  16.989   9.288 -0.0975  0.0844 -0.1269
  439YOPC   D2A 5396   5.451  16.552   9.105  0.0703  0.1120  0.0371
  439YOPC   C3A 5397   5.694  16.500   8.784 -0.2827 -0.1432 -0.3402
  439YOPC   C4A 5398   5.506  16.763   8.456 -0.3340  0.0681  0.2941
  439YOPC   C1B 5399   5.252  17.650   9.097 -0.2342  0.0583  0.0189
  439YOPC   C2B 5400   5.256  17.579   8.674 -0.2154  0.3754  0.0550
  439YOPC   D3B 5401   5.054  17.728   8.361  0.0153 -0.3339 -0.0891
  439YOPC   C4B 5402   4.874  18.031   8.091  0.2034 -0.0886  0.0309
  440YOPC   NC3 5403   3.669   1.223  10.403 -0.0342 -0.1555 -0.1145
  440YOPC   PO4 5404   3.160   1.213  10.253  0.1300  0.4490  0.1146
  440YOPC   GL1 5405   3.463   1.359   9.893 -0.0043 -0.1539 -0.0461
  440YOPC   GL2 5406   3.213   1.331   9.644  0.2486  0.0405  0.1160
  440YOPC   C1A 5407   3.743   1.231   9.609 -0.0929  0.1139 -0.2299
  440YOPC   D2A 5408   3.785   1.337   9.107  0.0553  0.2059 -0.1195
  440YOPC   C3A 5409   3.921   1.832   8.997  0.0115 -0.0756 -0.1552
  440YOPC   C4A 5410   3.708   1.914   8.611  0.1498 -0.3020  0.1287
  440YOPC   C1B 5411   3.174   1.294   9.198  0.2435  0.0807  0.1940
  440YOPC   C2B 5412   3.070   1.054   8.831 -0.0251  0.0656  0.0179
  440YOPC   D3B 5413   3.116   1.158   8.361 -0.1275  0.1589 -0.0125
  440YOPC   C4B 5414   3.592   1.125   8.209  0.1743  0.2045  0.0593
  441YOPC   NC3 5415   9.658   3.983  10.067 -0.0277  0.1018  0.0009
  441YOPC   PO4 5416   9.892   3.891   9.642 -0.0632  0.0013 -0.2619
  441YOPC   GL1 5417   9.530   3.896   9.458 -0.1071 -0.1825  0.0100
  441YOPC   GL2 5418   9.566   3.588   9.369  0.1360  0.0548 -0.0402
  441YOPC   C1A 5419   9.334   4.207   9.181 -0.0986 -0.0150  0.2211
  441YOPC   D2A 5420   9.097   4.534   8.936 -0.1890 -0.0677  0.2265
  441YOPC   C3A 5421   9.117   4.894   8.866  0.3016  0.0136  0.1268
  441YOPC   C4A 5422   9.386   5.167   8.816  0.2169  0.3294  0.0638
  441YOPC   C1B 5423   9.463   3.317   9.023 -0.1235  0.0312  0.0446
  441YOPC   C2B 5424   9.669   3.438   8.616  0.1235  0.0694  0.1570
  441YOPC   D3B 5425   9.527   3.812   8.307  0.0843  0.0490 -0.0434
  441YOPC   C4B 5426   9.063   3.812   8.182 -0.1318  0.1799  0.3010
  442YOPC   NC3 5427  17.487   5.314  10.508  0.0758  0.0705 -0.0653
  442YOPC   PO4 5428  17.916   5.204  10.569  0.2592 -0.2012 -0.2714
  442YOPC   GL1 5429  18.044   5.125  10.278  0.0821 -0.0204  0.1089
  442YOPC   GL2 5430  17.855   5.001   9.997 -0.2273 -0.0423  0.0831
  442YOPC   C1A 5431  18.384   5.020   9.903 -0.2800 -0.1575 -0.0103
  442YOPC   D2A 5432  18.683   5.093   9.571 -0.2023  0.3013 -0.0319
  442YOPC   C3A 5433  18.903   4.698   9.349  0.1312  0.1323 -0.0057
  442YOPC   C4A 5434  18.956   4.697   8.913  0.0763  0.2575 -0.2528
  442YOPC   C1B 5435  17.964   4.983   9.538 -0.0750  0.0913  0.0533
  442YOPC   C2B 5436  18.015   4.990   9.052  0.2980 -0.1645 -0.0085
  442YOPC   D3B 5437  18.239   4.982   8.749  0.0879  0.2553  0.2282
  442YOPC   C4B 5438  18.657   5.123   8.556  0.0478  0.3850 -0.0704
  443YOPC   NC3 5439   8.545  12.099  10.867 -0.1533  0.1878 -0.0302
  443YOPC   PO4 5440   8.866  11.901  10.647  0.3206  0.1296  0.0163
  443YOPC   GL1 5441   9.149  12.073  10.310  0.3773 -0.0251 -0.3112
  443YOPC   GL2 5442   9.531  11.989  10.425 -0.1903 -0.0973 -0.1942
  443YOPC   C1A 5443   9.136  12.165   9.894 -0.2137  0.1438 -0.0978
  443YOPC   D2A 5444   8.982  12.071   9.485  0.1831  0.2214  0.2680
  443YOPC   C3A 5445   9.195  11.927   9.184  0.0382 -0.1007 -0.3194
  443YOPC   C4A 5446   9.181  11.610   8.909 -0.2339  0.0371  0.2027
  443YOPC   C1B 5447   9.366  11.678  10.229  0.0193  0.0763 -0.3153
  443YOPC   C2B 5448   9.566  11.273   9.956 -0.5176 -0.4720  0.2417
  443YOPC   D3B 5449   9.584  11.216   9.528  0.1390  0.1311  0.0558
  443YOPC   C4B 5450   9.535  11.129   9.145 -0.0808  0.3431  0.1874
  444YOPC   NC3 5451  16.586   3.703  11.009  0.0052  0.1000 -0.0465
  444YOPC   PO4 5452  16.824   3.921  10.695 -0.1828  0.0375  0.0385
  444YOPC   GL1 5453  16.701   3.728  10.311 -0.2394  0.1732  0.2730
  444YOPC   GL2 5454  16.437   3.668  10.184 -0.3751 -0.0232 -0.1719
  444YOPC   C1A 5455  16.748   3.680   9.834 -0.1456  0.1112 -0.3240
  444YOPC   D2A 5456  16.922   4.070   9.622  0.2010  0.0267 -0.2806
  444YOPC   C3A 5457  17.031   3.969   9.289  0.2176  0.1754 -0.2271
  444YOPC   C4A 5458  17.146   3.958   8.866  0.1893 -0.0587 -0.2690
  444YOPC   C1B 5459  16.311   3.734   9.727 -0.1655  0.2522  0.1422
  444YOPC   C2B 5460  15.967   3.881   9.426 -0.1397  0.0367 -0.0075
  444YOPC   D3B 5461  16.157   3.977   8.993 -0.1376  0.1168 -0.0779
  444YOPC   C4B 5462  16.185   4.007   8.588  0.0876 -0.2333 -0.0409
  445YOPC   NC3 5463  17.430  13.272  10.716 -0.1182 -0.2977 -0.1456
  445YOPC   PO4 5464  17.762  13.369  10.479  0.3600  0.1896 -0.0777
  445YOPC   GL1 5465  17.606  13.512  10.101  0.1091 -0.0341  0.0622
  445YOPC   GL2 5466  17.873  13.617  10.019  0.1495  0.0806  0.1010
  445YOPC   C1A 5467  17.587  13.283   9.790  0.1340  0.1220  0.0920
  445YOPC   D2A 5468  17.779  13.296   9.396  0.1332  0.1599 -0.0464
  445YOPC   C3A 5469  17.466  13.114   9.201  0.1986 -0.1088 -0.2815
  445YOPC   C4A 5470  17.503  13.210   8.718  0.1370 -0.2847  0.3041
  445YOPC   C1B 5471  17.858  13.705   9.613 -0.0790  0.0290  0.0969
  445YOPC   C2B 5472  17.763  13.866   9.245 -0.3335  0.1039 -0.0329
  445YOPC   D3B 5473  17.648  13.595   8.972 -0.1414  0.0932  0.0977
  445YOPC   C4B 5474  17.510  13.686   8.527  0.1168  0.1615  0.0659
  446YOPC   NC3 5475  11.383  11.225  10.739 -0.0823  0.0404 -0.0177
  446YOPC   PO4 5476  11.012  10.865  10.807 -0.3799 -0.0847  0.2005
  446YOPC   GL1 5477  10.800  10.607  10.515 -0.0139 -0.4188  0.0879
  446YOPC   GL2 5478  10.939  10.373  10.309 -0.1320 -0.3894 -0.1811
  446YOPC   C1A 5479  10.430  10.448  10.283 -0.0766  0.0038  0.0625
  446YOPC   D2A 5480  10.158  10.671  10.008 -0.1242 -0.0634  0.2151
  446YOPC   C3A 5481  10.094  11.061  10.091  0.3419  0.0367  0.1264
  446YOPC   C4A 5482  10.400  11.463  10.110  0.2882 -0.1323 -0.1525
  446YOPC   C1B 5483  11.151  10.443   9.945 -0.4253 -0.1022 -0.2487
  446YOPC   C2B 5484  11.232  10.711   9.708  0.2093  0.1033 -0.1392
  446YOPC   D3B 5485  11.073  10.807   9.423  0.0883  0.2291 -0.0106
  446YOPC   C4B 5486  10.835  10.716   9.023 -0.3118  0.1597 -0.0012
  447YOPC   NC3 5487  16.800  11.420  10.760  0.1281  0.0355 -0.1543
  447YOPC   PO4 5488  16.459  11.489  10.472  0.2291 -0.2302  0.2147
  447YOPC   GL1 5489  16.358  11.507  10.073  0.0529  0.0351  0.1894
  447YOPC   GL2 5490  16.042  11.768   9.971 -0.2711  0.0496 -0.2615
  447YOPC   C1A 5491  16.243  11.437   9.665 -0.0414  0.0766  0.1028
  447YOPC   D2A 5492  16.033  11.390   9.237  0.1080  0.1152 -0.1024
  447YOPC   C3A 5493  16.120  11.220   8.778  0.1165 -0.3038 -0.0093
  447YOPC   C4A 5494  16.343  11.342   8.453  0.0717  0.0359  0.3884
  447YOPC   C1B 5495  15.860  11.748   9.584  0.1847 -0.1749 -0.0045
  447YOPC   C2B 5496  15.680  11.860   9.203  0.1602  0.1876  0.1072
  447YOPC   D3B 5497  15.335  12.137   9.217 -0.0100  0.0148 -0.0783
  447YOPC   C4B 5498  15.051  12.226   8.913  0.4231  0.1324 -0.0714
  448YOPC   NC3 5499  13.374   5.294  10.010  0.2411  0.1162 -0.0230
  448YOPC   PO4 5500  13.763   5.045  10.057 -0.3045 -0.2975  0.1330
  448YOPC   GL1 5501  13.856   5.290   9.748  0.0296 -0.0738  0.1198
  448YOPC   GL2 5502  13.686   5.265   9.632  0.0357  0.1339  0.0316
  448YOPC   C1A 5503  14.174   5.566   9.608 -0.2071 -0.2717  0.0011
  448YOPC   D2A 5504  14.307   5.684   9.245  0.1046  0.0003 -0.0061
  448YOPC   C3A 5505  14.501   5.468   9.037 -0.0155 -0.2702  0.2659
  448YOPC   C4A 5506  14.798   5.349   8.794 -0.1480 -0.1369  0.0405
  448YOPC   C1B 5507  13.930   5.332   9.248  0.3754  0.1030 -0.0178
  448YOPC   C2B 5508  13.925   5.446   8.845 -0.0409 -0.0428  0.1757
  448YOPC   D3B 5509  14.281   5.425   8.597  0.2416 -0.1019 -0.2545
  448YOPC   C4B 5510  14.611   5.240   8.362 -0.2314 -0.2488  0.3977
  449YOPC   NC3 5511   5.342   7.563  10.493 -0.0117 -0.1711  0.1012
  449YOPC   PO4 5512   5.452   7.238  10.737  0.2896 -0.0318 -0.2923
  449YOPC   GL1 5513   5.687   7.219  10.265  0.3548  0.0498 -0.2354
  449YOPC   GL2 5514   5.549   7.430  10.001  0.3637 -0.1142 -0.2207
  449YOPC   C1A 5515   5.602   7.007   9.801  0.1244  0.0553  0.2220
  449YOPC   D2A 5516   5.308   6.820   9.543  0.0563  0.3152 -0.1372
  449YOPC   C3A 5517   5.262   6.897   9.149 -0.3631  0.0657 -0.2343
  449YOPC   C4A 5518   5.384   6.817   8.787 -0.1666 -0.0472  0.1053
  449YOPC   C1B 5519   5.813   7.460   9.755 -0.1816  0.1019  0.1682
  449YOPC   C2B 5520   5.672   7.494   9.341  0.3766  0.1869 -0.2383
  449YOPC   D3B 5521   5.727   7.201   9.109 -0.0649 -0.3840  0.0974
  449YOPC   C4B 5522   5.773   7.117   8.553  0.4614  0.4240  0.2117
  450YOPC   NC3 5523   2.634   1.433  10.225 -0.1451  0.0024  0.3057
  450YOPC   PO4 5524   2.762   1.936  10.367  0.0388  0.1996  0.2570
  450YOPC   GL1 5525   2.808   2.196   9.985  0.1986  0.1989  0.1629
  450YOPC   GL2 5526   3.193   2.171   9.999 -0.0626 -0.1589 -0.2462
  450YOPC   C1A 5527   2.767   2.094   9.643  0.2800 -0.0429 -0.0032
  450YOPC   D2A 5528   2.966   1.711   9.333 -0.0345  0.4637  0.1130
  450YOPC   C3A 5529   2.920   1.520   8.772 -0.2065 -0.0080  0.0120
  450YOPC   C4A 5530   3.100   1.638   8.475  0.2160  0.0526  0.1587
  450YOPC   C1B 5531   3.423   1.989   9.647 -0.1175  0.3987 -0.0356
  450YOPC   C2B 5532   3.547   1.705   9.350  0.1054 -0.0003 -0.3636
  450YOPC   D3B 5533   3.413   1.655   8.973  0.0037 -0.0673 -0.0891
  450YOPC   C4B 5534   3.475   1.423   8.576  0.0401  0.1592 -0.0817
  451YOPC   NC3 5535  14.244   0.754   9.800 -0.2368  0.0029  0.3250
  451YOPC   PO4 5536  14.326   1.232   9.772 -0.0968  0.1101 -0.0563
  451YOPC   GL1 5537  14.373   0.958   9.367 -0.2444 -0.1012  0.1497
  451YOPC   GL2 5538  14.310   0.594   9.348 -0.2519 -0.1323  0.0771
  451YOPC   C1A 5539  14.323   1.098   9.024  0.1325 -0.0283 -0.0269
  451YOPC   D2A 5540  14.264   1.120   8.547  0.0143  0.1365  0.0647
  451YOPC   C3A 5541  14.575   1.111   8.247 -0.0502  0.0588  0.2137
  451YOPC   C4A 5542  14.682   0.839   7.843 -0.1592 -0.0771 -0.1056
  451YOPC   C1B 5543  14.123   0.618   8.932 -0.2507 -0.4313 -0.0017
  451YOPC   C2B 5544  14.111   0.580   8.455  0.0376  0.1584  0.1299
  451YOPC   D3B 5545  14.209   0.876   8.050  0.0277  0.2020 -0.1107
  451YOPC   C4B 5546  14.154   1.313   7.931 -0.2608  0.1683 -0.0700
  452YOPC   NC3 5547   7.367   6.996  10.399 -0.0071 -0.1387  0.1707
  452YOPC   PO4 5548   6.970   6.926  10.492 -0.0658 -0.0835  0.3624
  452YOPC   GL1 5549   6.710   6.931  10.212  0.0334 -0.0183  0.1347
  452YOPC   GL2 5550   6.605   6.647  10.349 -0.1677 -0.4310 -0.1233
  452YOPC   C1A 5551   6.632   6.838   9.844  0.1821 -0.0406  0.4293
  452YOPC   D2A 5552   6.638   6.968   9.435 -0.1826  0.5823 -0.0604
  452YOPC   C3A 5553   6.640   6.682   9.106 -0.0172  0.4986 -0.3017
  452YOPC   C4A 5554   6.633   6.625   8.741 -0.2916 -0.0788 -0.0665
  452YOPC   C1B 5555   6.716   6.346   9.994 -0.2314 -0.1751  0.4556
  452YOPC   C2B 5556   6.767   6.429   9.517  0.2071  0.0421  0.1875
  452YOPC   D3B 5557   6.859   6.182   9.100  0.0155 -0.0694 -0.0638
  452YOPC   C4B 5558   6.931   6.249   8.667 -0.0991  0.2134 -0.1252
  453YOPC   NC3 5559  11.513   6.245  10.424  0.2116 -0.0550  0.0548
  453YOPC   PO4 5560  11.517   6.660  10.638 -0.2120 -0.0217  0.0727
  453YOPC   GL1 5561  11.727   6.674  10.220  0.0525  0.2532  0.3950
  453YOPC   GL2 5562  12.056   6.810  10.142 -0.0891  0.0655  0.1961
  453YOPC   C1A 5563  11.938   6.443   9.883  0.0707  0.4179  0.1708
  453YOPC   D2A 5564  11.946   6.286   9.534 -0.0948  0.1096 -0.2441
  453YOPC   C3A 5565  12.088   5.963   9.208  0.1514 -0.0294  0.1123
  453YOPC   C4A 5566  11.908   5.861   8.809  0.0719  0.1872 -0.0178
  453YOPC   C1B 5567  12.418   7.028   9.952 -0.1455 -0.1032 -0.0340
  453YOPC   C2B 5568  12.355   7.470   9.627 -0.2597 -0.0570  0.0708
  453YOPC   D3B 5569  12.497   7.430   9.098 -0.3842 -0.1642  0.0082
  453YOPC   C4B 5570  12.829   7.497   8.857  0.0919 -0.0838 -0.2516
  454YOPC   NC3 5571  11.549  13.841  10.208  0.0285  0.0982  0.1182
  454YOPC   PO4 5572  11.601  13.395  10.263 -0.1283 -0.0410  0.2393
  454YOPC   GL1 5573  11.586  13.210   9.862 -0.1034 -0.0498  0.0833
  454YOPC   GL2 5574  11.347  13.054   9.764 -0.0700 -0.2668  0.0316
  454YOPC   C1A 5575  11.819  13.068   9.471 -0.3831 -0.3404  0.0354
  454YOPC   D2A 5576  11.767  13.055   9.026  0.0841  0.3911  0.3246
  454YOPC   C3A 5577  12.128  13.091   8.684  0.1320  0.3735  0.4185
  454YOPC   C4A 5578  12.509  13.159   8.441 -0.0599 -0.0170 -0.0480
  454YOPC   C1B 5579  11.304  13.200   9.320 -0.0680  0.1572 -0.0308
  454YOPC   C2B 5580  11.344  13.333   8.873  0.0415  0.1757  0.1415
  454YOPC   D3B 5581  11.081  13.364   8.605  0.0850 -0.4091 -0.0550
  454YOPC   C4B 5582  10.550  13.200   8.489 -0.2933 -0.0370 -0.0102
  455YOPC   NC3 5583  15.055   4.719   9.964 -0.1725 -0.1474 -0.0386
  455YOPC   PO4 5584  14.716   4.413  10.082 -0.0287 -0.0038  0.3187
  455YOPC   GL1 5585  14.571   4.600   9.557 -0.0470 -0.2201 -0.0878
  455YOPC   GL2 5586  14.839   4.849   9.505 -0.0631 -0.1706 -0.2206
  455YOPC   C1A 5587  14.656   4.455   9.178  0.1642 -0.1292  0.1659
  455YOPC   D2A 5588  14.614   4.454   8.737  0.0680  0.1441 -0.1142
  455YOPC   C3A 5589  14.806   4.247   8.444 -0.0258 -0.3483 -0.1227
  455YOPC   C4A 5590  15.239   4.134   8.037  0.0894 -0.1566  0.4710
  455YOPC   C1B 5591  14.821   4.889   8.987  0.1707  0.1569  0.0006
  455YOPC   C2B 5592  14.885   4.928   8.573  0.1180 -0.1725 -0.1214
  455YOPC   D3B 5593  14.584   4.727   8.263 -0.2237 -0.0599  0.0131
  455YOPC   C4B 5594  14.900   4.558   8.078  0.1029  0.0778  0.0222
  456YOPC   NC3 5595   1.778  12.602  10.355 -0.2137 -0.1303  0.1015
  456YOPC   PO4 5596   1.608  13.044  10.528  0.0089 -0.2140  0.0211
  456YOPC   GL1 5597   1.589  12.971  10.184  0.0417 -0.0849 -0.3191
  456YOPC   GL2 5598   1.236  12.912  10.069 -0.0762 -0.0678 -0.2236
  456YOPC   C1A 5599   1.751  12.772   9.723  0.1060  0.4630 -0.3579
  456YOPC   D2A 5600   1.616  12.682   9.358  0.1984  0.2543 -0.1608
  456YOPC   C3A 5601   1.746  12.461   9.047 -0.0173 -0.2335  0.0670
  456YOPC   C4A 5602   1.825  12.456   8.629  0.1839  0.0843 -0.1535
  456YOPC   C1B 5603   1.162  12.836   9.701  0.2318  0.0793  0.0760
  456YOPC   C2B 5604   1.120  12.748   9.249 -0.0991 -0.0318  0.0261
  456YOPC   D3B 5605   1.307  12.808   8.916  0.3394  0.0347  0.0434
  456YOPC   C4B 5606   1.321  12.772   8.515  0.0874  0.0002  0.0100
  457YOPC   NC3 5607   1.770   4.699  10.737 -0.4035  0.2550 -0.1634
  457YOPC   PO4 5608   1.281   4.870  10.475 -0.1361 -0.0381 -0.1927
  457YOPC   GL1 5609   1.086   4.769  10.159  0.0480 -0.0348  0.0597
  457YOPC   GL2 5610   1.155   4.446  10.009 -0.0722  0.1278 -0.3275
  457YOPC   C1A 5611   0.986   4.998   9.726 -0.0300 -0.2042  0.0108
  457YOPC   D2A 5612   0.966   5.312   9.516  0.2976  0.0978 -0.0178
  457YOPC   C3A 5613   1.017   5.539   9.176  0.0111 -0.0042 -0.2026
  457YOPC   C4A 5614   0.935   5.901   8.873 -0.4066 -0.0477 -0.1092
  457YOPC   C1B 5615   1.241   4.586   9.610  0.0090 -0.3015  0.2460
  457YOPC   C2B 5616   1.164   4.800   9.229 -0.1965  0.2829  0.0791
  457YOPC   D3B 5617   1.244   4.566   8.858 -0.1689 -0.0155 -0.3718
  457YOPC   C4B 5618   1.070   4.645   8.533 -0.1129 -0.1179 -0.3869
  458YOPC   NC3 5619   3.528   5.161  10.737  0.0333 -0.0029  0.0562
  458YOPC   PO4 5620   3.735   4.984  10.561  0.1707 -0.3134 -0.2164
  458YOPC   GL1 5621   3.971   4.993  10.252  0.1940 -0.1768  0.1526
  458YOPC   GL2 5622   3.961   4.729  10.124  0.1295 -0.0048  0.0220
  458YOPC   C1A 5623   4.388   4.947   9.994  0.1669 -0.0937 -0.2285
  458YOPC   D2A 5624   4.422   5.006   9.570  0.0377  0.2021  0.2430
  458YOPC   C3A 5625   4.447   4.583   9.501  0.1507  0.1515  0.1052
  458YOPC   C4A 5626   4.633   4.441   9.087  0.0520  0.3312 -0.1594
  458YOPC   C1B 5627   4.034   4.711   9.684 -0.1915  0.0530  0.1949
  458YOPC   C2B 5628   4.099   4.724   9.207 -0.1235 -0.1746 -0.1793
  458YOPC   D3B 5629   4.477   4.956   9.071 -0.2147 -0.2495  0.0892
  458YOPC   C4B 5630   4.669   5.185   8.811  0.0057  0.2760  0.1635
  459YOPC   NC3 5631   7.476   8.897  10.611  0.0946  0.0690 -0.1823
  459YOPC   PO4 5632   7.561   9.293  10.869  0.1881  0.1668  0.1696
  459YOPC   GL1 5633   7.537   9.381  10.521  0.1880 -0.0012 -0.1225
  459YOPC   GL2 5634   7.333   9.558  10.404  0.1659  0.3326 -0.1926
  459YOPC   C1A 5635   7.592   9.232  10.066  0.1698 -0.4071 -0.1082
  459YOPC   D2A 5636   7.161   9.368   9.858 -0.0779 -0.2576 -0.4064
  459YOPC   C3A 5637   7.257   9.357   9.431  0.0700 -0.1059 -0.1223
  459YOPC   C4A 5638   7.500   9.590   9.107  0.2554 -0.1964 -0.2736
  459YOPC   C1B 5639   7.430   9.756  10.023  0.0438  0.1345 -0.1681
  459YOPC   C2B 5640   7.533   9.671   9.687  0.2574  0.2572 -0.2612
  459YOPC   D3B 5641   7.501   9.959   9.409 -0.1097 -0.0585 -0.0747
  459YOPC   C4B 5642   7.495  10.298   9.539  0.4562  0.3760 -0.2147
  460YOPC   NC3 5643  15.258   1.314  10.240 -0.0341  0.0608  0.2835
  460YOPC   PO4 5644  15.729   1.247  10.153  0.2065 -0.2026  0.0899
  460YOPC   GL1 5645  15.802   1.300   9.687  0.0302  0.2221 -0.0557
  460YOPC   GL2 5646  15.669   1.033   9.492 -0.0631 -0.0660 -0.0395
  460YOPC   C1A 5647  16.126   1.269   9.462  0.0648 -0.2002 -0.1330
  460YOPC   D2A 5648  16.447   1.463   9.242 -0.1617  0.1448  0.0340
  460YOPC   C3A 5649  16.320   1.480   8.837 -0.2023 -0.2503 -0.0981
  460YOPC   C4A 5650  16.146   1.454   8.446  0.1203 -0.0303 -0.0815
  460YOPC   C1B 5651  15.766   1.209   9.126  0.1191 -0.4040 -0.0258
  460YOPC   C2B 5652  15.756   1.491   8.931 -0.0109  0.1248  0.0938
  460YOPC   D3B 5653  15.604   1.561   8.552  0.1664  0.0583 -0.1046
  460YOPC   C4B 5654  15.375   1.652   8.200 -0.2997 -0.1776  0.2007
  461YOPC   NC3 5655  17.532  17.488  10.176 -0.2294 -0.0033 -0.2602
  461YOPC   PO4 5656  17.084  17.305  10.321  0.2378 -0.0234  0.2046
  461YOPC   GL1 5657  17.119  16.933  10.039  0.1834  0.0633 -0.0253
  461YOPC   GL2 5658  16.930  16.821   9.894  0.2768  0.1770 -0.0523
  461YOPC   C1A 5659  17.387  17.000   9.711 -0.1131 -0.0623  0.0169
  461YOPC   D2A 5660  17.849  16.765   9.661 -0.0116  0.4098 -0.0777
  461YOPC   C3A 5661  18.187  16.738   9.267  0.3492  0.2413 -0.1108
  461YOPC   C4A 5662  18.447  16.926   8.918 -0.1483 -0.1838 -0.3178
  461YOPC   C1B 5663  16.984  16.633   9.573  0.2848  0.1249 -0.3771
  461YOPC   C2B 5664  17.036  16.603   9.186  0.2626  0.1615 -0.0269
  461YOPC   D3B 5665  16.704  16.521   8.910 -0.1565 -0.1044  0.2655
  461YOPC   C4B 5666  16.683  16.246   8.715  0.3440  0.0620  0.0948
  462YOPC   NC3 5667   2.855  13.726  10.381 -0.5673 -0.0194 -0.0824
  462YOPC   PO4 5668   2.836  14.174  10.223 -0.1199 -0.1088  0.0294
  462YOPC   GL1 5669   2.882  13.896   9.895  0.0792 -0.1978 -0.0965
  462YOPC   GL2 5670   3.124  14.105   9.807  0.3224  0.1811 -0.1779
  462YOPC   C1A 5671   2.794  13.665   9.501  0.0648 -0.1169  0.1643
  462YOPC   D2A 5672   2.482  13.729   9.202 -0.1322  0.0020  0.1410
  462YOPC   C3A 5673   2.460  13.563   8.877 -0.2122 -0.0378  0.0785
  462YOPC   C4A 5674   2.208  13.261   8.636 -0.1118  0.3470 -0.3086
  462YOPC   C1B 5675   3.153  14.019   9.394 -0.1462 -0.2414  0.0826
  462YOPC   C2B 5676   3.019  13.717   9.004  0.0172 -0.0254 -0.1642
  462YOPC   D3B 5677   3.109  13.621   8.698  0.1588 -0.1115  0.2001
  462YOPC   C4B 5678   3.246  13.271   8.499 -0.1076  0.1190  0.0516
  463YOPC   NC3 5679   9.345   1.070   9.946 -0.1601  0.0777 -0.3826
  463YOPC   PO4 5680   9.425   0.906   9.588 -0.1497  0.1412 -0.0550
  463YOPC   GL1 5681   9.423   0.967   9.114 -0.0591  0.0364 -0.0601
  463YOPC   GL2 5682   9.437   1.326   9.064 -0.2102  0.0180  0.1219
  463YOPC   C1A 5683   9.557   0.930   8.600  0.1550 -0.1805 -0.0661
  463YOPC   D2A 5684   9.460   0.977   8.286  0.0264  0.0845  0.1650
  463YOPC   C3A 5685   9.420   1.410   8.350  0.0781 -0.1773  0.2758
  463YOPC   C4A 5686   9.584   1.712   8.473  0.0337 -0.1532 -0.1486
  463YOPC   C1B 5687   9.012   1.176   8.759 -0.1499 -0.0922  0.0739
  463YOPC   C2B 5688   8.959   1.221   8.288  0.0711 -0.1494  0.2219
  463YOPC   D3B 5689   9.208   1.372   7.924 -0.3170  0.1878  0.0089
  463YOPC   C4B 5690   9.431   1.568   7.619 -0.2121 -0.2177 -0.1217
  464YOPC   NC3 5691  16.896   2.536  10.541 -0.4148  0.0316 -0.0190
  464YOPC   PO4 5692  16.655   2.185  10.312 -0.0355  0.0968 -0.1052
  464YOPC   GL1 5693  16.470   2.169   9.911  0.1184 -0.0911  0.0775
  464YOPC   GL2 5694  16.187   2.409   9.851 -0.0117  0.0518  0.0661
  464YOPC   C1A 5695  16.452   2.120   9.443 -0.1816 -0.1591  0.0287
  464YOPC   D2A 5696  16.623   2.408   9.228  0.0761 -0.0514 -0.0615
  464YOPC   C3A 5697  16.658   2.531   8.813 -0.3754  0.0989  0.0389
  464YOPC   C4A 5698  16.873   2.327   8.518  0.1081 -0.0505  0.0748
  464YOPC   C1B 5699  15.942   2.144   9.623 -0.1734  0.2910 -0.0054
  464YOPC   C2B 5700  15.592   2.155   9.476  0.1481  0.1148  0.3040
  464YOPC   D3B 5701  15.644   2.063   9.021 -0.2183  0.0594  0.0362
  464YOPC   C4B 5702  15.490   2.047   8.620 -0.1075 -0.0796 -0.1483
  465YOPC   NC3 5703  15.489   8.301  10.838  0.2728  0.1347  0.5168
  465YOPC   PO4 5704  15.656   8.757  10.788 -0.0274  0.1090  0.2893
  465YOPC   GL1 5705  15.611   8.646  10.428  0.4673  0.0306 -0.1849
  465YOPC   GL2 5706  15.841   8.393  10.425 -0.0227 -0.0161 -0.2805
  465YOPC   C1A 5707  15.357   8.476  10.055 -0.2645 -0.0188 -0.1241
  465YOPC   D2A 5708  14.974   8.624   9.877 -0.1650  0.0471 -0.2245
  465YOPC   C3A 5709  14.920   8.718   9.413  0.1980 -0.2540  0.0829
  465YOPC   C4A 5710  15.020   8.385   8.998  0.1317  0.0174 -0.0056
  465YOPC   C1B 5711  15.851   8.412   9.997  0.3207 -0.1617 -0.1240
  465YOPC   C2B 5712  15.802   8.186   9.581  0.2585  0.0144  0.0464
  465YOPC   D3B 5713  15.478   7.861   9.414 -0.0322  0.0134 -0.0377
  465YOPC   C4B 5714  15.333   7.461   9.453  0.1054  0.2531  0.1799
  466YOPC   NC3 5715  16.867   6.224  10.732  0.0863  0.1322  0.0920
  466YOPC   PO4 5716  16.890   5.901  10.433  0.0119 -0.2312 -0.0923
  466YOPC   GL1 5717  16.877   6.004  10.002 -0.0243  0.4818  0.1383
  466YOPC   GL2 5718  17.085   6.216   9.925  0.0658 -0.0374  0.0441
  466YOPC   C1A 5719  16.765   5.874   9.543 -0.1834  0.0303  0.0726
  466YOPC   D2A 5720  16.544   5.863   9.098  0.3504  0.2565  0.0852
  466YOPC   C3A 5721  16.851   5.931   8.842 -0.1200 -0.0373  0.0582
  466YOPC   C4A 5722  17.025   5.621   8.514  0.0380 -0.2254  0.2316
  466YOPC   C1B 5723  17.001   6.421   9.592 -0.2154 -0.0796 -0.2070
  466YOPC   C2B 5724  17.027   6.098   9.236  0.1300 -0.1196  0.0662
  466YOPC   D3B 5725  17.176   6.285   8.838 -0.0443 -0.1284  0.0251
  466YOPC   C4B 5726  17.399   6.602   8.554  0.1649  0.2105  0.2313
  467YOPC   NC3 5727  17.190   0.385  10.812  0.2438 -0.0182  0.2048
  467YOPC   PO4 5728  17.194   0.752  10.595 -0.0214  0.0865  0.0344
  467YOPC   GL1 5729  17.326   0.655  10.172  0.2581  0.2252  0.2328
  467YOPC   GL2 5730  17.363   1.008  10.069 -0.1161 -0.1472  0.3311
  467YOPC   C1A 5731  17.400   0.438   9.795 -0.1720  0.0250  0.1006
  467YOPC   D2A 5732  17.138   0.446   9.482  0.1223 -0.3112 -0.0869
  467YOPC   C3A 5733  17.221   0.394   9.072  0.1283  0.0303 -0.0355
  467YOPC   C4A 5734  17.288   0.276   8.710  0.1510  0.0901  0.1517
  467YOPC   C1B 5735  17.540   1.017   9.680  0.1437  0.1615 -0.0390
  467YOPC   C2B 5736  17.656   1.126   9.197  0.2474 -0.0991 -0.1662
  467YOPC   D3B 5737  17.491   1.129   8.784  0.0718  0.0961 -0.2002
  467YOPC   C4B 5738  17.408   0.780   8.559  0.1673  0.1979  0.2619
  468YOPC   NC3 5739   6.616  10.060  11.005  0.0726  0.1077  0.5136
  468YOPC   PO4 5740   6.224   9.965  10.689 -0.1191  0.0653 -0.0455
  468YOPC   GL1 5741   6.003   9.919  10.268 -0.0914  0.0548  0.1952
  468YOPC   GL2 5742   5.681   9.905  10.180  0.1132  0.2169 -0.2778
  468YOPC   C1A 5743   6.085   9.845   9.884 -0.1533 -0.1421  0.0697
  468YOPC   D2A 5744   6.135   9.686   9.546  0.1359  0.1395  0.0366
  468YOPC   C3A 5745   6.146   9.838   9.132 -0.1652  0.1754  0.0979
  468YOPC   C4A 5746   6.235   9.861   8.648 -0.1577  0.1115  0.0169
  468YOPC   C1B 5747   5.569   9.986   9.841 -0.0297  0.2947  0.1284
  468YOPC   C2B 5748   5.733   9.939   9.451  0.2769  0.2014  0.0793
  468YOPC   D3B 5749   5.612  10.061   9.034  0.0146 -0.0668 -0.0157
  468YOPC   C4B 5750   5.745  10.040   8.686 -0.0185 -0.0005  0.3462
  469YOPC   NC3 5751   3.149   6.808  11.036  0.1013 -0.3882  0.0522
  469YOPC   PO4 5752   3.178   7.155  10.822  0.0677 -0.2271  0.0964
  469YOPC   GL1 5753   3.181   7.140  10.414  0.0071  0.2863  0.1811
  469YOPC   GL2 5754   2.841   7.312  10.396 -0.1331  0.1615 -0.0411
  469YOPC   C1A 5755   3.480   6.932  10.051 -0.0682  0.2408  0.0943
  469YOPC   D2A 5756   3.963   6.937   9.939 -0.5386 -0.0757  0.1717
  469YOPC   C3A 5757   3.800   6.608   9.746 -0.2104  0.1278 -0.1190
  469YOPC   C4A 5758   3.922   6.380   9.414 -0.1145 -0.1591 -0.0126
  469YOPC   C1B 5759   2.979   7.258   9.997  0.1162  0.0224  0.3254
  469YOPC   C2B 5760   3.198   7.164   9.555 -0.2833 -0.2402 -0.2058
  469YOPC   D3B 5761   3.156   6.814   9.221  0.0653  0.1317 -0.1623
  469YOPC   C4B 5762   3.100   6.752   8.787 -0.2510  0.0533 -0.0522
  470ERGO   ROH 5763  15.362   6.197   6.807  0.0942  0.0546  0.0122
  470ERGO    R1 5764  15.491   6.181   7.058  0.0114  0.1096  0.0581
  470ERGO    R2 5765  15.353   6.148   7.295 -0.0698  0.1982  0.0197
  470ERGO    R3 5766  15.520   5.936   7.326 -0.1069  0.1819  0.1401
  470ERGO    R4 5767  15.529   6.075   7.583 -0.2824  0.1957  0.1521
  470ERGO    R5 5768  15.700   6.020   7.459 -0.1921  0.1776  0.2685
  470ERGO    C1 5769  15.789   5.833   7.780 -0.4407  0.1789  0.3424
  470ERGO    C2 5770  15.950   5.619   8.025  0.1065  0.2232 -0.2841
  471ERGO   ROH 5771   3.262  10.010   9.996  0.0423 -0.1166  0.0231
  471ERGO    R1 5772   3.424  10.066   9.771 -0.0344  0.2250  0.0452
  471ERGO    R2 5773   3.417   9.913   9.542  0.5584 -0.0200  0.1672
  471ERGO    R3 5774   3.372  10.152   9.421 -0.1919 -0.2486 -0.0546
  471ERGO    R4 5775   3.489   9.983   9.211  0.8837  0.0493  0.2493
  471ERGO    R5 5776   3.559  10.180   9.274 -0.0075  0.4004  0.2704
  471ERGO    C1 5777   3.487  10.249   8.905  0.3688 -0.1251  0.0890
  471ERGO    C2 5778   3.514  10.331   8.561  0.2001 -0.2365  0.0197
  472ERGO   ROH 5779  15.405   0.021   9.456  0.0618 -0.1811 -0.0336
  472ERGO    R1 5780  15.332   0.003   9.184  0.0427  0.0013 -0.0415
  472ERGO    R2 5781  15.458   0.148   8.985  0.1808 -0.0381  0.0207
  472ERGO    R3 5782  15.492  -0.097   8.873 -0.0544 -0.0256 -0.0846
  472ERGO    R4 5783  15.541   0.092   8.655  0.0230  0.0266 -0.0314
  472ERGO    R5 5784  15.401  -0.075   8.652 -0.1156  0.1359 -0.0477
  472ERGO    C1 5785  15.622  -0.171   8.356 -0.2899  0.0760 -0.1606
  472ERGO    C2 5786  15.811  -0.355   7.986  0.0342  0.0669 -0.0542
  473ERGO   ROH 5787   7.610   6.236   6.879  0.0032  0.1394  0.1507
  473ERGO    R1 5788   7.524   6.236   7.149 -0.0817 -0.0638  0.1251
  473ERGO    R2 5789   7.312   6.082   7.237 -0.1183 -0.1207 -0.0591
  473ERGO    R3 5790   7.494   5.990   7.416 -0.1805 -0.2695 -0.0707
  473ERGO    R4 5791   7.254   5.829   7.465 -0.4373  0.1678  0.1901
  473ERGO    R5 5792   7.366   5.944   7.613 -0.1699  0.1169  0.0364
  473ERGO    C1 5793   7.392   5.596   7.767 -0.6814  0.1962  0.3243
  473ERGO    C2 5794   7.423   5.429   8.035 -0.1309 -0.0751  0.2494
  474ERGO   ROH 5795   9.392   9.311   7.175  0.0296 -0.1882 -0.1128
  474ERGO    R1 5796   9.410   9.394   7.445  0.0879  0.1204 -0.2069
  474ERGO    R2 5797   9.501   9.228   7.646 -0.1903  0.2314  0.0214
  474ERGO    R3 5798   9.674   9.432   7.693  0.0916  0.0487 -0.2014
  474ERGO    R4 5799   9.676   9.274   7.940 -0.1852  0.3511  0.0000
  474ERGO    R5 5800   9.638   9.488   7.923  0.1220  0.3884 -0.2756
  474ERGO    C1 5801   9.940   9.493   8.156  0.0823  0.2492 -0.2217
  474ERGO    C2 5802  10.158   9.535   8.292 -0.1852  0.2358  0.4241
  475ERGO   ROH 5803  17.972  13.054  10.009 -0.3212 -0.0174 -0.1278
  475ERGO    R1 5804  18.096  13.057   9.755 -0.1155 -0.0155 -0.0310
  475ERGO    R2 5805  18.240  12.843   9.657 -0.0121 -0.0096  0.0896
  475ERGO    R3 5806  18.070  12.866   9.446  0.1488 -0.0317 -0.0430
  475ERGO    R4 5807  18.334  12.835   9.324  0.2424  0.0429  0.1592
  475ERGO    R5 5808  18.192  12.994   9.285  0.2391  0.0079  0.0623
  475ERGO    C1 5809  18.230  12.852   8.933  0.5417  0.0529  0.0752
  475ERGO    C2 5810  18.250  12.812   8.562  0.4620 -0.0703 -0.2844
  476ERGO   ROH 5811   2.964   0.108   9.661  0.3650 -0.2265  0.0676
  476ERGO    R1 5812   2.872   0.190   9.407 -0.0580 -0.2640  0.2016
  476ERGO    R2 5813   3.041   0.230   9.192 -0.3317  0.2711  0.0657
  476ERGO    R3 5814   2.873   0.055   9.069 -0.0497 -0.0417  0.1108
  476ERGO    R4 5815   2.982   0.217   8.852 -0.4251  0.1870  0.0849
  476ERGO    R5 5816   2.772   0.182   8.894 -0.3524 -0.2143  0.1544
  476ERGO    C1 5817   2.789   0.046   8.538 -0.2148 -0.1557  0.1385
  476ERGO    C2 5818   2.737  -0.050   8.176  0.0037  0.1745  0.3483
  477ERGO   ROH 5819  11.319  10.139   7.199 -0.1041  0.3645 -0.1569
  477ERGO    R1 5820  11.288  10.334   7.402 -0.2461  0.1783  0.0046
  477ERGO    R2 5821  11.099  10.311   7.603 -0.1534 -0.1831  0.0621
  477ERGO    R3 5822  11.315  10.344   7.765 -0.1260 -0.0734  0.0042
  477ERGO    R4 5823  11.083  10.396   7.937 -0.0951 -0.0771  0.0379
  477ERGO    R5 5824  11.254  10.528   7.907 -0.1379 -0.0443 -0.0427
  477ERGO    C1 5825  11.275  10.477   8.285 -0.0355  0.0876 -0.0306
  477ERGO    C2 5826  11.428  10.489   8.590  0.2708 -0.0266  0.0765
  478ERGO   ROH 5827  15.162  17.726   9.242 -0.2859 -0.0241 -0.0759
  478ERGO    R1 5828  15.359  17.702   9.041 -0.1927  0.0872  0.0014
  478ERGO    R2 5829  15.393  17.472   8.892 -0.0142  0.1125  0.0046
  478ERGO    R3 5830  15.364  17.642   8.682 -0.0171  0.1064 -0.0007
  478ERGO    R4 5831  15.432  17.385   8.559 -0.1566  0.0654 -0.0010
  478ERGO    R5 5832  15.534  17.575   8.527 -0.0922  0.0251 -0.0507
  478ERGO    C1 5833  15.428  17.494   8.169 -0.2423  0.0320 -0.0092
  478ERGO    C2 5834  15.542  17.304   7.864 -0.1381 -0.2722 -0.0117
  479ERGO   ROH 5835  13.478  17.801   6.265  0.0495 -0.0236  0.1800
  479ERGO    R1 5836  13.639  17.698   6.474  0.2053  0.0945  0.1205
  479ERGO    R2 5837  13.899  17.782   6.517  0.1046  0.4172  0.1289
  479ERGO    R3 5838  13.808  17.832   6.768  0.0614  0.1915  0.1609
  479ERGO    R4 5839  14.080  17.732   6.807  0.1678  0.4423  0.0937
  479ERGO    R5 5840  13.900  17.655   6.901  0.2449  0.2087  0.0618
  479ERGO    C1 5841  14.100  17.750   7.211  0.1641  0.2452  0.1033
  479ERGO    C2 5842  14.342  17.835   7.547  0.0585 -0.1337  0.0974
  480ERGO   ROH 5843   9.810  14.763   6.211  0.1233 -0.2353  0.0767
  480ERGO    R1 5844   9.806  14.771   6.494  0.1144 -0.1808  0.0757
  480ERGO    R2 5845  10.004  14.656   6.649  0.1697 -0.0556  0.1041
  480ERGO    R3 5846  10.019  14.904   6.757  0.0468 -0.0251  0.0517
  480ERGO    R4 5847  10.070  14.723   6.982  0.0668  0.0498  0.1032
  480ERGO    R5 5848   9.921  14.881   6.974  0.0074 -0.0121  0.0333
  480ERGO    C1 5849  10.122  14.996   7.277 -0.1086  0.1398  0.0536
  480ERGO    C2 5850  10.321  15.109   7.569 -0.0394 -0.2828  0.1357
  481ERGO   ROH 5851   6.338  12.283   6.965  0.0839  0.1448  0.0089
  481ERGO    R1 5852   6.339  12.396   7.225 -0.0685  0.0348  0.0577
  481ERGO    R2 5853   6.198  12.286   7.435  0.0886 -0.2559  0.0115
  481ERGO    R3 5854   6.440  12.291   7.559  0.0873  0.0307  0.0108
  481ERGO    R4 5855   6.245  12.262   7.777  0.1190 -0.3198  0.0038
  481ERGO    R5 5856   6.401  12.415   7.760 -0.0856 -0.0947  0.0590
  481ERGO    C1 5857   6.501  12.253   8.091  0.1355 -0.0877 -0.0013
  481ERGO    C2 5858   6.562  12.302   8.320  0.2426  0.0964  0.0163
  482ERGO   ROH 5859   5.991  10.694  10.317  0.0788  0.0033  0.0117
  482ERGO    R1 5860   6.138  10.550  10.122 -0.0167  0.0144 -0.0708
  482ERGO    R2 5861   6.028  10.344   9.974 -0.1062  0.0525 -0.0686
  482ERGO    R3 5862   6.115  10.492   9.764 -0.1668  0.0826 -0.0712
  482ERGO    R4 5863   6.034  10.236   9.646  0.0954 -0.0033 -0.0472
  482ERGO    R5 5864   6.227  10.334   9.622  0.0140  0.1560 -0.0051
  482ERGO    C1 5865   6.119  10.312   9.257  0.1560 -0.0075 -0.0371
  482ERGO    C2 5866   6.162  10.335   8.983 -0.2285  0.1496  0.0679
  483ERGO   ROH 5867   0.207   0.909   9.942  0.1747  0.0017 -0.1472
  483ERGO    R1 5868   0.330   1.038   9.721  0.0324  0.1550 -0.1367
  483ERGO    R2 5869   0.479   0.900   9.532  0.2323  0.3445 -0.1065
  483ERGO    R3 5870   0.307   1.019   9.358  0.1027  0.1147 -0.1424
  483ERGO    R4 5871   0.526   0.921   9.190  0.0536 -0.0218 -0.1601
  483ERGO    R5 5872   0.448   1.125   9.197  0.0024 -0.0212 -0.3361
  483ERGO    C1 5873   0.392   1.045   8.828 -0.1721 -0.4508 -0.2250
  483ERGO    C2 5874   0.513   1.043   8.616 -0.3218  0.0436  0.0302
  484ERGO   ROH 5875   5.713   9.560   6.865 -0.0612  0.4526  0.0614
  484ERGO    R1 5876   5.919   9.537   7.057 -0.1403  0.2465  0.1250
  484ERGO    R2 5877   6.099   9.741   7.107  0.1010  0.0386  0.1202
  484ERGO    R3 5878   6.015   9.709   7.364 -0.0115  0.2104  0.1061
  484ERGO    R4 5879   6.293   9.799   7.388  0.1703 -0.3114  0.1491
  484ERGO    R5 5880   6.206   9.621   7.479 -0.1894 -0.1502  0.1442
  484ERGO    C1 5881   6.326   9.803   7.792  0.1050 -0.3539  0.1526
  484ERGO    C2 5882   6.436   9.846   8.179 -0.2249  0.1158 -0.0879
  485ERGO   ROH 5883   7.919  11.536  10.382 -0.2967  0.1020  0.0607
  485ERGO    R1 5884   7.986  11.401  10.143 -0.2382  0.0720  0.0931
  485ERGO    R2 5885   7.802  11.354   9.941 -0.1857  0.0658  0.0420
  485ERGO    R3 5886   7.988  11.478   9.787 -0.1303  0.0376  0.0869
  485ERGO    R4 5887   7.824  11.327   9.598 -0.0441 -0.0085  0.0566
  485ERGO    R5 5888   8.041  11.318   9.617 -0.0545  0.0048  0.1440
  485ERGO    C1 5889   8.012  11.427   9.253  0.0903 -0.0786  0.1074
  485ERGO    C2 5890   8.053  11.378   8.936  0.0085 -0.0757  0.1519
  486ERGO   ROH 5891  14.271  10.699  10.062 -0.0639 -0.0069 -0.1117
  486ERGO    R1 5892  14.275  10.819   9.806 -0.0601  0.0435 -0.0891
  486ERGO    R2 5893  14.476  10.990   9.725 -0.0189  0.0055 -0.0799
  486ERGO    R3 5894  14.495  10.817   9.516 -0.0931  0.0381 -0.1131
  486ERGO    R4 5895  14.580  11.075   9.407 -0.1588  0.0555 -0.1121
  486ERGO    R5 5896  14.425  10.945   9.326 -0.1806  0.0574 -0.0653
  486ERGO    C1 5897  14.659  10.962   9.025 -0.3100  0.1152 -0.1619
  486ERGO    C2 5898  14.848  10.995   8.692  0.1331  0.3292  0.2598
  487ERGO   ROH 5899   8.912  12.555   6.772 -0.1340  0.0317 -0.1080
  487ERGO    R1 5900   9.011  12.765   6.935 -0.1102  0.0467 -0.1410
  487ERGO    R2 5901   8.898  12.828   7.179 -0.1627  0.1589 -0.1903
  487ERGO    R3 5902   9.153  12.796   7.269 -0.1997  0.0938 -0.1080
  487ERGO    R4 5903   9.011  12.927   7.491 -0.2060  0.2103 -0.1907
  487ERGO    R5 5904   9.196  12.994   7.396 -0.1585  0.1126 -0.1574
  487ERGO    C1 5905   9.316  12.954   7.756 -0.2660  0.1792 -0.1138
  487ERGO    C2 5906   9.233  13.100   8.007 -0.2396 -0.0069 -0.0541
  488ERGO   ROH 5907   4.654  12.499   7.386 -0.0485  0.0529 -0.0017
  488ERGO    R1 5908   4.587  12.568   7.652 -0.0399  0.0560  0.0000
  488ERGO    R2 5909   4.688  12.432   7.871 -0.0832  0.0171 -0.0025
  488ERGO    R3 5910   4.766  12.681   7.948 -0.0203 -0.0075  0.0122
  488ERGO    R4 5911   4.801  12.514   8.187  0.0627 -0.0572 -0.0349
  488ERGO    R5 5912   4.688  12.700   8.174  0.0793 -0.0413  0.0495
  488ERGO    C1 5913   4.941  12.796   8.444  0.2067 -0.1235 -0.0400
  488ERGO    C2 5914   5.066  12.747   8.763 -0.1047  0.1929  0.1445
  489ERGO   ROH 5915   5.453  13.224  10.062  0.0361 -0.0835 -0.0890
  489ERGO    R1 5916   5.594  13.153   9.826  0.0177 -0.1679 -0.0744
  489ERGO    R2 5917   5.495  12.971   9.643 -0.0968 -0.0701 -0.1090
  489ERGO    R3 5918   5.537  13.174   9.468  0.0913 -0.0830 -0.0817
  489ERGO    R4 5919   5.661  12.940   9.342 -0.0357 -0.1614 -0.0667
  489ERGO    R5 5920   5.756  13.133   9.380  0.0884 -0.2283 -0.0256
  489ERGO    C1 5921   5.797  13.113   9.001  0.1764 -0.2267 -0.0166
  489ERGO    C2 5922   5.973  13.187   8.653  0.0096  0.2064  0.0529
  490ERGO   ROH 5923  14.344   5.082   9.630 -0.3851 -0.3460  0.0574
  490ERGO    R1 5924  14.434   5.063   9.362 -0.2166 -0.2435  0.1058
  490ERGO    R2 5925  14.365   4.853   9.196 -0.2185 -0.1146 -0.0570
  490ERGO    R3 5926  14.281   5.053   9.032 -0.0028  0.0217 -0.0058
  490ERGO    R4 5927  14.287   4.814   8.862 -0.2550  0.0563 -0.0698
  490ERGO    R5 5928  14.386   5.005   8.822 -0.0487 -0.0351 -0.0167
  490ERGO    C1 5929  14.164   4.979   8.513 -0.0738  0.2836 -0.0292
  490ERGO    C2 5930  14.037   4.855   8.255 -0.1021 -0.1510 -0.1574
  491ERGO   ROH 5931   3.837  13.558   9.893  0.0035  0.2265 -0.0609
  491ERGO    R1 5932   3.759  13.511   9.625  0.0071  0.1377 -0.0463
  491ERGO    R2 5933   3.552  13.649   9.504  0.0457  0.1361 -0.1107
  491ERGO    R3 5934   3.741  13.704   9.317  0.0669  0.0190 -0.1253
  491ERGO    R4 5935   3.491  13.680   9.165  0.0727 -0.0221 -0.1313
  491ERGO    R5 5936   3.677  13.572   9.127  0.0620 -0.0668 -0.0660
  491ERGO    C1 5937   3.633  13.750   8.792  0.1084 -0.2241 -0.1571
  491ERGO    C2 5938   3.508  13.782   8.493 -0.0178 -0.1367 -0.0624
  492ERGO   ROH 5939   9.500   5.388   6.622 -0.0239  0.0121 -0.1190
  492ERGO    R1 5940   9.644   5.197   6.773 -0.1095 -0.1944 -0.2914
  492ERGO    R2 5941   9.695   5.229   7.043  0.3246 -0.2207 -0.3581
  492ERGO    R3 5942   9.579   4.984   7.060 -0.0541 -0.0367 -0.1628
  492ERGO    R4 5943   9.732   5.010   7.308 -0.0191 -0.0895 -0.1964
  492ERGO    R5 5944   9.744   4.846   7.166 -0.2720 -0.2180 -0.0638
  492ERGO    C1 5945   9.644   4.653   7.479 -0.5749  0.1597  0.0811
  492ERGO    C2 5946   9.618   4.524   7.791  0.3101  0.0128 -0.1228
  493ERGO   ROH 5947  13.726  10.686   9.890  0.0008 -0.0963  0.0007
  493ERGO    R1 5948  13.554  10.573   9.696 -0.0173 -0.1018  0.0200
  493ERGO    R2 5949  13.415  10.727   9.513 -0.0668 -0.1043  0.0562
  493ERGO    R3 5950  13.536  10.564   9.333 -0.0769 -0.0742  0.0221
  493ERGO    R4 5951  13.319  10.692   9.183 -0.1272 -0.0975  0.0728
  493ERGO    R5 5952  13.356  10.478   9.200 -0.0906 -0.0934  0.0522
  493ERGO    C1 5953  13.377  10.518   8.821 -0.1718 -0.0653  0.0504
  493ERGO    C2 5954  13.165  10.445   8.568 -0.0509  0.2861 -0.1855
  494ERGO   ROH 5955   8.604  17.023   6.019 -0.1624 -0.1876 -0.0313
  494ERGO    R1 5956   8.462  16.974   6.258 -0.1767 -0.0721 -0.0145
  494ERGO    R2 5957   8.585  16.962   6.505 -0.1634 -0.1272 -0.0204
  494ERGO    R3 5958   8.399  17.150   6.571 -0.0371  0.0009 -0.0279
  494ERGO    R4 5959   8.446  17.002   6.819 -0.0699  0.0452 -0.0005
  494ERGO    R5 5960   8.253  17.038   6.724 -0.0685  0.1329  0.0361
  494ERGO    C1 5961   8.191  17.202   7.063  0.1030  0.2660  0.0041
  494ERGO    C2 5962   8.307  17.158   7.443  0.1708  0.3620 -0.3646
  495ERGO   ROH 5963   1.520   0.118   9.678  0.0388  0.1369  0.0680
  495ERGO    R1 5964   1.580   0.250   9.435  0.0059  0.1146  0.0491
  495ERGO    R2 5965   1.817   0.385   9.394  0.0148  0.0696 -0.0092
  495ERGO    R3 5966   1.833   0.225   9.175 -0.0583  0.0616 -0.0108
  495ERGO    R4 5967   2.054   0.417   9.145  0.0425 -0.0387  0.0012
  495ERGO    R5 5968   1.897   0.374   8.998  0.0208  0.0387 -0.0074
  495ERGO    C1 5969   2.207   0.286   8.793 -0.0099 -0.1093  0.0055
  495ERGO    C2 5970   2.352   0.279   8.566  0.1601  0.0697 -0.1750
  496ERGO   ROH 5971   2.654  13.406   9.954  0.1419  0.4014 -0.1976
  496ERGO    R1 5972   2.589  13.227   9.744  0.1049  0.2351 -0.0474
  496ERGO    R2 5973   2.429  13.300   9.531  0.0086  0.0448 -0.0411
  496ERGO    R3 5974   2.641  13.213   9.384 -0.0260 -0.0102 -0.0590
  496ERGO    R4 5975   2.412  13.190   9.203 -0.0513  0.0390 -0.0362
  496ERGO    R5 5976   2.554  13.033   9.254 -0.0831  0.0060 -0.0449
  496ERGO    C1 5977   2.601  13.045   8.876 -0.1186 -0.0160 -0.0501
  496ERGO    C2 5978   2.610  12.834   8.670  0.0471  0.0399  0.0141
  497ERGO   ROH 5979   8.561   6.976   6.973  0.1648  0.0741 -0.0242
  497ERGO    R1 5980   8.614   7.042   7.243  0.1875  0.0116 -0.0132
  497ERGO    R2 5981   8.445   6.971   7.450  0.1174  0.1138 -0.0355
  497ERGO    R3 5982   8.670   6.860   7.554  0.0292 -0.0576 -0.0239
  497ERGO    R4 5983   8.462   6.807   7.754 -0.0377  0.0456 -0.0628
  497ERGO    R5 5984   8.655   6.903   7.789  0.0239 -0.0897 -0.0177
  497ERGO    C1 5985   8.683   6.608   8.028 -0.2110 -0.1550 -0.0679
  497ERGO    C2 5986   8.543   6.588   8.444  0.1252  0.0053  0.0703
  498ERGO   ROH 5987  17.226  16.036   9.851  0.1599 -0.1010  0.0473
  498ERGO    R1 5988  17.320  15.973   9.592  0.1278 -0.0638  0.0261
  498ERGO    R2 5989  17.152  15.947   9.374  0.0986 -0.0516  0.0469
  498ERGO    R3 5990  17.319  16.131   9.264  0.0685 -0.0259  0.0443
  498ERGO    R4 5991  17.105  16.098   9.067  0.1808 -0.2195 -0.0496
  498ERGO    R5 5992  17.319  16.079   9.030  0.2094 -0.1382  0.0672
  498ERGO    C1 5993  17.234  16.358   8.785  0.2006 -0.2934 -0.1081
  498ERGO    C2 5994  17.045  16.440   8.442  0.4112 -0.2485  0.2903
  499ERGO   ROH 5995   8.940  16.674   8.996 -0.1248 -0.2987 -0.0998
  499ERGO    R1 5996   8.977  16.776   8.734 -0.0513 -0.3037 -0.0914
  499ERGO    R2 5997   9.070  16.619   8.526 -0.0967 -0.3353 -0.0871
  499ERGO    R3 5998   8.844  16.706   8.403 -0.0447 -0.2306 -0.1095
  499ERGO    R4 5999   9.062  16.802   8.232  0.0165 -0.3774 -0.1171
  499ERGO    R5 6000   8.902  16.922   8.317  0.0781 -0.2750 -0.1421
  499ERGO    C1 6001   8.846  16.990   7.946  0.1310 -0.3039 -0.1557
  499ERGO    C2 6002   8.808  16.969   7.651  0.0204  0.0030  0.1422
  500ERGO   ROH 6003  13.951   1.594   6.318  0.1255 -0.0209 -0.0273
  500ERGO    R1 6004  13.818   1.618   6.567  0.0716 -0.1088 -0.0467
  500ERGO    R2 6005  13.671   1.412   6.678  0.1818 -0.2058 -0.0726
  500ERGO    R3 6006  13.833   1.454   6.892  0.1258 -0.1072 -0.0493
  500ERGO    R4 6007  13.584   1.350   7.007  0.1457 -0.1687 -0.0751
  500ERGO    R5 6008  13.686   1.534   7.063  0.0693 -0.1247 -0.0925
  500ERGO    C1 6009  13.686   1.353   7.399  0.0722 -0.0546 -0.0547
  500ERGO    C2 6010  13.587   1.329   7.782  0.2299  0.0882 -0.1357
  501ERGO   ROH 6011   6.788  12.907  10.121  0.1534 -0.0843 -0.0672
  501ERGO    R1 6012   6.634  12.799   9.910  0.1605 -0.0573 -0.0854
  501ERGO    R2 6013   6.611  12.923   9.663  0.3249 -0.1234 -0.1329
  501ERGO    R3 6014   6.696  12.681   9.571  0.2067 -0.2076 -0.0256
  501ERGO    R4 6015   6.571  12.808   9.339  0.3821 -0.1966 -0.1151
  501ERGO    R5 6016   6.525  12.611   9.419  0.2222 -0.1437 -0.0733
  501ERGO    C1 6017   6.627  12.514   9.065  0.3045 -0.3184 -0.0041
  501ERGO    C2 6018   6.628  12.511   8.753 -0.1250  0.2085 -0.1054
  502ERGO   ROH 6019   5.239  14.690   9.712 -0.0723 -0.1040 -0.1313
  502ERGO    R1 6020   5.338  14.820   9.481  0.0010 -0.0177 -0.0533
  502ERGO    R2 6021   5.381  14.687   9.242  0.1082  0.0626 -0.0832
  502ERGO    R3 6022   5.220  14.882   9.142  0.1214  0.0750 -0.0782
  502ERGO    R4 6023   5.412  14.828   8.928  0.2226  0.1953 -0.0133
  502ERGO    R5 6024   5.367  15.022   9.015  0.1518  0.1506  0.0431
  502ERGO    C1 6025   5.278  15.092   8.651  0.3017  0.2841  0.0321
  502ERGO    C2 6026   5.194  15.022   8.369 -0.3062 -0.2566 -0.0006
  503ERGO   ROH 6027   8.826  11.790  10.140  0.0032 -0.0315 -0.0261
  503ERGO    R1 6028   8.882  11.765   9.863 -0.1152 -0.0379 -0.0503
  503ERGO    R2 6029   9.092  11.614   9.766  0.0252  0.1935 -0.1206
  503ERGO    R3 6030   8.897  11.496   9.619  0.0871 -0.0908  0.0193
  503ERGO    R4 6031   9.146  11.391   9.507  0.1588  0.2457 -0.1383
  503ERGO    R5 6032   8.985  11.488   9.397 -0.0507  0.0154 -0.0391
  503ERGO    C1 6033   8.993  11.151   9.218  0.2947  0.0091 -0.0174
  503ERGO    C2 6034   8.930  11.013   8.948 -0.0979 -0.1218  0.0897
  504ERGO   ROH 6035   1.630  16.591   6.729  0.0503  0.2043  0.0325
  504ERGO    R1 6036   1.579  16.442   6.965  0.0111  0.1775  0.0096
  504ERGO    R2 6037   1.452  16.197   6.962 -0.0509  0.1984 -0.0311
  504ERGO    R3 6038   1.673  16.117   7.097 -0.0647  0.1350 -0.0487
  504ERGO    R4 6039   1.468  15.924   7.172 -0.0825  0.1771 -0.0587
  504ERGO    R5 6040   1.591  16.041   7.308 -0.0578  0.1291 -0.0578
  504ERGO    C1 6041   1.685  15.689   7.422 -0.1139  0.1051 -0.0914
  504ERGO    C2 6042   1.628  15.251   7.609 -0.0895  0.1245  0.3323
  505ERGO   ROH 6043   5.531   3.251  10.058  0.4186  0.1012  0.0298
  505ERGO    R1 6044   5.601   3.464   9.886  0.3675  0.0995  0.0076
  505ERGO    R2 6045   5.832   3.463   9.734  0.2361  0.0205 -0.1895
  505ERGO    R3 6046   5.659   3.507   9.529  0.0824  0.1381 -0.0376
  505ERGO    R4 6047   5.917   3.605   9.430  0.0542  0.0472 -0.2293
  505ERGO    R5 6048   5.729   3.716   9.435  0.1004  0.1307 -0.0497
  505ERGO    C1 6049   5.804   3.729   9.061 -0.1961  0.1732 -0.1100
  505ERGO    C2 6050   6.003   3.860   8.768 -0.2792  0.0056 -0.2829
  506ERGO   ROH 6051  17.297   7.510  10.003 -0.1308  0.0633  0.1340
  506ERGO    R1 6052  17.380   7.597   9.747 -0.2062 -0.1060  0.0509
  506ERGO    R2 6053  17.211   7.600   9.529 -0.3581  0.0354  0.1723
  506ERGO    R3 6054  17.287   7.861   9.514 -0.0549 -0.0553  0.0449
  506ERGO    R4 6055  17.236   7.782   9.236 -0.4387 -0.0623  0.1040
  506ERGO    R5 6056  17.418   7.873   9.314 -0.2400 -0.2626 -0.0980
  506ERGO    C1 6057  17.322   8.132   9.051 -0.2009 -0.2043 -0.0556
  506ERGO    C2 6058  17.255   8.263   8.687  0.2864 -0.3375 -0.1448
  507ERGO   ROH 6059   3.230   4.214  10.130  0.0808 -0.1888  0.0609
  507ERGO    R1 6060   3.254   4.258   9.852  0.0752 -0.2281  0.0544
  507ERGO    R2 6061   3.258   4.051   9.669  0.0121 -0.2507  0.0793
  507ERGO    R3 6062   3.054   4.191   9.555  0.0405 -0.2128  0.0741
  507ERGO    R4 6063   3.234   4.128   9.333  0.0801 -0.1684  0.0928
  507ERGO    R5 6064   3.160   4.326   9.388  0.0797 -0.1776  0.1264
  507ERGO    C1 6065   3.029   4.304   9.031  0.1464 -0.0849  0.0958
  507ERGO    C2 6066   2.939   4.301   8.684 -0.0529  0.1119 -0.2447
  508ERGO   ROH 6067  10.553   8.408  10.214 -0.0729  0.0811 -0.0001
  508ERGO    R1 6068  10.603   8.440   9.938 -0.0231  0.2214  0.0244
  508ERGO    R2 6069  10.453   8.312   9.744  0.2199  0.0584 -0.0581
  508ERGO    R3 6070  10.420   8.565   9.649 -0.1029  0.0397 -0.0058
  508ERGO    R4 6071  10.374   8.392   9.417  0.4129  0.0247 -0.1141
  508ERGO    R5 6072  10.514   8.559   9.429  0.1328  0.2590  0.0820
  508ERGO    C1 6073  10.297   8.676   9.138  0.2222 -0.0124 -0.0977
  508ERGO    C2 6074  10.203   8.785   8.844  0.0298 -0.2160  0.2296
  509ERGO   ROH 6075   2.029   3.736   9.806  0.0866  0.0027  0.0356
  509ERGO    R1 6076   1.979   3.802   9.535 -0.0670 -0.2317  0.0023
  509ERGO    R2 6077   2.103   4.014   9.409 -0.4023 -0.1111 -0.1512
  509ERGO    R3 6078   2.173   3.823   9.228 -0.1509 -0.1258 -0.0416
  509ERGO    R4 6079   2.162   4.072   9.073 -0.2824 -0.2088 -0.1470
  509ERGO    R5 6080   2.057   3.886   9.028 -0.1000 -0.3108 -0.1251
  509ERGO    C1 6081   2.261   3.927   8.708  0.0234 -0.2794 -0.0416
  509ERGO    C2 6082   2.421   4.154   8.595  0.0158 -0.2635  0.1616
  510ERGO   ROH 6083  17.950   5.394   6.613  0.2713 -0.1715 -0.0092
  510ERGO    R1 6084  17.720   5.290   6.740  0.0978  0.0511 -0.1373
  510ERGO    R2 6085  17.734   5.126   6.963 -0.1747 -0.1118 -0.2437
  510ERGO    R3 6086  17.567   5.313   7.070  0.0392  0.0387 -0.1611
  510ERGO    R4 6087  17.607   5.118   7.285 -0.0857 -0.0562 -0.2056
  510ERGO    R5 6088  17.416   5.187   7.206 -0.0488  0.1523 -0.1417
  510ERGO    C1 6089  17.377   5.288   7.572  0.1672  0.1175 -0.1059
  510ERGO    C2 6090  17.337   5.055   7.923  0.3230  0.1628 -0.1387
  511ERGO   ROH 6091   9.971   3.042   9.634  0.0109  0.2590  0.1119
  511ERGO    R1 6092  10.028   2.992   9.362  0.1533  0.3178  0.1288
  511ERGO    R2 6093   9.834   3.003   9.165  0.1261 -0.1929  0.1053
  511ERGO    R3 6094  10.007   3.177   9.049 -0.2662  0.2005  0.0826
  511ERGO    R4 6095   9.894   3.027   8.825  0.1542 -0.1578  0.1132
  511ERGO    R5 6096  10.105   3.054   8.869  0.0845  0.3774  0.1508
  511ERGO    C1 6097  10.092   3.205   8.519 -0.1977  0.2320  0.0965
  511ERGO    C2 6098  10.031   3.357   8.148 -0.1360 -0.2330 -0.1994
  512ERGO   ROH 6099  17.624   7.133   9.969 -0.1303 -0.1342 -0.0070
  512ERGO    R1 6100  17.742   7.121   9.712 -0.2021 -0.1262 -0.0391
  512ERGO    R2 6101  17.921   6.924   9.639 -0.0741 -0.0093 -0.0277
  512ERGO    R3 6102  17.746   6.886   9.434 -0.1074 -0.2127  0.0334
  512ERGO    R4 6103  18.010   6.831   9.318 -0.0791  0.0596 -0.0505
  512ERGO    R5 6104  17.862   6.971   9.241 -0.2588 -0.1014 -0.0138
  512ERGO    C1 6105  17.899   6.741   8.939 -0.1130 -0.0913 -0.0065
  512ERGO    C2 6106  18.171   6.672   8.857 -0.1322 -0.3639 -0.1135
  513ERGO   ROH 6107  10.756   1.193   9.307  0.0686  0.2734 -0.1097
  513ERGO    R1 6108  10.822   1.300   9.054  0.2324  0.1941 -0.1025
  513ERGO    R2 6109  11.059   1.241   8.925  0.2069 -0.0505 -0.0497
  513ERGO    R3 6110  10.893   1.170   8.722  0.1759  0.1017 -0.0773
  513ERGO    R4 6111  11.139   1.261   8.589  0.2410 -0.0381 -0.0401
  513ERGO    R5 6112  10.936   1.333   8.551  0.2950  0.1038 -0.0416
  513ERGO    C1 6113  11.030   1.206   8.203  0.2320  0.1120 -0.0606
  513ERGO    C2 6114  11.315   1.240   8.033  0.0629  0.1961  0.3717
  514ERGO   ROH 6115  16.456   6.298   9.805  0.0107 -0.1714 -0.0310
  514ERGO    R1 6116  16.459   6.274   9.523 -0.2197 -0.0655 -0.0457
  514ERGO    R2 6117  16.406   6.487   9.355  0.0872  0.1183  0.0752
  514ERGO    R3 6118  16.646   6.420   9.247 -0.1028 -0.3175 -0.1013
  514ERGO    R4 6119  16.491   6.528   9.022  0.0088  0.2086  0.0665
  514ERGO    R5 6120  16.592   6.335   9.030 -0.4008 -0.0243 -0.1478
  514ERGO    C1 6121  16.767   6.489   8.728 -0.2150 -0.1478 -0.1044
  514ERGO    C2 6122  16.903   6.603   8.484 -0.1899 -0.0123 -0.0651
  515ERGO   ROH 6123  17.177  11.710   9.798  0.0189  0.1266  0.0704
  515ERGO    R1 6124  17.264  11.752   9.532  0.0367  0.1176  0.0742
  515ERGO    R2 6125  17.497  11.642   9.432  0.0663  0.1480  0.1047
  515ERGO    R3 6126  17.331  11.547   9.239  0.0995  0.1021  0.0994
  515ERGO    R4 6127  17.598  11.541   9.117  0.1288  0.0205  0.1657
  515ERGO    R5 6128  17.419  11.636   9.035  0.1619  0.0162  0.0885
  515ERGO    C1 6129  17.501  11.393   8.753  0.1966 -0.0967  0.1962
  515ERGO    C2 6130  17.437  11.216   8.527 -0.0221  0.0529 -0.0822
  516ERGO   ROH 6131  11.419   0.046   5.974 -0.0028 -0.1190 -0.1486
  516ERGO    R1 6132  11.427  -0.016   6.250  0.0058 -0.0810 -0.1409
  516ERGO    R2 6133  11.662  -0.012   6.396  0.0055 -0.0528 -0.1494
  516ERGO    R3 6134  11.520   0.156   6.557  0.0062 -0.0379 -0.1633
  516ERGO    R4 6135  11.747   0.068   6.721  0.1030  0.0928 -0.2096
  516ERGO    R5 6136  11.536   0.057   6.775  0.1197  0.0424 -0.1294
  516ERGO    C1 6137  11.664   0.273   7.062  0.1604  0.1915 -0.2577
  516ERGO    C2 6138  11.738   0.237   7.346 -0.0713  0.0265 -0.0974
  517ERGO   ROH 6139  14.739  14.998   6.286 -0.0335  0.2658  0.0828
  517ERGO    R1 6140  14.678  14.765   6.435 -0.1421  0.3362  0.1497
  517ERGO    R2 6141  14.826  14.532   6.415 -0.4235  0.1669 -0.0014
  517ERGO    R3 6142  14.846  14.560   6.684 -0.1118  0.1515 -0.0196
  517ERGO    R4 6143  14.887  14.274   6.636 -0.3937  0.1134 -0.0717
  517ERGO    R5 6144  14.742  14.363   6.772 -0.1795  0.2320  0.0874
  517ERGO    C1 6145  14.941  14.149   7.018 -0.0838  0.0678 -0.1298
  517ERGO    C2 6146  14.979  13.997   7.397 -0.0743 -0.0187  0.0105
  518ERGO   ROH 6147  16.439   8.376  10.218 -0.1865  0.0310 -0.0562
  518ERGO    R1 6148  16.407   8.218   9.985 -0.1184  0.0575 -0.0845
  518ERGO    R2 6149  16.244   8.293   9.776 -0.0020  0.1175 -0.1585
  518ERGO    R3 6150  16.470   8.258   9.629  0.0595  0.0715 -0.0526
  518ERGO    R4 6151  16.251   8.240   9.434  0.1202 -0.3287 -0.0920
  518ERGO    R5 6152  16.409   8.093   9.465  0.2099 -0.1865  0.1445
  518ERGO    C1 6153  16.468   8.176   9.098  0.2490 -0.6318  0.0463
  518ERGO    C2 6154  16.462   8.291   8.716 -0.3534 -0.3596 -0.0719
  519ERGO   ROH 6155   6.723   0.618   9.184  0.1422 -0.0275 -0.0536
  519ERGO    R1 6156   6.671   0.753   8.941  0.1840 -0.1671 -0.1390
  519ERGO    R2 6157   6.757   0.656   8.696 -0.0660 -0.4820 -0.1010
  519ERGO    R3 6158   6.495   0.681   8.631 -0.0732 -0.2046  0.0113
  519ERGO    R4 6159   6.637   0.702   8.376 -0.1547 -0.5678 -0.0816
  519ERGO    R5 6160   6.492   0.843   8.455  0.0524 -0.3221 -0.1093
  519ERGO    C1 6161   6.320   0.751   8.128 -0.2132 -0.3572  0.0349
  519ERGO    C2 6162   6.275   0.549   7.777 -0.0632 -0.2484 -0.1335
  520ERGO   ROH 6163  18.111   5.375   9.770 -0.0107  0.0938  0.0018
  520ERGO    R1 6164  18.256   5.476   9.549  0.0758 -0.1984 -0.0781
  520ERGO    R2 6165  18.314   5.324   9.327 -0.3563 -0.3232 -0.1054
  520ERGO    R3 6166  18.194   5.528   9.194 -0.0166 -0.0756 -0.0467
  520ERGO    R4 6167  18.349   5.386   8.989 -0.4292 -0.4366 -0.1359
  520ERGO    R5 6168  18.359   5.599   9.035  0.0482 -0.4363 -0.1568
  520ERGO    C1 6169  18.258   5.614   8.667 -0.1527 -0.2701 -0.0987
  520ERGO    C2 6170  18.399   5.548   8.401  0.1125 -0.1731  0.0272
  521ERGO   ROH 6171  12.154   3.303   9.660 -0.0745  0.0486  0.0213
  521ERGO    R1 6172  12.030   3.315   9.406  0.0054  0.1383 -0.0139
  521ERGO    R2 6173  12.173   3.340   9.171  0.0869  0.0900  0.0310
  521ERGO    R3 6174  12.034   3.118   9.100 -0.0058  0.1680 -0.0334
  521ERGO    R4 6175  12.102   3.249   8.846  0.1718  0.1407 -0.0024
  521ERGO    R5 6176  11.903   3.189   8.912  0.1099  0.2470 -0.0864
  521ERGO    C1 6177  11.929   2.987   8.590  0.1342  0.2434 -0.0824
  521ERGO    C2 6178  11.915   2.954   8.245  0.0561 -0.0748 -0.1514
  522ERGO   ROH 6179  10.174  17.417   8.759 -0.0547  0.0597  0.0437
  522ERGO    R1 6180  10.232  17.527   8.505  0.0494  0.1074  0.0874
  522ERGO    R2 6181  10.487  17.607   8.432  0.1518 -0.2099  0.0795
  522ERGO    R3 6182  10.443  17.440   8.221 -0.1238 -0.0484  0.0041
  522ERGO    R4 6183  10.628  17.643   8.118  0.0481 -0.1853  0.0356
  522ERGO    R5 6184  10.437  17.585   8.031 -0.0569  0.0672  0.0887
  522ERGO    C1 6185  10.669  17.508   7.739 -0.2712 -0.0191 -0.0604
  522ERGO    C2 6186  10.891  17.364   7.621  0.2881  0.0219  0.0900
  523ERGO   ROH 6187  13.346  18.107   9.400 -0.0307 -0.1733  0.0046
  523ERGO    R1 6188  13.408  18.225   9.150  0.2724 -0.2740  0.0284
  523ERGO    R2 6189  13.544  18.089   8.951 -0.1991 -0.6494 -0.0584
  523ERGO    R3 6190  13.329  18.161   8.801 -0.0408  0.0837  0.0274
  523ERGO    R4 6191  13.528  18.068   8.606 -0.3992 -0.5550 -0.0556
  523ERGO    R5 6192  13.424  18.259   8.604  0.2197 -0.1946  0.0079
  523ERGO    C1 6193  13.316  18.123   8.265 -0.3670  0.1879  0.0265
  523ERGO    C2 6194  13.232  18.351   7.996 -0.1040 -0.2823  0.1487
  524ERGO   ROH 6195  13.443  16.723   9.166 -0.1492  0.0850 -0.1146
  524ERGO    R1 6196  13.373  16.596   8.923 -0.0751  0.0802 -0.1336
  524ERGO    R2 6197  13.282  16.736   8.703  0.0127  0.0780 -0.1708
  524ERGO    R3 6198  13.486  16.606   8.577  0.0456  0.0561 -0.0955
  524ERGO    R4 6199  13.270  16.612   8.380  0.1036  0.0429 -0.1614
  524ERGO    R5 6200  13.378  16.436   8.448  0.0768  0.0457 -0.1089
  524ERGO    C1 6201  13.453  16.419   8.075  0.1873  0.0018 -0.0852
  524ERGO    C2 6202  13.436  16.284   7.656 -0.1027 -0.0028 -0.1196
  525ERGO   ROH 6203   8.269  18.090   8.969 -0.0441 -0.0653  0.1273
  525ERGO    R1 6204   8.268  18.017   8.696  0.1802 -0.0185  0.1127
  525ERGO    R2 6205   8.067  18.093   8.522  0.1226 -0.3070  0.0535
  525ERGO    R3 6206   8.275  18.189   8.375  0.0294  0.0544  0.1464
  525ERGO    R4 6207   8.036  18.243   8.212  0.0059 -0.5569 -0.0598
  525ERGO    R5 6208   8.216  18.137   8.148  0.2931 -0.2168  0.1310
  525ERGO    C1 6209   8.213  18.421   7.894 -0.1497 -0.3630 -0.0385
  525ERGO    C2 6210   8.185  18.507   7.516  0.0984  0.0248  0.0664
  526ERGO   ROH 6211   4.645  16.142   9.319  0.1889 -0.3095 -0.0972
  526ERGO    R1 6212   4.540  16.197   9.062  0.1670 -0.1990 -0.0648
  526ERGO    R2 6213   4.657  16.379   8.890  0.1843 -0.1666 -0.0172
  526ERGO    R3 6214   4.655  16.168   8.718  0.1146 -0.1081 -0.0904
  526ERGO    R4 6215   4.697  16.404   8.547  0.1372 -0.0593 -0.0159
  526ERGO    R5 6216   4.542  16.252   8.523  0.1020 -0.0187 -0.0453
  526ERGO    C1 6217   4.719  16.221   8.187  0.0444  0.0583 -0.0838
  526ERGO    C2 6218   4.947  16.356   7.869 -0.0285  0.0953  0.0287
  527ERGO   ROH 6219   0.861  17.876   9.879  0.0513  0.2054 -0.1308
  527ERGO    R1 6220   0.648  17.931   9.701  0.2110  0.3157 -0.2904
  527ERGO    R2 6221   0.688  17.986   9.433  0.4111 -0.2252 -0.3801
  527ERGO    R3 6222   0.511  17.783   9.398  0.0181  0.0462 -0.0779
  527ERGO    R4 6223   0.525  17.915   9.137  0.4304 -0.4580 -0.3375
  527ERGO    R5 6224   0.345  17.873   9.251  0.2718  0.1165 -0.3376
  527ERGO    C1 6225   0.265  17.682   8.931  0.0727 -0.3385 -0.0290
  527ERGO    C2 6226   0.296  17.435   8.749  0.0323  0.1112  0.1752
  528ERGO   ROH 6227  13.343   7.541  10.510  0.3003  0.0556 -0.0109
  528ERGO    R1 6228  13.300   7.510  10.232  0.2397 -0.1529  0.0190
  528ERGO    R2 6229  13.149   7.688  10.084  0.1271 -0.3118 -0.0686
  528ERGO    R3 6230  13.373   7.700   9.930  0.0852 -0.3273 -0.1294
  528ERGO    R4 6231  13.162   7.617   9.746  0.0176 -0.2046 -0.0950
  528ERGO    R5 6232  13.352   7.517   9.778 -0.0061 -0.2676 -0.1833
  528ERGO    C1 6233  13.380   7.588   9.405 -0.0852 -0.1567 -0.1674
  528ERGO    C2 6234  13.592   7.592   9.086 -0.1215 -0.2084  0.2621
  529ERGO   ROH 6235   7.436   5.251   9.938  0.0235  0.2063  0.0035
  529ERGO    R1 6236   7.417   5.331   9.667  0.1419  0.0819 -0.0412
  529ERGO    R2 6237   7.410   5.149   9.459 -0.0821 -0.0246  0.0646
  529ERGO    R3 6238   7.182   5.282   9.394  0.0915  0.2376 -0.0286
  529ERGO    R4 6239   7.242   5.118   9.158 -0.3257 -0.3271  0.2248
  529ERGO    R5 6240   7.208   5.333   9.161  0.0360 -0.2454 -0.1551
  529ERGO    C1 6241   6.931   5.224   8.922 -0.3046 -0.2572  0.2307
  529ERGO    C2 6242   6.762   5.257   8.586  0.1223 -0.1561 -0.0781
  530ERGO   ROH 6243  16.919   5.081   9.865  0.0564 -0.1027  0.1733
  530ERGO    R1 6244  16.913   4.939   9.620  0.1798 -0.0732  0.1541
  530ERGO    R2 6245  16.770   5.027   9.400  0.0442 -0.2025  0.1962
  530ERGO    R3 6246  17.010   5.003   9.275  0.0532  0.0885  0.1457
  530ERGO    R4 6247  16.813   4.994   9.059 -0.0085 -0.3505  0.2018
  530ERGO    R5 6248  16.970   4.848   9.098  0.2347 -0.0928  0.2534
  530ERGO    C1 6249  17.064   4.951   8.743 -0.0305 -0.1635  0.1577
  530ERGO    C2 6250  17.259   4.866   8.527  0.1846  0.0910 -0.1350
  531ERGO   ROH 6251  15.466  13.697   9.748  0.2016 -0.3627 -0.1852
  531ERGO    R1 6252  15.389  13.630   9.485  0.0340 -0.1451 -0.1946
  531ERGO    R2 6253  15.197  13.771   9.345  0.1500  0.1455 -0.0597
  531ERGO    R3 6254  15.394  13.791   9.158  0.1086  0.0097 -0.1200
  531ERGO    R4 6255  15.145  13.786   9.003  0.0537 -0.0183 -0.0536
  531ERGO    R5 6256  15.318  13.655   8.976  0.0253 -0.0726 -0.0317
  531ERGO    C1 6257  15.300  13.813   8.630 -0.0412 -0.2412 -0.1066
  531ERGO    C2 6258  15.148  13.878   8.390  0.4515 -0.1196  0.2443
  532ERGO   ROH 6259  16.523  12.190   6.812 -0.0510  0.2432  0.0512
  532ERGO    R1 6260  16.405  12.231   7.066 -0.1175 -0.0267  0.0683
  532ERGO    R2 6261  16.371  12.027   7.249  0.2352 -0.1436  0.0187
  532ERGO    R3 6262  16.506  12.197   7.413 -0.0416  0.0498  0.0524
  532ERGO    R4 6263  16.342  12.034   7.594  0.1204 -0.1487  0.0090
  532ERGO    R5 6264  16.349  12.252   7.585 -0.1657 -0.1431 -0.0026
  532ERGO    C1 6265  16.452  12.197   7.948 -0.2066  0.0298  0.0350
  532ERGO    C2 6266  16.641  12.165   8.137 -0.0449 -0.0151  0.1459
  533ERGO   ROH 6267   7.306  11.893   6.780  0.3281  0.0363 -0.1200
  533ERGO    R1 6268   7.252  11.854   7.055  0.3311 -0.1521 -0.1444
  533ERGO    R2 6269   7.451  11.799   7.239  0.3710 -0.0093 -0.1389
  533ERGO    R3 6270   7.345  12.014   7.368  0.1025 -0.1844 -0.0591
  533ERGO    R4 6271   7.505  11.878   7.571  0.3454 -0.0050 -0.1360
  533ERGO    R5 6272   7.296  11.934   7.587  0.2713 -0.3025 -0.0659
  533ERGO    C1 6273   7.438  12.125   7.886  0.0782 -0.1669 -0.0593
  533ERGO    C2 6274   7.517  12.141   8.308 -0.0482 -0.3822  0.0952
  534ERGO   ROH 6275   3.266   1.049   6.614  0.1892  0.0033  0.0138
  534ERGO    R1 6276   3.353   0.911   6.846  0.1982  0.1123  0.0753
  534ERGO    R2 6277   3.423   1.042   7.079 -0.2076  0.1991  0.1539
  534ERGO    R3 6278   3.240   0.874   7.189 -0.0517 -0.0973 -0.0261
  534ERGO    R4 6279   3.433   0.924   7.404 -0.2772  0.1262  0.1305
  534ERGO    R5 6280   3.369   0.730   7.330  0.0556  0.0488  0.0280
  534ERGO    C1 6281   3.268   0.698   7.697 -0.1714 -0.1945 -0.0521
  534ERGO    C2 6282   3.175   0.802   7.977 -0.3338  0.1332  0.0824
  535ERGO   ROH 6283   4.188   2.571  10.191 -0.1073 -0.2045 -0.0654
  535ERGO    R1 6284   4.032   2.626   9.962 -0.0877  0.1824  0.0075
  535ERGO    R2 6285   4.088   2.836   9.790  0.3422  0.0652 -0.0088
  535ERGO    R3 6286   4.085   2.639   9.602 -0.2153  0.0638 -0.0161
  535ERGO    R4 6287   4.024   2.884   9.454  0.4510  0.2534 -0.0036
  535ERGO    R5 6288   3.907   2.700   9.454 -0.0669  0.5648 -0.0035
  535ERGO    C1 6289   3.984   2.728   9.082 -0.0090  0.3617 -0.0075
  535ERGO    C2 6290   4.111   2.845   8.899 -0.2960 -0.0949 -0.1291
  536ERGO   ROH 6291  18.034  10.932   6.848  0.1992 -0.2047 -0.0170
  536ERGO    R1 6292  17.992  10.939   7.128  0.1249 -0.1207 -0.0299
  536ERGO    R2 6293  17.768  10.830   7.248  0.1274 -0.1474 -0.0500
  536ERGO    R3 6294  17.953  10.696   7.396  0.1304 -0.0402  0.0443
  536ERGO    R4 6295  17.800  10.852   7.591 -0.0316 -0.0946 -0.0378
  536ERGO    R5 6296  18.016  10.852   7.567 -0.0200  0.0098  0.0558
  536ERGO    C1 6297  17.992  10.739   7.930 -0.1215  0.0367  0.0578
  536ERGO    C2 6298  17.990  10.756   8.190  0.1011 -0.1005 -0.0944
  537ERGO   ROH 6299   4.000   4.612   6.931 -0.0743 -0.0676  0.1498
  537ERGO    R1 6300   3.930   4.610   7.205 -0.1437  0.0046  0.1340
  537ERGO    R2 6301   4.118   4.579   7.406 -0.2130 -0.1160  0.1845
  537ERGO    R3 6302   4.009   4.809   7.500 -0.0690 -0.0275  0.1357
  537ERGO    R4 6303   4.168   4.706   7.723 -0.0867 -0.0485  0.1375
  537ERGO    R5 6304   3.957   4.761   7.729 -0.0547  0.0695  0.1588
  537ERGO    C1 6305   4.094   4.996   7.996  0.1219  0.0737  0.0644
  537ERGO    C2 6306   4.309   5.106   8.277  0.0045 -0.0339 -0.0523
  538ERGO   ROH 6307   2.669  12.341   9.971 -0.1312  0.2860 -0.1697
  538ERGO    R1 6308   2.717  12.291   9.696 -0.1458 -0.0397 -0.1168
  538ERGO    R2 6309   2.948  12.374   9.569 -0.3149  0.1383 -0.3051
  538ERGO    R3 6310   2.965  12.112   9.500  0.0728  0.0537  0.0667
  538ERGO    R4 6311   3.165  12.245   9.333 -0.2057  0.1503 -0.2132
  538ERGO    R5 6312   3.005  12.114   9.264 -0.0365 -0.2145  0.0376
  538ERGO    C1 6313   3.308  11.924   9.131  0.2218  0.0779  0.1893
  538ERGO    C2 6314   3.455  11.731   9.009  0.2256  0.0071  0.0043
  539ERGO   ROH 6315  17.998   8.004   6.928 -0.0288 -0.2153 -0.1886
  539ERGO    R1 6316  18.137   8.057   7.168 -0.0806 -0.1966 -0.1635
  539ERGO    R2 6317  18.167   7.867   7.367  0.1047 -0.2638 -0.2605
  539ERGO    R3 6318  18.431   7.926   7.338  0.0514  0.0106 -0.2261
  539ERGO    R4 6319  18.396   7.877   7.626  0.1149 -0.3500 -0.2652
  539ERGO    R5 6320  18.485   8.054   7.534 -0.0522 -0.1564 -0.0797
  539ERGO    C1 6321  18.777   7.938   7.749  0.0707 -0.1425 -0.2356
  539ERGO    C2 6322  18.777   7.934   8.014 -0.1376  0.0443 -0.0445
  540ERGO   ROH 6323   1.562  15.423   9.766  0.1587  0.1406  0.1282
  540ERGO    R1 6324   1.381  15.322   9.572  0.1870  0.0179  0.1660
  540ERGO    R2 6325   1.257  15.484   9.385  0.0971 -0.0795  0.1475
  540ERGO    R3 6326   1.365  15.307   9.209  0.1567 -0.0667  0.1690
  540ERGO    R4 6327   1.181  15.468   9.049  0.0567 -0.1694  0.1603
  540ERGO    R5 6328   1.184  15.251   9.063  0.1555 -0.1726  0.2023
  540ERGO    C1 6329   1.236  15.292   8.687  0.0890 -0.2097  0.1879
  540ERGO    C2 6330   1.498  15.269   8.416  0.1653 -0.1477 -0.1804
  541ERGO   ROH 6331   4.708   5.485   7.013 -0.0983  0.1210 -0.1186
  541ERGO    R1 6332   4.740   5.608   7.266 -0.0787  0.0105 -0.0691
  541ERGO    R2 6333   4.731   5.466   7.503 -0.0032 -0.0971 -0.1419
  541ERGO    R3 6334   4.972   5.583   7.545 -0.0223 -0.0613 -0.1185
  541ERGO    R4 6335   4.877   5.510   7.812 -0.1818  0.1712 -0.0911
  541ERGO    R5 6336   4.943   5.708   7.747 -0.1425  0.1231 -0.2366
  541ERGO    C1 6337   5.190   5.647   8.032 -0.3036  0.3610 -0.0395
  541ERGO    C2 6338   5.308   5.441   8.287 -0.0988  0.2338 -0.0505
  542ERGO   ROH 6339   7.669  13.800   9.936  0.0059  0.2124  0.0152
  542ERGO    R1 6340   7.534  13.705   9.706  0.1004 -0.0220  0.0536
  542ERGO    R2 6341   7.474  13.868   9.491 -0.3438 -0.0900  0.1141
  542ERGO    R3 6342   7.607  13.677   9.350  0.0086  0.2170  0.0153
  542ERGO    R4 6343   7.464  13.834   9.147 -0.4289 -0.0502  0.1125
  542ERGO    R5 6344   7.456  13.618   9.174  0.0518 -0.0798  0.0769
  542ERGO    C1 6345   7.583  13.635   8.815 -0.1476  0.2614  0.0188
  542ERGO    C2 6346   7.733  13.909   8.575  0.0620 -0.0158 -0.0857
  543ERGO   ROH 6347   5.571  15.836   9.439 -0.1595  0.0613  0.0145
  543ERGO    R1 6348   5.687  15.808   9.183  0.1079  0.0119  0.1367
  543ERGO    R2 6349   5.571  15.914   8.955  0.1294 -0.3729 -0.0618
  543ERGO    R3 6350   5.815  16.031   8.925 -0.0239 -0.0111  0.0509
  543ERGO    R4 6351   5.733  15.960   8.653  0.2395 -0.2130  0.0202
  543ERGO    R5 6352   5.920  15.906   8.750  0.2696  0.0957  0.1452
  543ERGO    C1 6353   6.055  16.097   8.449  0.1596  0.2198  0.1736
  543ERGO    C2 6354   6.219  16.218   8.092  0.1545  0.2306  0.0171
  544ERGO   ROH 6355  10.686  12.383  10.014  0.0378  0.0837 -0.1030
  544ERGO    R1 6356  10.565  12.321   9.765  0.0057 -0.0498 -0.0541
  544ERGO    R2 6357  10.655  12.426   9.526 -0.2566  0.1178 -0.0813
  544ERGO    R3 6358  10.669  12.164   9.454  0.0822  0.1431 -0.1277
  544ERGO    R4 6359  10.553  12.300   9.221 -0.4323 -0.0073  0.0267
  544ERGO    R5 6360  10.470  12.127   9.325 -0.0255 -0.1634  0.1131
  544ERGO    C1 6361  10.506  11.981   8.975 -0.2166 -0.0565  0.0461
  544ERGO    C2 6362  10.538  11.933   8.667 -0.3121  0.0264  0.1333
  545ERGO   ROH 6363  14.238   2.877   9.530  0.1612 -0.1195  0.0443
  545ERGO    R1 6364  14.380   2.706   9.355  0.0554 -0.0741 -0.0864
  545ERGO    R2 6365  14.267   2.602   9.125 -0.0471  0.0754 -0.1015
  545ERGO    R3 6366  14.485   2.713   9.006 -0.0509  0.0668 -0.1176
  545ERGO    R4 6367  14.404   2.497   8.825 -0.1261  0.1135 -0.1516
  545ERGO    R5 6368  14.602   2.527   8.911 -0.1009  0.0629 -0.1802
  545ERGO    C1 6369  14.688   2.541   8.540 -0.1756  0.1275 -0.1959
  545ERGO    C2 6370  14.729   2.562   8.231  0.2484  0.0410  0.2845
  546ERGO   ROH 6371  11.231   6.089   6.711 -0.0485  0.1091 -0.0299
  546ERGO    R1 6372  11.105   5.979   6.940  0.1626 -0.0252  0.0246
  546ERGO    R2 6373  11.238   5.944   7.180  0.2594  0.2740  0.0185
  546ERGO    R3 6374  11.031   6.089   7.279  0.0270 -0.0326 -0.0017
  546ERGO    R4 6375  11.175   5.997   7.516  0.1930  0.2391  0.0117
  546ERGO    R5 6376  10.963   5.971   7.476  0.2241 -0.1076  0.0251
  546ERGO    C1 6377  10.945   6.165   7.804 -0.0638 -0.0690 -0.0112
  546ERGO    C2 6378  10.791   6.354   8.069  0.1913  0.2545 -0.1093
  547ERGO   ROH 6379  15.685  15.127   6.408 -0.1733 -0.1183  0.0240
  547ERGO    R1 6380  15.732  15.076   6.682 -0.0970 -0.0244  0.0281
  547ERGO    R2 6381  15.671  15.260   6.880 -0.1452 -0.0023 -0.0108
  547ERGO    R3 6382  15.531  15.052   6.985 -0.0270 -0.0410  0.0745
  547ERGO    R4 6383  15.610  15.213   7.217 -0.2413  0.1860 -0.0001
  547ERGO    R5 6384  15.646  15.000   7.188 -0.0636  0.1887  0.1595
  547ERGO    C1 6385  15.443  14.991   7.511 -0.1863  0.2593  0.0861
  547ERGO    C2 6386  15.392  15.091   7.817 -0.1262  0.3948 -0.0702
  548ERGO   ROH 6387   6.074  12.073  10.508  0.0893  0.2148 -0.0748
  548ERGO    R1 6388   6.058  11.908  10.278  0.0151  0.1854 -0.0485
  548ERGO    R2 6389   5.831  11.892  10.122  0.0027  0.2493 -0.0343
  548ERGO    R3 6390   6.003  11.956   9.922  0.0176  0.1505 -0.0541
  548ERGO    R4 6391   5.774  11.835   9.786 -0.0852  0.3103 -0.0303
  548ERGO    R5 6392   5.982  11.776   9.765 -0.1245  0.1734 -0.0644
  548ERGO    C1 6393   5.902  11.862   9.402 -0.1224  0.2530 -0.0466
  548ERGO    C2 6394   6.032  11.741   9.075  0.1372 -0.2812  0.0360
  549ERGO   ROH 6395   2.278  14.249   6.701 -0.2143 -0.3014  0.0081
  549ERGO    R1 6396   2.352  14.315   6.966 -0.3219 -0.1086 -0.0083
  549ERGO    R2 6397   2.244  14.188   7.186 -0.1516 -0.1958  0.0229
  549ERGO    R3 6398   2.505  14.143   7.248 -0.0851  0.2002  0.0580
  549ERGO    R4 6399   2.363  14.123   7.504 -0.1477 -0.2929  0.0019
  549ERGO    R5 6400   2.535  14.250   7.460 -0.3460  0.0570  0.1751
  549ERGO    C1 6401   2.678  14.042   7.747 -0.0831  0.0222  0.0226
  549ERGO    C2 6402   2.745  13.983   8.038 -0.1238  0.4525 -0.0174
  550ERGO   ROH 6403  13.307   5.568   9.646 -0.1338  0.1172  0.1131
  550ERGO    R1 6404  13.296   5.660   9.379  0.1465  0.0415  0.0722
  550ERGO    R2 6405  13.453   5.554   9.177  0.0016 -0.3637  0.1650
  550ERGO    R3 6406  13.213   5.520   9.053 -0.0373  0.0808  0.1006
  550ERGO    R4 6407  13.408   5.536   8.835  0.0863 -0.4511  0.1575
  550ERGO    R5 6408  13.227   5.656   8.857  0.3262 -0.0477  0.0295
  550ERGO    C1 6409  13.156   5.494   8.520  0.0992 -0.0847  0.0929
  550ERGO    C2 6410  13.148   5.364   8.191 -0.2580 -0.1836 -0.1867
  551ERGO   ROH 6411   6.406   4.586   9.982  0.0383  0.0041 -0.1328
  551ERGO    R1 6412   6.255   4.612   9.743 -0.1310 -0.1643 -0.0470
  551ERGO    R2 6413   6.364   4.707   9.508 -0.4121  0.1243 -0.0693
  551ERGO    R3 6414   6.268   4.474   9.407 -0.0554 -0.0133 -0.1065
  551ERGO    R4 6415   6.293   4.650   9.174 -0.2296  0.0279 -0.0927
  551ERGO    R5 6416   6.115   4.541   9.236 -0.0993 -0.2250 -0.1520
  551ERGO    C1 6417   6.161   4.397   8.886  0.2115 -0.1574 -0.1414
  551ERGO    C2 6418   6.273   4.294   8.638  0.1106 -0.0057  0.1520
  552ERGO   ROH 6419  15.312   9.088  10.433  0.0988  0.1878 -0.2053
  552ERGO    R1 6420  15.406   9.116  10.167  0.1726  0.0028 -0.2004
  552ERGO    R2 6421  15.536   8.912  10.033 -0.0353 -0.1882 -0.1212
  552ERGO    R3 6422  15.343   8.955   9.847  0.0394 -0.0242 -0.1610
  552ERGO    R4 6423  15.563   8.831   9.698 -0.0618 -0.2764 -0.1018
  552ERGO    R5 6424  15.464   9.019   9.650  0.1378 -0.1827 -0.1524
  552ERGO    C1 6425  15.398   8.825   9.328 -0.0071 -0.1737 -0.1279
  552ERGO    C2 6426  15.282   8.758   8.997 -0.1505  0.0331 -0.0478
  553ERGO   ROH 6427   3.807  12.231  10.096 -0.2643 -0.4442  0.2162
  553ERGO    R1 6428   3.765  12.098   9.850 -0.1515 -0.2663  0.1003
  553ERGO    R2 6429   3.601  12.200   9.653  0.0092 -0.0841  0.0682
  553ERGO    R3 6430   3.822  12.169   9.498  0.0933 -0.0531  0.1784
  553ERGO    R4 6431   3.604  12.214   9.307  0.2107  0.1759  0.0763
  553ERGO    R5 6432   3.745  12.048   9.306  0.1516  0.1155  0.0380
  553ERGO    C1 6433   3.813  12.194   8.961  0.4070  0.3562  0.1845
  553ERGO    C2 6434   3.796  12.379   8.638 -0.1514 -0.0881 -0.2047
  554ERGO   ROH 6435   8.914   2.163   9.394  0.1152  0.0111 -0.0687
  554ERGO    R1 6436   8.926   2.102   9.118  0.2404  0.2731 -0.1252
  554ERGO    R2 6437   8.742   1.938   8.993  0.6189 -0.0874 -0.2410
  554ERGO    R3 6438   8.714   2.151   8.827  0.0776  0.0031 -0.0547
  554ERGO    R4 6439   8.663   1.917   8.658  0.6586  0.0107 -0.2561
  554ERGO    R5 6440   8.807   2.076   8.619  0.2645  0.4151 -0.1271
  554ERGO    C1 6441   8.592   2.105   8.305  0.1735  0.1527 -0.0900
  554ERGO    C2 6442   8.481   2.251   8.070 -0.3998  0.0464 -0.0869
  555ERGO   ROH 6443   8.091   5.854  10.046  0.1081 -0.1667 -0.1937
  555ERGO    R1 6444   8.258   5.949   9.838  0.1150 -0.1842 -0.1955
  555ERGO    R2 6445   8.249   5.845   9.582 -0.0283 -0.0597 -0.2408
  555ERGO    R3 6446   8.212   6.105   9.513  0.1317  0.0005 -0.1108
  555ERGO    R4 6447   8.376   5.993   9.297  0.0124 -0.0121 -0.1987
  555ERGO    R5 6448   8.420   6.171   9.415  0.1579 -0.0949 -0.1230
  555ERGO    C1 6449   8.414   6.324   9.065  0.1864  0.0722 -0.0522
  555ERGO    C2 6450   8.321   6.572   8.864  0.3099  0.1829  0.0924
  556ERGO   ROH 6451   0.722  14.223   9.865  0.1651 -0.2058  0.0277
  556ERGO    R1 6452   0.593  14.045   9.687  0.1133 -0.0713 -0.0699
  556ERGO    R2 6453   0.532  14.114   9.426  0.2689  0.0371 -0.0771
  556ERGO    R3 6454   0.670  13.887   9.369  0.1333 -0.0474 -0.0773
  556ERGO    R4 6455   0.502  13.932   9.134  0.2104  0.0975 -0.1094
  556ERGO    R5 6456   0.514  13.749   9.251  0.0651  0.0712 -0.1301
  556ERGO    C1 6457   0.615  13.613   8.910  0.0490  0.0533 -0.1285
  556ERGO    C2 6458   0.826  13.490   8.722  0.0303 -0.0006 -0.3001
  557ERGO   ROH 6459  14.718   6.488   9.984  0.0437  0.2374 -0.0937
  557ERGO    R1 6460  14.685   6.444   9.706 -0.0728  0.1075 -0.0606
  557ERGO    R2 6461  14.468   6.542   9.565 -0.1190  0.0663 -0.0229
  557ERGO    R3 6462  14.661   6.650   9.407 -0.1670 -0.0324 -0.1496
  557ERGO    R4 6463  14.410   6.697   9.262 -0.2279  0.0470 -0.0121
  557ERGO    R5 6464  14.589   6.600   9.184 -0.3130 -0.0339 -0.1014
  557ERGO    C1 6465  14.558   6.888   8.937 -0.3364 -0.0570 -0.1248
  557ERGO    C2 6466  14.538   7.111   8.600  0.0867  0.0037  0.0406
  558ERGO   ROH 6467   4.600   7.116  10.088 -0.0373 -0.1765 -0.0302
  558ERGO    R1 6468   4.552   7.146   9.811  0.0088  0.0128 -0.0188
  558ERGO    R2 6469   4.732   7.268   9.641  0.1357 -0.0702  0.0586
  558ERGO    R3 6470   4.709   7.035   9.502 -0.0758  0.0225 -0.0664
  558ERGO    R4 6471   4.788   7.234   9.302  0.2708  0.0338  0.0693
  558ERGO    R5 6472   4.616   7.101   9.291  0.1096  0.2435 -0.0854
  558ERGO    C1 6473   4.798   6.996   8.973  0.1510  0.1812 -0.0417
  558ERGO    C2 6474   4.885   6.874   8.657  0.1911 -0.0419  0.1053
  559ERGO   ROH 6475  14.361   8.046   7.147  0.0599  0.4540 -0.2472
  559ERGO    R1 6476  14.394   8.159   7.405  0.1389  0.1453 -0.1171
  559ERGO    R2 6477  14.188   8.169   7.590  0.1028  0.2064 -0.1590
  559ERGO    R3 6478  14.369   8.043   7.749 -0.0900 -0.1901 -0.2415
  559ERGO    R4 6479  14.157   8.127   7.931  0.1560  0.2527 -0.1482
  559ERGO    R5 6480  14.369   8.169   7.952  0.2628 -0.1963 -0.2326
  559ERGO    C1 6481  14.308   7.984   8.279  0.0060 -0.0925 -0.2194
  559ERGO    C2 6482  14.404   7.852   8.594 -0.2554  0.1434  0.1225
  560ERGO   ROH 6483   7.554  14.926   9.858  0.0042  0.1781 -0.1600
  560ERGO    R1 6484   7.529  14.949   9.577  0.2021  0.1199 -0.1847
  560ERGO    R2 6485   7.718  14.850   9.402  0.1051 -0.3422 -0.0480
  560ERGO    R3 6486   7.505  14.721   9.294 -0.1099  0.0470 -0.1018
  560ERGO    R4 6487   7.686  14.765   9.068  0.0620 -0.3476 -0.0418
  560ERGO    R5 6488   7.476  14.823   9.079  0.1645  0.0616 -0.1316
  560ERGO    C1 6489   7.466  14.596   8.772 -0.1648  0.0148 -0.0886
  560ERGO    C2 6490   7.537  14.431   8.505 -0.3216 -0.2362  0.2147
  561ERGO   ROH 6491   9.597   0.403   8.858  0.1300  0.0934  0.0847
  561ERGO    R1 6492   9.592   0.321   8.587 -0.0081  0.0996  0.0854
  561ERGO    R2 6493   9.472   0.470   8.388  0.1224  0.2338  0.1110
  561ERGO    R3 6494   9.715   0.449   8.269  0.0797 -0.0351  0.0632
  561ERGO    R4 6495   9.528   0.494   8.048  0.1004  0.3914  0.1167
  561ERGO    R5 6496   9.672   0.331   8.066 -0.1264  0.1650 -0.0166
  561ERGO    C1 6497   9.790   0.487   7.738  0.0475  0.2307  0.0752
  561ERGO    C2 6498   9.676   0.568   7.415 -0.2553  0.0202  0.0391
  562ERGO   ROH 6499   0.839   0.030   6.746 -0.1100  0.1009  0.1455
  562ERGO    R1 6500   0.693   0.089   6.982 -0.0951  0.0345  0.1711
  562ERGO    R2 6501   0.452  -0.031   7.040 -0.0621 -0.0237  0.1800
  562ERGO    R3 6502   0.577  -0.095   7.273 -0.0243 -0.0336  0.1575
  562ERGO    R4 6503   0.303  -0.024   7.352  0.0078  0.0459  0.2124
  562ERGO    R5 6504   0.487   0.060   7.433  0.0503  0.0072  0.1627
  562ERGO    C1 6505   0.333  -0.080   7.752  0.0839  0.0771  0.2102
  562ERGO    C2 6506   0.089  -0.103   7.992  0.2760  0.5060  0.1778
  563ERGO   ROH 6507   2.496   9.386  10.101  0.0140 -0.2038  0.0678
  563ERGO    R1 6508   2.523   9.214   9.878  0.1202 -0.1302  0.0233
  563ERGO    R2 6509   2.514   9.306   9.617  0.0637 -0.0683  0.0493
  563ERGO    R3 6510   2.753   9.177   9.598  0.1433  0.0821  0.0116
  563ERGO    R4 6511   2.636   9.157   9.330  0.0410 -0.1149  0.0633
  563ERGO    R5 6512   2.709   8.992   9.452  0.2023 -0.0145  0.1107
  563ERGO    C1 6513   2.931   8.950   9.145  0.1025 -0.0007  0.0360
  563ERGO    C2 6514   2.980   8.924   8.868 -0.4231 -0.1716 -0.0854
  564ERGO   ROH 6515   5.490  17.867   8.099  0.0955  0.1443  0.1109
  564ERGO    R1 6516   5.447  18.100   7.945 -0.0607  0.2378  0.2932
  564ERGO    R2 6517   5.443  18.098   7.669  0.2778  0.5022  0.2824
  564ERGO    R3 6518   5.201  18.217   7.704  0.0543  0.1153  0.1114
  564ERGO    R4 6519   5.281  18.292   7.432  0.2405  0.4073  0.2302
  564ERGO    R5 6520   5.220  18.427   7.592 -0.1351  0.2229  0.2642
  564ERGO    C1 6521   4.960  18.516   7.328  0.0090 -0.0110  0.0392
  564ERGO    C2 6522   4.702  18.740   7.239 -0.0899 -0.0553  0.1180
  565ERGO   ROH 6523  13.897  15.840   9.389 -0.0640 -0.1713  0.0030
  565ERGO    R1 6524  13.909  15.684   9.152 -0.2083 -0.1749 -0.0025
  565ERGO    R2 6525  13.682  15.610   9.012 -0.2767  0.0991 -0.0444
  565ERGO    R3 6526  13.813  15.726   8.804 -0.1021 -0.0427 -0.0168
  565ERGO    R4 6527  13.641  15.523   8.680 -0.1934  0.0498 -0.0422
  565ERGO    R5 6528  13.856  15.545   8.653 -0.1642 -0.1100  0.0455
  565ERGO    C1 6529  13.739  15.581   8.291  0.0189 -0.1119 -0.0150
  565ERGO    C2 6530  13.676  15.534   7.938  0.1385 -0.2476  0.0947
  566ERGO   ROH 6531   9.862   1.625   9.006  0.3318 -0.0662  0.1594
  566ERGO    R1 6532   9.992   1.460   8.816  0.1344 -0.1355  0.0804
  566ERGO    R2 6533   9.853   1.313   8.627 -0.0536 -0.0023  0.1024
  566ERGO    R3 6534  10.016   1.443   8.454 -0.0204 -0.0904  0.0690
  566ERGO    R4 6535   9.860   1.262   8.286  0.0085 -0.1506  0.1261
  566ERGO    R5 6536  10.077   1.277   8.292  0.0009 -0.1582  0.1540
  566ERGO    C1 6537  10.017   1.354   7.924  0.0759 -0.3198  0.1085
  566ERGO    C2 6538   9.924   1.454   7.527 -0.0729 -0.0413 -0.2604
  567ERGO   ROH 6539  13.278  11.873   6.795  0.0399  0.1912 -0.0616
  567ERGO    R1 6540  13.293  12.087   6.980 -0.0738  0.1660 -0.0201
  567ERGO    R2 6541  13.126  12.106   7.199 -0.0236 -0.0153  0.0457
  567ERGO    R3 6542  13.360  12.124   7.336  0.0105  0.1382 -0.0352
  567ERGO    R4 6543  13.173  12.291   7.487  0.0603  0.2870 -0.1597
  567ERGO    R5 6544  13.368  12.352   7.411  0.0305  0.2121 -0.2732
  567ERGO    C1 6545  13.420  12.417   7.783  0.1413  0.6071 -0.3552
  567ERGO    C2 6546  13.361  12.661   8.067  0.2425 -0.0023  0.1799
  568ERGO   ROH 6547  14.632  11.635   6.940  0.3112  0.0203 -0.2037
  568ERGO    R1 6548  14.683  11.551   7.206  0.0515 -0.0031 -0.1581
  568ERGO    R2 6549  14.908  11.630   7.346  0.0375 -0.2076 -0.0144
  568ERGO    R3 6550  14.726  11.712   7.530 -0.0100 -0.0094 -0.1471
  568ERGO    R4 6551  14.986  11.748   7.661 -0.0635 -0.3150  0.0511
  568ERGO    R5 6552  14.815  11.637   7.739 -0.2522 -0.1252 -0.0824
  568ERGO    C1 6553  14.860  11.893   8.018 -0.1668 -0.1914 -0.0353
  568ERGO    C2 6554  14.921  12.205   8.168 -0.2497 -0.0830  0.0271
  569ERGO   ROH 6555   5.810  17.294   9.322  0.1535 -0.2795 -0.1352
  569ERGO    R1 6556   5.717  17.465   9.116  0.1940 -0.0438  0.0367
  569ERGO    R2 6557   5.881  17.644   8.985  0.2960 -0.1151  0.0543
  569ERGO    R3 6558   5.787  17.517   8.763  0.0292  0.1196  0.0280
  569ERGO    R4 6559   5.929  17.752   8.660  0.3744 -0.0740  0.0796
  569ERGO    R5 6560   5.724  17.694   8.616  0.2714  0.2745  0.1121
  569ERGO    C1 6561   5.869  17.696   8.263  0.1696  0.1699  0.0699
  569ERGO    C2 6562   5.939  17.655   7.937  0.3079  0.0125  0.0209
  570ERGO   ROH 6563  10.835   5.889   9.873  0.3464  0.1823  0.3266
  570ERGO    R1 6564  10.819   6.067   9.654  0.0607 -0.1082  0.1045
  570ERGO    R2 6565  11.026   6.237   9.585 -0.2673  0.2408 -0.0041
  570ERGO    R3 6566  11.000   6.119   9.342  0.0798 -0.1021  0.1127
  570ERGO    R4 6567  11.156   6.362   9.290 -0.4865  0.2615 -0.0961
  570ERGO    R5 6568  10.972   6.302   9.190 -0.3370 -0.3088 -0.0911
  570ERGO    C1 6569  11.207   6.323   8.890 -0.2880 -0.0482 -0.0402
  570ERGO    C2 6570  11.542   6.208   8.651 -0.0987  0.1890 -0.1096
  571ERGO   ROH 6571   2.759  17.049   9.600 -0.0759  0.0426  0.0141
  571ERGO    R1 6572   2.802  17.002   9.324 -0.1914  0.0082  0.0017
  571ERGO    R2 6573   2.940  16.781   9.230  0.0650  0.1703 -0.0079
  571ERGO    R3 6574   2.714  16.744   9.083  0.0163 -0.2066  0.1504
  571ERGO    R4 6575   2.932  16.748   8.886 -0.1270  0.2907 -0.0175
  571ERGO    R5 6576   2.752  16.871   8.883 -0.3760 -0.0488  0.1658
  571ERGO    C1 6577   2.717  16.693   8.548 -0.2845  0.0070  0.1257
  571ERGO    C2 6578   2.682  16.363   8.440  0.0038 -0.1685 -0.0685
  572ERGO   ROH 6579   9.807  10.562  10.364 -0.0266 -0.0665  0.0914
  572ERGO    R1 6580   9.702  10.364  10.192 -0.0028 -0.0489  0.0569
  572ERGO    R2 6581   9.483  10.409  10.028 -0.0030 -0.0441  0.0601
  572ERGO    R3 6582   9.653  10.323   9.834  0.0090  0.0038  0.0490
  572ERGO    R4 6583   9.424  10.435   9.689 -0.0242 -0.0435  0.0634
  572ERGO    R5 6584   9.509  10.236   9.664  0.0217 -0.0229  0.0514
  572ERGO    C1 6585   9.549  10.370   9.309 -0.0252  0.0019  0.0551
  572ERGO    C2 6586   9.322  10.412   9.090 -0.2936  0.1886  0.1436
  573ERGO   ROH 6587   9.259  17.659   6.110  0.2223 -0.1357  0.1083
  573ERGO    R1 6588   9.220  17.769   6.368  0.1362 -0.0332  0.0522
  573ERGO    R2 6589   9.053  17.985   6.414  0.1417  0.0021 -0.0930
  573ERGO    R3 6590   8.939  17.817   6.594  0.0553  0.0837 -0.0708
  573ERGO    R4 6591   8.887  18.085   6.700 -0.0196  0.1344 -0.2309
  573ERGO    R5 6592   8.980  17.920   6.806 -0.0655  0.1918 -0.0980
  573ERGO    C1 6593   8.683  17.985   7.036 -0.1948  0.2879 -0.2903
  573ERGO    C2 6594   8.529  18.162   7.281  0.2357  0.1521 -0.1860
  574ERGO   ROH 6595   6.612   5.167   6.782 -0.0602  0.1543  0.0021
  574ERGO    R1 6596   6.653   5.045   7.034 -0.0189  0.0989 -0.0309
  574ERGO    R2 6597   6.705   5.191   7.263 -0.0803  0.0551  0.0129
  574ERGO    R3 6598   6.493   5.052   7.361 -0.0296 -0.0547 -0.0325
  574ERGO    R4 6599   6.651   5.124   7.597 -0.1118  0.0185  0.0001
  574ERGO    R5 6600   6.584   4.924   7.541 -0.0001 -0.0135 -0.0185
  574ERGO    C1 6601   6.420   4.954   7.884 -0.0825 -0.1058 -0.0501
  574ERGO    C2 6602   6.382   4.951   8.160  0.0567  0.2383 -0.0809
  575ERGO   ROH 6603   2.898   5.420   7.117 -0.2243  0.2566 -0.1651
  575ERGO    R1 6604   2.908   5.591   7.343 -0.1870  0.1788 -0.1073
  575ERGO    R2 6605   2.751   5.550   7.567 -0.1128  0.0700 -0.0714
  575ERGO    R3 6606   2.991   5.559   7.696 -0.0728  0.0665 -0.1450
  575ERGO    R4 6607   2.791   5.560   7.910 -0.0022  0.3929 -0.0894
  575ERGO    R5 6608   2.953   5.704   7.883  0.0668  0.2737 -0.2779
  575ERGO    C1 6609   3.039   5.574   8.231  0.0997  0.5775 -0.1691
  575ERGO    C2 6610   2.809   5.533   8.573 -0.1732  0.0506  0.2352
  576ERGO   ROH 6611  14.842  15.713   9.543  0.0448  0.0196  0.0991
  576ERGO    R1 6612  14.863  15.784   9.270 -0.1011  0.0593  0.0983
  576ERGO    R2 6613  14.981  15.619   9.082  0.0549  0.2110  0.0692
  576ERGO    R3 6614  14.744  15.652   8.952 -0.0136 -0.0669  0.1151
  576ERGO    R4 6615  14.938  15.588   8.741  0.0771  0.3304  0.0546
  576ERGO    R5 6616  14.804  15.761   8.747 -0.1851  0.1390  0.1644
  576ERGO    C1 6617  14.691  15.601   8.420  0.0257  0.1389  0.0891
  576ERGO    C2 6618  14.692  15.675   8.118  0.1933  0.2135 -0.0304
  577ERGO   ROH 6619  10.075   0.244   8.951 -0.0033  0.0405  0.0365
  577ERGO    R1 6620  10.190   0.191   8.697  0.0618 -0.0218  0.0783
  577ERGO    R2 6621  10.041   0.184   8.465  0.1201 -0.0787  0.0391
  577ERGO    R3 6622  10.224   0.366   8.380  0.1417 -0.0985  0.0447
  577ERGO    R4 6623  10.087   0.281   8.136 -0.0000  0.0739  0.0665
  577ERGO    R5 6624  10.302   0.280   8.171  0.0146 -0.0170 -0.0352
  577ERGO    C1 6625  10.286   0.508   7.866 -0.0498  0.1441  0.0878
  577ERGO    C2 6626  10.181   0.715   7.550  0.4307 -0.1770 -0.1711
  578ERGO   ROH 6627  12.528   8.973  10.258  0.0078 -0.0579 -0.0108
  578ERGO    R1 6628  12.406   9.022  10.007 -0.0797 -0.0512  0.0330
  578ERGO    R2 6629  12.437   8.853   9.791  0.0190  0.0645 -0.0435
  578ERGO    R3 6630  12.165   8.854   9.792  0.0164 -0.1583  0.0078
  578ERGO    R4 6631  12.239   8.774   9.519  0.0381  0.2429 -0.1109
  578ERGO    R5 6632  12.105   8.937   9.576 -0.0874  0.0676  0.1199
  578ERGO    C1 6633  11.868   8.729   9.363  0.0470  0.1377 -0.1023
  578ERGO    C2 6634  11.835   8.615   9.139  0.0737  0.0555 -0.1225
  579ERGO   ROH 6635   5.672   5.692   6.925  0.2660 -0.3632 -0.0344
  579ERGO    R1 6636   5.855   5.817   7.101  0.0541 -0.0907 -0.0034
  579ERGO    R2 6637   5.773   5.952   7.328 -0.1797 -0.2985  0.0372
  579ERGO    R3 6638   5.949   5.785   7.451  0.1242 -0.0281 -0.0155
  579ERGO    R4 6639   5.906   6.002   7.643 -0.3212 -0.1859  0.0806
  579ERGO    R5 6640   6.098   5.931   7.568 -0.1662  0.2094  0.0734
  579ERGO    C1 6641   6.149   5.875   7.942 -0.1184  0.1336  0.0564
  579ERGO    C2 6642   6.212   5.928   8.276  0.3632  0.4039  0.0986
  580ERGO   ROH 6643  11.394   7.914  10.054  0.1029 -0.1056  0.0206
  580ERGO    R1 6644  11.607   7.904   9.869  0.0861  0.0096 -0.0064
  580ERGO    R2 6645  11.735   7.668   9.801  0.3284  0.0998  0.1196
  580ERGO    R3 6646  11.672   7.744   9.548  0.2038 -0.1210  0.0803
  580ERGO    R4 6647  11.863   7.524   9.514  0.3816  0.0093  0.1889
  580ERGO    R5 6648  11.877   7.723   9.426  0.1961 -0.0326  0.0490
  580ERGO    C1 6649  11.877   7.512   9.109  0.2955 -0.2508  0.1923
  580ERGO    C2 6650  11.795   7.425   8.794 -0.2944 -0.0470  0.1308
  581ERGO   ROH 6651   7.140   2.457   9.702  0.0978  0.1436  0.0260
  581ERGO    R1 6652   7.072   2.456   9.427  0.3497  0.1243 -0.0378
  581ERGO    R2 6653   6.870   2.613   9.324  0.1386 -0.2212 -0.1490
  581ERGO    R3 6654   7.066   2.698   9.155  0.1331  0.2302  0.0565
  581ERGO    R4 6655   6.814   2.741   9.008  0.1566 -0.2846 -0.1790
  581ERGO    R5 6656   6.989   2.630   8.938  0.4788  0.0933 -0.0344
  581ERGO    C1 6657   6.966   2.896   8.665  0.1619  0.1021 -0.0033
  581ERGO    C2 6658   6.763   3.147   8.582 -0.3203  0.2790 -0.1572
  582ERGO   ROH 6659   7.220   6.039   9.918  0.1018 -0.0965 -0.0095
  582ERGO    R1 6660   7.179   6.219   9.703  0.0599 -0.0371  0.0456
  582ERGO    R2 6661   7.383   6.375   9.597  0.0403  0.0109  0.0568
  582ERGO    R3 6662   7.306   6.259   9.364  0.0134  0.0629  0.0420
  582ERGO    R4 6663   7.476   6.483   9.283 -0.0789  0.1247  0.0613
  582ERGO    R5 6664   7.274   6.443   9.214 -0.0779  0.0904  0.1041
  582ERGO    C1 6665   7.458   6.437   8.880 -0.1736  0.2399  0.0500
  582ERGO    C2 6666   7.666   6.392   8.824 -0.3578  0.0139  0.1541
  583ERGO   ROH 6667   4.337   0.727   9.645  0.0500 -0.1930 -0.0762
  583ERGO    R1 6668   4.509   0.784   9.427  0.0468 -0.1325 -0.0627
  583ERGO    R2 6669   4.450   0.709   9.167  0.0096  0.0010 -0.0930
  583ERGO    R3 6670   4.488   0.974   9.117  0.0678  0.0160  0.0256
  583ERGO    R4 6671   4.547   0.840   8.863  0.0474  0.1166 -0.0321
  583ERGO    R5 6672   4.676   0.979   8.969  0.0739  0.0418  0.0342
  583ERGO    C1 6673   4.639   1.165   8.638  0.1240  0.1981  0.1147
  583ERGO    C2 6674   4.477   1.269   8.368 -0.0420 -0.0930 -0.2301
  584ERGO   ROH 6675  11.501  11.284  10.200  0.1513  0.1445 -0.1575
  584ERGO    R1 6676  11.537  11.313   9.921 -0.0051  0.0192 -0.1921
  584ERGO    R2 6677  11.432  11.135   9.738 -0.2227  0.0109 -0.0610
  584ERGO    R3 6678  11.323  11.360   9.630 -0.1600  0.0339 -0.0774
  584ERGO    R4 6679  11.411  11.201   9.399 -0.2786 -0.0492 -0.0695
  584ERGO    R5 6680  11.463  11.409   9.442 -0.1847 -0.0597 -0.1222
  584ERGO    C1 6681  11.297  11.451   9.101 -0.2521 -0.0626 -0.0899
  584ERGO    C2 6682  11.393  11.361   8.781  0.0834 -0.1951  0.4571
  585ERGO   ROH 6683   7.123   6.803   9.993  0.0410  0.0951 -0.1727
  585ERGO    R1 6684   7.116   6.904   9.729  0.3723  0.1479 -0.1638
  585ERGO    R2 6685   7.322   6.863   9.548  0.2685 -0.4895 -0.1480
  585ERGO    R3 6686   7.122   6.765   9.393 -0.0501  0.1471 -0.1791
  585ERGO    R4 6687   7.322   6.864   9.203  0.4005 -0.5835 -0.1503
  585ERGO    R5 6688   7.111   6.916   9.208  0.5440  0.1634 -0.2316
  585ERGO    C1 6689   7.135   6.773   8.855  0.1783 -0.0408 -0.1808
  585ERGO    C2 6690   7.123   6.729   8.586 -0.2011  0.0951  0.2110
  586ERGO   ROH 6691   0.798  16.008   6.511 -0.1778  0.0120  0.0276
  586ERGO    R1 6692   0.818  15.848   6.743 -0.2327  0.0223  0.0409
  586ERGO    R2 6693   0.986  15.909   6.953 -0.1400 -0.0670  0.0016
  586ERGO    R3 6694   0.758  15.890   7.099 -0.1246  0.1043  0.0480
  586ERGO    R4 6695   0.969  15.793   7.278 -0.2278 -0.5060 -0.1552
  586ERGO    R5 6696   0.785  15.688   7.226 -0.4199 -0.1254 -0.2474
  586ERGO    C1 6697   0.744  15.706   7.604 -0.2646 -0.6007 -0.2030
  586ERGO    C2 6698   0.908  15.658   7.943  0.0595 -0.0609 -0.2171
  587ERGO   ROH 6699   1.517   3.346   6.851  0.2138 -0.0026  0.1178
  587ERGO    R1 6700   1.483   3.471   7.103  0.1982 -0.1058  0.1665
  587ERGO    R2 6701   1.236   3.501   7.222  0.1577  0.1050  0.0256
  587ERGO    R3 6702   1.356   3.375   7.430 -0.1150 -0.1486  0.0376
  587ERGO    R4 6703   1.145   3.539   7.553  0.2531  0.3737  0.0237
  587ERGO    R5 6704   1.357   3.539   7.605  0.2723 -0.1091  0.0114
  587ERGO    C1 6705   1.205   3.443   7.942  0.0527  0.2920  0.0338
  587ERGO    C2 6706   1.054   3.318   8.145  0.0296  0.2361  0.3584
  588ERGO   ROH 6707  12.670   8.814   9.363 -0.2438  0.0456 -0.1440
  588ERGO    R1 6708  12.851   8.938   9.184 -0.1263 -0.0350 -0.0830
  588ERGO    R2 6709  12.793   8.973   8.916 -0.0239  0.0023 -0.1021
  588ERGO    R3 6710  12.852   9.233   8.972  0.0827 -0.0280 -0.0732
  588ERGO    R4 6711  12.923   9.200   8.689  0.2180 -0.0650 -0.0340
  588ERGO    R5 6712  13.052   9.277   8.847  0.1734 -0.1322  0.0343
  588ERGO    C1 6713  13.053   9.575   8.609  0.4589 -0.1326  0.0327
  588ERGO    C2 6714  13.023   9.917   8.531 -0.3144  0.1813  0.1528
  589ERGO   ROH 6715   1.943   1.105   6.921 -0.0891 -0.0147  0.0364
  589ERGO    R1 6716   1.880   0.990   7.172 -0.0412  0.0862  0.0957
  589ERGO    R2 6717   1.904   1.129   7.410 -0.0285  0.1934  0.0330
  589ERGO    R3 6718   1.644   1.056   7.441 -0.0145  0.1727  0.0985
  589ERGO    R4 6719   1.767   1.006   7.702  0.1489 -0.1867 -0.0377
  589ERGO    R5 6720   1.653   0.863   7.584  0.0634 -0.0216 -0.1599
  589ERGO    C1 6721   1.444   0.866   7.902  0.2654 -0.4274 -0.0174
  589ERGO    C2 6722   1.432   0.862   8.250  0.0304  0.0172 -0.4963
  590ERGO   ROH 6723   7.159   4.026   9.783 -0.1315  0.0955  0.0073
  590ERGO    R1 6724   7.095   4.040   9.508 -0.1303  0.0754  0.0055
  590ERGO    R2 6725   7.232   4.202   9.331 -0.1165  0.0495 -0.0113
  590ERGO    R3 6726   7.263   3.970   9.193 -0.1346  0.0332  0.0134
  590ERGO    R4 6727   7.173   4.164   8.993 -0.0663  0.0277 -0.0170
  590ERGO    R5 6728   7.083   3.970   9.035 -0.1062  0.0493 -0.0162
  590ERGO    C1 6729   7.168   3.923   8.666 -0.0543 -0.0004  0.0026
  590ERGO    C2 6730   7.270   3.906   8.289 -0.1915 -0.0210 -0.3029
  591ERGO   ROH 6731  12.634   6.230   6.973 -0.0989  0.0587  0.1190
  591ERGO    R1 6732  12.784   6.118   7.184 -0.0687  0.0022  0.0686
  591ERGO    R2 6733  13.028   6.221   7.264 -0.0080 -0.0773 -0.0010
  591ERGO    R3 6734  12.909   6.229   7.508  0.0655 -0.0475  0.0336
  591ERGO    R4 6735  13.193   6.271   7.564  0.0267  0.3812 -0.0905
  591ERGO    R5 6736  13.064   6.121   7.654  0.2610  0.2773  0.0706
  591ERGO    C1 6737  13.177   6.308   7.967  0.1158  0.6761 -0.1102
  591ERGO    C2 6738  13.119   6.321   8.303 -0.0273  0.0002 -0.0222
  592ERGO   ROH 6739   6.218  17.432   5.734 -0.1534  0.0333  0.0349
  592ERGO    R1 6740   6.273  17.378   6.006 -0.1634 -0.1917 -0.0057
  592ERGO    R2 6741   6.248  17.568   6.205  0.2945 -0.2096  0.0858
  592ERGO    R3 6742   6.088  17.381   6.319 -0.0527  0.0596  0.0588
  592ERGO    R4 6743   6.213  17.520   6.545  0.1591 -0.1643  0.0785
  592ERGO    R5 6744   6.212  17.305   6.510 -0.2105 -0.1659  0.0736
  592ERGO    C1 6745   6.043  17.316   6.851 -0.2458  0.1151  0.0491
  592ERGO    C2 6746   6.003  17.462   7.206 -0.0541  0.1874 -0.1963
  593ERGO   ROH 6747   6.162   9.086  10.235 -0.0039 -0.0318 -0.0623
  593ERGO    R1 6748   6.305   9.073   9.992 -0.0837 -0.0423 -0.1092
  593ERGO    R2 6749   6.184   9.014   9.751 -0.1792  0.0372 -0.0828
  593ERGO    R3 6750   6.300   9.247   9.672 -0.1244  0.0107 -0.0794
  593ERGO    R4 6751   6.234   9.109   9.422  0.1257 -0.1070 -0.0806
  593ERGO    R5 6752   6.429   9.187   9.480  0.0645 -0.0654  0.0693
  593ERGO    C1 6753   6.373   9.382   9.157  0.3548 -0.2157 -0.0763
  593ERGO    C2 6754   6.552   9.538   8.904 -0.2326 -0.2856 -0.2029
  594ERGO   ROH 6755   4.238   8.653  10.097  0.0020  0.0235 -0.1567
  594ERGO    R1 6756   4.320   8.724   9.836 -0.0250  0.0752 -0.1515
  594ERGO    R2 6757   4.141   8.769   9.631 -0.0419 -0.0324 -0.1631
  594ERGO    R3 6758   4.273   9.006   9.611 -0.1841  0.0488 -0.1516
  594ERGO    R4 6759   4.233   8.919   9.334 -0.0127 -0.0265 -0.1511
  594ERGO    R5 6760   4.422   8.975   9.426 -0.0872  0.1113 -0.0832
  594ERGO    C1 6761   4.410   9.229   9.142 -0.1292  0.0531 -0.1333
  594ERGO    C2 6762   4.367   9.455   8.980 -0.1607  0.1140  0.1808
  595ERGO   ROH 6763  14.371   0.063   9.338  0.1680  0.1767  0.0197
  595ERGO    R1 6764  14.478   0.124   9.083  0.0782  0.1208 -0.0313
  595ERGO    R2 6765  14.478  -0.057   8.874  0.1695  0.0117  0.0640
  595ERGO    R3 6766  14.352   0.144   8.742  0.0019 -0.1457 -0.0216
  595ERGO    R4 6767  14.416  -0.052   8.534  0.4200 -0.0594  0.0148
  595ERGO    R5 6768  14.468   0.160   8.533  0.1441  0.0129  0.0651
  595ERGO    C1 6769  14.262   0.140   8.212  0.4084 -0.2484 -0.0941
  595ERGO    C2 6770  14.290  -0.078   7.989 -0.0021  0.0161 -0.0914
  596ERGO   ROH 6771   2.718  16.389   6.557  0.1313  0.1095  0.0905
  596ERGO    R1 6772   2.576  16.290   6.781  0.0526  0.0691  0.0233
  596ERGO    R2 6773   2.685  16.107   6.957  0.0071  0.0718  0.0529
  596ERGO    R3 6774   2.618  16.294   7.142 -0.0994  0.0453  0.0419
  596ERGO    R4 6775   2.629  16.042   7.292  0.0262  0.0548  0.0529
  596ERGO    R5 6776   2.462  16.182   7.286 -0.0482 -0.0317  0.0392
  596ERGO    C1 6777   2.533  16.179   7.661 -0.0627  0.0200  0.0426
  596ERGO    C2 6778   2.628  16.129   7.930  0.1780  0.2224  0.0711
  597ERGO   ROH 6779  16.272   6.622   6.932  0.1227 -0.2373  0.0691
  597ERGO    R1 6780  16.242   6.728   7.193  0.0919 -0.2153  0.0560
  597ERGO    R2 6781  16.296   6.581   7.421  0.1507 -0.1662  0.0711
  597ERGO    R3 6782  16.457   6.792   7.479  0.0764 -0.1006  0.0433
  597ERGO    R4 6783  16.386   6.679   7.739  0.1232 -0.1007  0.0593
  597ERGO    R5 6784  16.362   6.886   7.677  0.0458 -0.1138  0.0369
  597ERGO    C1 6785  16.590   6.935   7.979  0.0376 -0.0011  0.0263
  597ERGO    C2 6786  16.712   7.103   8.268  0.1791 -0.0429 -0.2784
  598ERGO   ROH 6787  15.317   4.506   9.589  0.1823  0.0320  0.1593
  598ERGO    R1 6788  15.255   4.598   9.329  0.1573  0.0819  0.1832
  598ERGO    R2 6789  15.448   4.645   9.138  0.1234 -0.0674  0.1139
  598ERGO    R3 6790  15.296   4.476   8.988 -0.0632  0.0515  0.1648
  598ERGO    R4 6791  15.437   4.644   8.792  0.3706 -0.3561  0.1025
  598ERGO    R5 6792  15.221   4.611   8.805  0.2953  0.0232 -0.0139
  598ERGO    C1 6793  15.287   4.484   8.451  0.3392 -0.4125  0.1435
  598ERGO    C2 6794  15.424   4.633   8.243  0.3226 -0.2368 -0.2954
  599ERGO   ROH 6795   9.818  14.187   9.513  0.2865 -0.0223 -0.0816
  599ERGO    R1 6796   9.675  14.283   9.288  0.3753 -0.0134 -0.1351
  599ERGO    R2 6797   9.747  14.221   9.029  0.1995 -0.4038 -0.0988
  599ERGO    R3 6798   9.489  14.136   9.011  0.0455  0.0022  0.0721
  599ERGO    R4 6799   9.585  14.144   8.734  0.0138 -0.5371  0.0359
  599ERGO    R5 6800   9.406  14.241   8.813  0.1863 -0.1236 -0.0561
  599ERGO    C1 6801   9.248  14.019   8.546 -0.2388 -0.2337  0.2748
  599ERGO    C2 6802   9.120  13.967   8.279 -0.1210  0.1160  0.0354
  600ERGO   ROH 6803   3.850  15.471   9.398  0.0271 -0.0762 -0.0865
  600ERGO    R1 6804   3.819  15.423   9.121 -0.0332 -0.0904 -0.0775
  600ERGO    R2 6805   3.584  15.479   8.986 -0.0268  0.0043 -0.0515
  600ERGO    R3 6806   3.749  15.622   8.825  0.0180 -0.0883 -0.0879
  600ERGO    R4 6807   3.555  15.500   8.643 -0.0298 -0.0600 -0.0550
  600ERGO    R5 6808   3.772  15.487   8.628 -0.0349 -0.1385 -0.0592
  600ERGO    C1 6809   3.693  15.646   8.291  0.0106 -0.1844 -0.0912
  600ERGO    C2 6810   3.501  15.810   8.127 -0.0292 -0.1952  0.2713
  601ERGO   ROH 6811   3.226  13.224   6.723 -0.4604  0.0953  0.0922
  601ERGO    R1 6812   3.413  13.225   6.935 -0.3414 -0.0411 -0.0108
  601ERGO    R2 6813   3.477  13.453   7.076 -0.0612 -0.0781 -0.0766
  601ERGO    R3 6814   3.410  13.301   7.291 -0.0768  0.0116 -0.0167
  601ERGO    R4 6815   3.512  13.551   7.406 -0.1177  0.0788 -0.1156
  601ERGO    R5 6816   3.579  13.349   7.453 -0.1027  0.1044 -0.0137
  601ERGO    C1 6817   3.469  13.465   7.799 -0.1653  0.2542 -0.0822
  601ERGO    C2 6818   3.564  13.435   8.119  0.3854 -0.1751  0.0252
  602ERGO   ROH 6819  11.004   3.547   6.243  0.1078 -0.1660 -0.0362
  602ERGO    R1 6820  11.032   3.656   6.503 -0.0136  0.1802 -0.1617
  602ERGO    R2 6821  10.819   3.760   6.645 -0.1817 -0.0966 -0.2062
  602ERGO    R3 6822  10.900   3.584   6.835  0.2515  0.2691 -0.0335
  602ERGO    R4 6823  10.727   3.772   6.978 -0.2156  0.0020 -0.2186
  602ERGO    R5 6824  10.931   3.718   7.031 -0.0695  0.5423 -0.1579
  602ERGO    C1 6825  10.750   3.614   7.350  0.1712  0.4027 -0.0637
  602ERGO    C2 6826  10.679   3.601   7.656  0.2307 -0.1437 -0.2297
  603ERGO   ROH 6827   7.800   3.855   6.130  0.0833  0.0287  0.0033
  603ERGO    R1 6828   7.676   3.733   6.354  0.0786 -0.0921 -0.0624
  603ERGO    R2 6829   7.741   3.478   6.441  0.2817 -0.0339 -0.0259
  603ERGO    R3 6830   7.784   3.605   6.677  0.0323  0.0132 -0.0059
  603ERGO    R4 6831   7.803   3.321   6.742  0.1289  0.0345  0.0410
  603ERGO    R5 6832   7.676   3.467   6.840 -0.0214 -0.0221 -0.0746
  603ERGO    C1 6833   7.879   3.349   7.140 -0.1942  0.1185  0.0989
  603ERGO    C2 6834   8.061   3.050   7.327 -0.1551  0.0972 -0.0246
  604ERGO   ROH 6835   2.131   4.942   9.989  0.2724 -0.0930 -0.1130
  604ERGO    R1 6836   2.157   4.990   9.711  0.0905 -0.0404 -0.1218
  604ERGO    R2 6837   1.938   5.013   9.543 -0.0194 -0.0402  0.0199
  604ERGO    R3 6838   2.056   5.249   9.477 -0.0932 -0.0125 -0.0137
  604ERGO    R4 6839   1.896   5.178   9.242 -0.1938 -0.0170  0.0559
  604ERGO    R5 6840   2.108   5.226   9.244 -0.2010  0.0205 -0.0417
  604ERGO    C1 6841   1.981   5.495   9.004 -0.3645  0.0226  0.0454
  604ERGO    C2 6842   2.050   5.852   8.794  0.0942  0.1613  0.0696
  605ERGO   ROH 6843  17.546   0.633   6.711  0.0488 -0.0960 -0.1561
  605ERGO    R1 6844  17.624   0.539   6.967 -0.2131 -0.1299 -0.0881
  605ERGO    R2 6845  17.823   0.660   7.115 -0.0639 -0.4136 -0.0665
  605ERGO    R3 6846  17.630   0.671   7.306 -0.1210 -0.0043 -0.1354
  605ERGO    R4 6847  17.882   0.695   7.454 -0.0951 -0.5731 -0.0418
  605ERGO    R5 6848  17.723   0.551   7.492 -0.4402 -0.2375 -0.1102
  605ERGO    C1 6849  17.735   0.726   7.830 -0.1669 -0.2818 -0.0922
  605ERGO    C2 6850  17.750   0.644   8.221 -0.0857  0.0529  0.5177
  606ERGO   ROH 6851  13.473   3.633   6.290 -0.1746  0.0315  0.0525
  606ERGO    R1 6852  13.408   3.798   6.511 -0.0452 -0.0149  0.1271
  606ERGO    R2 6853  13.156   3.800   6.626 -0.0779  0.2039  0.0647
  606ERGO    R3 6854  13.296   3.748   6.854 -0.1878 -0.0825  0.0703
  606ERGO    R4 6855  13.023   3.803   6.945 -0.1370  0.1966  0.0399
  606ERGO    R5 6856  13.205   3.900   7.015 -0.0368 -0.0591  0.1298
  606ERGO    C1 6857  13.077   3.756   7.344 -0.2746 -0.0764  0.0306
  606ERGO    C2 6858  12.895   3.691   7.636  0.0758 -0.0037 -0.1911
  607ERGO   ROH 6859   6.068  10.712   6.760 -0.1030 -0.0254  0.1391
  607ERGO    R1 6860   6.265  10.794   6.947  0.0354 -0.1655  0.0565
  607ERGO    R2 6861   6.206  10.955   7.163  0.2758  0.0332 -0.0242
  607ERGO    R3 6862   6.323  10.754   7.304  0.0495 -0.0365  0.0697
  607ERGO    R4 6863   6.206  10.930   7.508  0.1547  0.1420 -0.0155
  607ERGO    R5 6864   6.413  10.862   7.498  0.0985 -0.0576  0.0612
  607ERGO    C1 6865   6.315  10.726   7.840 -0.1282  0.1401  0.0777
  607ERGO    C2 6866   6.318  10.736   8.203  0.0956  0.0413  0.0322
  608ERGO   ROH 6867  15.247   7.770   6.978 -0.1039 -0.0492 -0.1101
  608ERGO    R1 6868  15.294   7.704   7.250 -0.0494 -0.0138 -0.1112
  608ERGO    R2 6869  15.481   7.836   7.405 -0.0719  0.0572 -0.1449
  608ERGO    R3 6870  15.269   7.873   7.571 -0.0635  0.0027 -0.1211
  608ERGO    R4 6871  15.504   7.918   7.740 -0.0617  0.2335 -0.1871
  608ERGO    R5 6872  15.340   7.780   7.780  0.0339  0.1486 -0.0892
  608ERGO    C1 6873  15.318   8.000   8.091 -0.0478  0.2848 -0.1893
  608ERGO    C2 6874  15.169   8.220   8.231  0.1589 -0.2400  0.1774
  609ERGO   ROH 6875  12.902  13.930   6.568 -0.0286  0.1793  0.0133
  609ERGO    R1 6876  13.013  13.937   6.828 -0.1431  0.4102  0.0575
  609ERGO    R2 6877  12.870  14.024   7.048 -0.3947  0.1725 -0.0114
  609ERGO    R3 6878  12.942  13.783   7.150  0.0117  0.3089  0.0455
  609ERGO    R4 6879  12.882  13.947   7.385 -0.6760  0.1697  0.0013
  609ERGO    R5 6880  13.066  13.836   7.347 -0.3611  0.5737  0.2251
  609ERGO    C1 6881  12.957  13.676   7.676 -0.4582  0.2961  0.0620
  609ERGO    C2 6882  13.062  13.644   7.961 -0.7259 -0.1271  0.0237
  610ERGO   ROH 6883  17.626   1.722   6.941  0.2065 -0.0677  0.0205
  610ERGO    R1 6884  17.532   1.554   7.149  0.2384 -0.0255  0.0684
  610ERGO    R2 6885  17.545   1.625   7.416  0.0081  0.1581  0.0314
  610ERGO    R3 6886  17.278   1.573   7.410  0.0579 -0.0992 -0.0975
  610ERGO    R4 6887  17.347   1.574   7.695 -0.1087  0.1627 -0.0493
  610ERGO    R5 6888  17.245   1.415   7.587  0.1052 -0.0133 -0.0075
  610ERGO    C1 6889  16.982   1.495   7.851 -0.1301 -0.0761 -0.2173
  610ERGO    C2 6890  16.718   1.368   8.046  0.2167 -0.0792 -0.0569
  611ERGO   ROH 6891   8.572   4.807   9.646 -0.2641  0.0867  0.1557
  611ERGO    R1 6892   8.530   4.967   9.417 -0.0583  0.0228  0.0710
  611ERGO    R2 6893   8.651   4.913   9.174 -0.1180 -0.2567  0.0986
  611ERGO    R3 6894   8.395   4.919   9.082 -0.1133  0.0169  0.0944
  611ERGO    R4 6895   8.557   5.007   8.855 -0.0251 -0.0803  0.1220
  611ERGO    R5 6896   8.387   5.112   8.941  0.0751  0.0634  0.1457
  611ERGO    C1 6897   8.263   5.068   8.583  0.0334  0.2794  0.1318
  611ERGO    C2 6898   8.342   4.940   8.239 -0.1559 -0.0220 -0.1025
  612ERGO   ROH 6899  16.374  13.909   6.448 -0.0189 -0.1983  0.0839
  612ERGO    R1 6900  16.242  14.054   6.651  0.0270 -0.2346  0.1393
  612ERGO    R2 6901  16.059  13.937   6.823  0.0502 -0.2599  0.1442
  612ERGO    R3 6902  16.222  14.041   7.014  0.0897 -0.3131  0.1406
  612ERGO    R4 6903  15.954  14.050   7.132  0.0643 -0.0376  0.0696
  612ERGO    R5 6904  16.093  14.217   7.113  0.2099 -0.1603  0.0321
  612ERGO    C1 6905  16.046  14.215   7.492  0.1093  0.0421  0.0227
  612ERGO    C2 6906  15.966  14.271   7.772  0.0567  0.0331  0.1071
  613ERGO   ROH 6907   9.920   3.578   6.502  0.2293 -0.0732 -0.0410
  613ERGO    R1 6908   9.993   3.418   6.724  0.1813 -0.0574 -0.0136
  613ERGO    R2 6909   9.920   3.481   6.983  0.1452 -0.0258 -0.0300
  613ERGO    R3 6910   9.819   3.228   6.981  0.1245 -0.0174 -0.0229
  613ERGO    R4 6911   9.850   3.294   7.265  0.2268 -0.0543 -0.0282
  613ERGO    R5 6912   9.930   3.119   7.164  0.1771 -0.0479 -0.0745
  613ERGO    C1 6913   9.714   2.949   7.428  0.2550 -0.0631 -0.0205
  613ERGO    C2 6914   9.677   2.588   7.652 -0.2545 -0.0591  0.2003
  614ERGO   ROH 6915   6.918  17.767   9.171 -0.0047 -0.0145 -0.1203
  614ERGO    R1 6916   6.789  17.789   8.921  0.0355  0.1038 -0.1308
  614ERGO    R2 6917   6.894  17.935   8.711  0.1612  0.0483 -0.1034
  614ERGO    R3 6918   6.864  17.701   8.576  0.0050  0.0838 -0.1335
  614ERGO    R4 6919   6.857  17.906   8.368  0.2423  0.1184 -0.1189
  614ERGO    R5 6920   6.708  17.751   8.402  0.0973  0.2364 -0.1778
  614ERGO    C1 6921   6.807  17.670   8.042  0.1429  0.1925 -0.1560
  614ERGO    C2 6922   6.794  17.643   7.633  0.2831  0.1323 -0.0072
  615ERGO   ROH 6923  10.005   2.724   6.075  0.0217 -0.0804  0.0618
  615ERGO    R1 6924  10.024   2.623   6.339  0.1001  0.0437  0.1051
  615ERGO    R2 6925  10.142   2.380   6.397 -0.1013 -0.0472  0.1536
  615ERGO    R3 6926  10.291   2.530   6.569  0.1679 -0.0976 -0.0302
  615ERGO    R4 6927  10.229   2.285   6.718 -0.1942  0.1522  0.2397
  615ERGO    R5 6928  10.192   2.490   6.783  0.1407  0.2838  0.0335
  615ERGO    C1 6929  10.419   2.370   7.065  0.0045  0.2210  0.1173
  615ERGO    C2 6930  10.514   2.424   7.450  0.0556  0.1486 -0.0895
  616ERGO   ROH 6931  10.893  16.931   9.209 -0.2606  0.2191 -0.1462
  616ERGO    R1 6932  11.025  17.058   8.993 -0.1420  0.0966 -0.1473
  616ERGO    R2 6933  11.287  17.002   8.925 -0.1212  0.0168 -0.0056
  616ERGO    R3 6934  11.178  16.955   8.680 -0.0214 -0.0751 -0.0339
  616ERGO    R4 6935  11.467  16.957   8.633 -0.0063  0.0858  0.0536
  616ERGO    R5 6936  11.318  17.076   8.528 -0.0444 -0.0115 -0.0055
  616ERGO    C1 6937  11.470  16.887   8.234  0.1544  0.0397  0.0616
  616ERGO    C2 6938  11.404  16.690   7.981 -0.0615  0.0481 -0.2492
  617ERGO   ROH 6939  12.610  10.306  10.304 -0.0200 -0.4887 -0.1120
  617ERGO    R1 6940  12.500  10.490  10.118 -0.1054 -0.2957  0.1237
  617ERGO    R2 6941  12.557  10.480   9.848 -0.0302  0.1367  0.1171
  617ERGO    R3 6942  12.286  10.472   9.824 -0.0189 -0.0259  0.0420
  617ERGO    R4 6943  12.384  10.506   9.550  0.0297  0.2859  0.0944
  617ERGO    R5 6944  12.237  10.630   9.651 -0.0811  0.0961  0.1703
  617ERGO    C1 6945  12.029  10.512   9.354  0.0751  0.2200  0.0108
  617ERGO    C2 6946  11.769  10.429   9.052  0.0365  0.1470  0.3784
  618ERGO   ROH 6947  12.107   8.986   7.190 -0.0653 -0.2216  0.0590
  618ERGO    R1 6948  12.084   8.935   7.468 -0.0551 -0.0397  0.0943
  618ERGO    R2 6949  12.286   8.993   7.647  0.0124 -0.0638  0.0275
  618ERGO    R3 6950  12.090   9.132   7.774  0.1227  0.1421 -0.0240
  618ERGO    R4 6951  12.301   9.102   7.975  0.0548 -0.0456  0.0194
  618ERGO    R5 6952  12.091   9.047   7.998 -0.0048  0.1621 -0.0152
  618ERGO    C1 6953  12.126   9.296   8.284  0.1831  0.1584 -0.0336
  618ERGO    C2 6954  11.999   9.402   8.594 -0.1228  0.0022  0.2449
  619ERGO   ROH 6955  10.703  17.723   6.148  0.0888 -0.0272 -0.0286
  619ERGO    R1 6956  10.939  17.671   6.295  0.2455  0.1299 -0.2154
  619ERGO    R2 6957  11.131  17.865   6.342  0.0095  0.3552 -0.0994
  619ERGO    R3 6958  11.092  17.795   6.602  0.2300 -0.0019 -0.1576
  619ERGO    R4 6959  11.349  17.936   6.600 -0.0194  0.4330 -0.0976
  619ERGO    R5 6960  11.311  17.737   6.681  0.3531  0.2799 -0.3032
  619ERGO    C1 6961  11.439  17.912   6.995  0.1708  0.1427 -0.1512
  619ERGO    C2 6962  11.452  18.036   7.210 -0.0943  0.1052 -0.0398
  620ERGO   ROH 6963  16.635  14.894   6.769 -0.1007 -0.1016  0.0810
  620ERGO    R1 6964  16.751  14.991   7.008 -0.0342 -0.2919  0.1267
  620ERGO    R2 6965  16.656  15.215   7.139  0.3235 -0.0886  0.0440
  620ERGO    R3 6966  16.643  15.045   7.351 -0.1106 -0.0408  0.0670
  620ERGO    R4 6967  16.737  15.299   7.464  0.1299 -0.1366  0.1070
  620ERGO    R5 6968  16.832  15.104   7.486 -0.1500 -0.2707  0.2361
  620ERGO    C1 6969  16.772  15.189   7.853 -0.3901 -0.1195  0.1653
  620ERGO    C2 6970  16.819  15.340   8.129  0.3379 -0.1723  0.0434
  621ERGO   ROH 6971   4.542  11.949   7.060 -0.0652  0.1084  0.0176
  621ERGO    R1 6972   4.407  12.030   7.295 -0.0632  0.1421  0.0085
  621ERGO    R2 6973   4.397  11.872   7.522 -0.1404  0.1319  0.0032
  621ERGO    R3 6974   4.496  12.095   7.642 -0.0748  0.0927  0.0198
  621ERGO    R4 6975   4.415  11.920   7.864 -0.0641  0.0782  0.0059
  621ERGO    R5 6976   4.354  12.127   7.833 -0.0288  0.0918  0.0510
  621ERGO    C1 6977   4.519  12.157   8.176  0.0419  0.0100  0.0232
  621ERGO    C2 6978   4.615  11.903   8.356  0.0052  0.1232 -0.2156
  622ERGO   ROH 6979  11.556  12.437  10.122  0.0149  0.3205  0.1730
  622ERGO    R1 6980  11.539  12.598   9.890 -0.2969  0.2578  0.1479
  622ERGO    R2 6981  11.716  12.574   9.679 -0.2142  0.5965  0.1717
  622ERGO    R3 6982  11.488  12.543   9.534 -0.1443  0.0956  0.1501
  622ERGO    R4 6983  11.700  12.571   9.334 -0.1506  0.2386  0.1680
  622ERGO    R5 6984  11.517  12.688   9.346 -0.3417 -0.0365  0.0158
  622ERGO    C1 6985  11.477  12.540   8.997 -0.0479 -0.4399  0.1456
  622ERGO    C2 6986  11.359  12.642   8.654  0.1956 -0.0893  0.3718
  623ERGO   ROH 6987   6.297   6.592   6.861  0.1312 -0.0263  0.0212
  623ERGO    R1 6988   6.503   6.665   7.041  0.1055  0.0156  0.0334
  623ERGO    R2 6989   6.463   6.842   7.249  0.0391 -0.0465  0.0719
  623ERGO    R3 6990   6.564   6.638   7.399  0.1231 -0.0389  0.0269
  623ERGO    R4 6991   6.568   6.871   7.577 -0.0472 -0.0903  0.1039
  623ERGO    R5 6992   6.736   6.740   7.530  0.0385  0.0190  0.0961
  623ERGO    C1 6993   6.723   6.696   7.909 -0.0186 -0.1086  0.0801
  623ERGO    C2 6994   6.776   6.691   8.244 -0.2861 -0.0632  0.1959
  624ERGO   ROH 6995   5.456   1.743   9.963  0.0483  0.1167  0.1167
  624ERGO    R1 6996   5.456   1.738   9.680  0.0895  0.0650  0.1177
  624ERGO    R2 6997   5.267   1.598   9.534  0.2043 -0.0907  0.1179
  624ERGO    R3 6998   5.229   1.839   9.414  0.0548 -0.1378  0.0681
  624ERGO    R4 6999   5.202   1.643   9.197  0.0692 -0.2065  0.1272
  624ERGO    R5 7000   5.334   1.817   9.200 -0.0072 -0.1452  0.0376
  624ERGO    C1 7001   5.128   1.896   8.889 -0.1498 -0.3181  0.0858
  624ERGO    C2 7002   5.004   2.078   8.635 -0.1288  0.1309 -0.0535
  625ERGO   ROH 7003  10.506   7.172  10.025 -0.0893 -0.0013 -0.1352
  625ERGO    R1 7004  10.581   7.249   9.763 -0.2545 -0.0896 -0.2100
  625ERGO    R2 7005  10.836   7.211   9.664 -0.1857  0.2872 -0.1967
  625ERGO    R3 7006  10.705   7.082   9.464  0.0201 -0.1330 -0.0743
  625ERGO    R4 7007  10.888   7.264   9.327 -0.2551  0.0027 -0.2552
  625ERGO    R5 7008  10.673   7.250   9.296 -0.2319 -0.3608 -0.2584
  625ERGO    C1 7009  10.794   7.175   8.942 -0.1024 -0.5575 -0.1744
  625ERGO    C2 7010  10.673   7.244   8.618 -0.0324  0.0294 -0.0375
  626ERGO   ROH 7011  10.419  12.536   6.931 -0.1496 -0.1069 -0.1404
  626ERGO    R1 7012  10.416  12.645   7.193 -0.1070 -0.0307 -0.1726
  626ERGO    R2 7013  10.194  12.772   7.298 -0.1321 -0.1255 -0.1272
  626ERGO    R3 7014  10.226  12.592   7.499  0.0446 -0.0424 -0.0774
  626ERGO    R4 7015  10.077  12.813   7.621 -0.2367 -0.1668 -0.1587
  626ERGO    R5 7016  10.263  12.726   7.694 -0.1391  0.0608 -0.1044
  626ERGO    C1 7017  10.039  12.667   7.997 -0.1318 -0.1128 -0.1302
  626ERGO    C2 7018  10.040  12.621   8.346 -0.0816  0.1287  0.0018
  627ERGO   ROH 7019  11.850   5.746   9.754  0.0324 -0.1916  0.1344
  627ERGO    R1 7020  11.888   5.579   9.528 -0.0920 -0.1121  0.0545
  627ERGO    R2 7021  11.679   5.446   9.405 -0.1890  0.0973 -0.0038
  627ERGO    R3 7022  11.773   5.572   9.183 -0.1040  0.1325  0.0510
  627ERGO    R4 7023  11.630   5.339   9.080  0.1044  0.0315 -0.0293
  627ERGO    R5 7024  11.836   5.395   9.035  0.1080  0.1502  0.1122
  627ERGO    C1 7025  11.691   5.394   8.683  0.3550  0.0262  0.0073
  627ERGO    C2 7026  11.782   5.270   8.364 -0.2028 -0.2308  0.0924
  628ERGO   ROH 7027   8.616  15.703   9.337  0.0912  0.0162 -0.0796
  628ERGO    R1 7028   8.765  15.604   9.118  0.0373  0.1290 -0.1679
  628ERGO    R2 7029   8.689  15.380   8.974  0.1638  0.0240 -0.0688
  628ERGO    R3 7030   8.709  15.549   8.762 -0.1606  0.0039 -0.1196
  628ERGO    R4 7031   8.683  15.282   8.643  0.3651 -0.1027 -0.0371
  628ERGO    R5 7032   8.839  15.428   8.602  0.0885  0.2011 -0.0757
  628ERGO    C1 7033   8.697  15.384   8.251  0.1775 -0.1953 -0.0664
  628ERGO    C2 7034   8.560  15.467   7.962  0.2480  0.1319  0.4233
  629ERGO   ROH 7035   5.811   8.043  10.274 -0.1847  0.1150  0.1010
  629ERGO    R1 7036   5.786   8.110  10.000 -0.0898  0.1161  0.0919
  629ERGO    R2 7037   6.002   8.113   9.828 -0.0178  0.1744  0.1780
  629ERGO    R3 7038   5.845   7.945   9.681  0.0823  0.1380  0.1126
  629ERGO    R4 7039   5.979   8.115   9.483  0.1975  0.0989  0.1619
  629ERGO    R5 7040   5.764   8.081   9.502  0.1889  0.0939  0.0326
  629ERGO    C1 7041   5.818   7.958   9.145  0.4169  0.0208  0.0912
  629ERGO    C2 7042   6.039   7.661   8.928 -0.1592 -0.0969 -0.0413
  630ERGO   ROH 7043  16.543  17.077   6.641 -0.0135  0.0483  0.0920
  630ERGO    R1 7044  16.597  17.138   6.912 -0.0476  0.1137  0.0843
  630ERGO    R2 7045  16.420  17.280   7.070 -0.1600 -0.0251  0.0860
  630ERGO    R3 7046  16.445  17.065   7.235  0.0348  0.0058  0.0993
  630ERGO    R4 7047  16.283  17.257   7.387 -0.1271 -0.1231  0.0931
  630ERGO    R5 7048  16.467  17.160   7.454 -0.0382  0.0405  0.0919
  630ERGO    C1 7049  16.227  17.041   7.726  0.0748 -0.1512  0.1097
  630ERGO    C2 7050  16.030  17.249   7.887 -0.2880 -0.0820  0.2251
  631ERGO   ROH 7051   6.290   2.254   5.928 -0.0620  0.1167 -0.0127
  631ERGO    R1 7052   6.260   2.297   6.206  0.0705  0.1895 -0.0089
  631ERGO    R2 7053   6.175   2.099   6.379 -0.0607  0.2941  0.0515
  631ERGO    R3 7054   6.404   2.162   6.511  0.0456  0.1001 -0.0377
  631ERGO    R4 7055   6.251   1.998   6.700  0.0477  0.1235 -0.0263
  631ERGO    R5 7056   6.335   2.196   6.738  0.1869  0.0544  0.0106
  631ERGO    C1 7057   6.511   1.998   7.012  0.2105 -0.1579 -0.1555
  631ERGO    C2 7058   6.770   1.847   7.354 -0.2506 -0.0996  0.0162
  632ERGO   ROH 7059   9.063   2.265   5.876  0.1653  0.0712 -0.0059
  632ERGO    R1 7060   9.049   2.112   6.114  0.0699  0.0660 -0.0140
  632ERGO    R2 7061   9.249   1.937   6.190  0.0421  0.0666  0.0654
  632ERGO    R3 7062   9.243   2.081   6.420 -0.0548  0.0630  0.0651
  632ERGO    R4 7063   9.378   1.831   6.493 -0.0687  0.0704  0.1140
  632ERGO    R5 7064   9.204   1.919   6.591 -0.1114  0.0592  0.0480
  632ERGO    C1 7065   9.447   1.905   6.885 -0.2243  0.0694  0.1419
  632ERGO    C2 7066   9.633   1.906   7.277  0.0955  0.0366  0.2909
  633ERGO   ROH 7067  10.422  13.525   9.914 -0.2020 -0.0103  0.0483
  633ERGO    R1 7068  10.376  13.332   9.712 -0.1761 -0.0101  0.0422
  633ERGO    R2 7069  10.142  13.322   9.565 -0.1297  0.0329 -0.0352
  633ERGO    R3 7070  10.313  13.334   9.354 -0.0567 -0.0133  0.0208
  633ERGO    R4 7071  10.046  13.335   9.233 -0.0171  0.1103 -0.0656
  633ERGO    R5 7072  10.209  13.199   9.186 -0.0581  0.0487 -0.0281
  633ERGO    C1 7073  10.150  13.353   8.842  0.1170  0.1119 -0.0305
  633ERGO    C2 7074  10.067  13.417   8.471  0.0848  0.1573 -0.0263
  634ERGO   ROH 7075   0.648  16.807   6.847 -0.1910 -0.1101  0.0784
  634ERGO    R1 7076   0.732  16.884   7.105 -0.1018 -0.0238  0.0246
  634ERGO    R2 7077   0.595  16.812   7.334 -0.0102  0.0308  0.0989
  634ERGO    R3 7078   0.838  16.715   7.410  0.0280  0.0774  0.0363
  634ERGO    R4 7079   0.691  16.755   7.661  0.0390 -0.0761  0.0660
  634ERGO    R5 7080   0.888  16.834   7.612  0.0081  0.0082  0.0814
  634ERGO    C1 7081   0.974  16.631   7.923  0.1035 -0.0949 -0.0118
  634ERGO    C2 7082   0.842  16.443   8.249  0.1286 -0.1567 -0.1998
  635ERGO   ROH 7083   1.755   1.417  10.023  0.0684  0.1088 -0.0556
  635ERGO    R1 7084   1.647   1.449   9.764  0.1419  0.0170 -0.0980
  635ERGO    R2 7085   1.804   1.446   9.536  0.2042 -0.0868 -0.0556
  635ERGO    R3 7086   1.631   1.251   9.458  0.2075 -0.1017 -0.0252
  635ERGO    R4 7087   1.657   1.425   9.224  0.2264 -0.1574 -0.0613
  635ERGO    R5 7088   1.471   1.365   9.320  0.2194 -0.1327 -0.0627
  635ERGO    C1 7089   1.409   1.229   8.969  0.2425 -0.2125 -0.0361
  635ERGO    C2 7090   1.392   1.140   8.700  0.4329 -0.0240 -0.1584
  636ERGO   ROH 7091   9.149   7.889   9.959 -0.2170 -0.2226 -0.0553
  636ERGO    R1 7092   9.065   7.795   9.705 -0.2461 -0.1145 -0.0878
  636ERGO    R2 7093   8.989   7.966   9.501 -0.2062 -0.0204 -0.0350
  636ERGO    R3 7094   9.177   7.829   9.361 -0.2392 -0.0227 -0.0745
  636ERGO    R4 7095   9.008   7.951   9.156 -0.2372  0.0105 -0.0371
  636ERGO    R5 7096   9.059   7.740   9.173 -0.2597  0.0116 -0.0697
  636ERGO    C1 7097   9.195   7.812   8.824 -0.2864  0.0264 -0.0753
  636ERGO    C2 7098   9.126   7.948   8.507 -0.0476 -0.0905  0.5079
  637ERGO   ROH 7099  12.593  11.135  10.400  0.0899  0.2792 -0.2374
  637ERGO    R1 7100  12.618  11.132  10.118  0.0305  0.0046 -0.2425
  637ERGO    R2 7101  12.675  10.902   9.975 -0.2612 -0.1885 -0.0554
  637ERGO    R3 7102  12.449  10.969   9.840 -0.2133 -0.0490 -0.0669
  637ERGO    R4 7103  12.641  10.899   9.631 -0.2704 -0.2481 -0.0546
  637ERGO    R5 7104  12.528  11.084   9.645 -0.1293 -0.1565 -0.0974
  637ERGO    C1 7105  12.410  10.961   9.304 -0.2308 -0.1518 -0.0647
  637ERGO    C2 7106  12.378  10.755   9.100  0.4997 -0.2165 -0.0083
  638ERGO   ROH 7107  16.949  10.312  10.028  0.1123  0.0533  0.1922
  638ERGO    R1 7108  17.182  10.298   9.867  0.1354  0.0872  0.2224
  638ERGO    R2 7109  17.425  10.212   9.964  0.0658 -0.1665  0.1799
  638ERGO    R3 7110  17.411  10.038   9.755 -0.0000  0.0653 -0.0127
  638ERGO    R4 7111  17.696  10.046   9.826 -0.0091 -0.1955  0.0667
  638ERGO    R5 7112  17.610  10.081   9.629  0.0583  0.0739  0.0807
  638ERGO    C1 7113  17.840   9.787   9.550 -0.1143  0.0054 -0.1801
  638ERGO    C2 7114  17.898   9.526   9.404  0.1003 -0.1339  0.1695
  639ERGO   ROH 7115   7.441  10.860   7.031 -0.0748 -0.0352 -0.0977
  639ERGO    R1 7116   7.300  10.821   7.273 -0.0613  0.0525 -0.0757
  639ERGO    R2 7117   7.321  10.590   7.423 -0.0953  0.0835 -0.0215
  639ERGO    R3 7118   7.384  10.764   7.623 -0.0415  0.1197 -0.0697
  639ERGO    R4 7119   7.224  10.556   7.753  0.0610  0.1055  0.0277
  639ERGO    R5 7120   7.188  10.771   7.760  0.0203  0.0972  0.0183
  639ERGO    C1 7121   7.227  10.698   8.133  0.2026  0.1525  0.0112
  639ERGO    C2 7122   7.106  10.520   8.513  0.1780  0.0169  0.1044
  640ERGO   ROH 7123  13.488  14.604   6.581 -0.2449 -0.1240  0.0605
  640ERGO    R1 7124  13.646  14.723   6.784 -0.2575 -0.1406  0.0789
  640ERGO    R2 7125  13.608  14.669   7.052 -0.1252 -0.3396  0.0567
  640ERGO    R3 7126  13.872  14.606   7.045 -0.0798 -0.1452 -0.0737
  640ERGO    R4 7127  13.824  14.691   7.321 -0.0383 -0.2895 -0.0159
  640ERGO    R5 7128  13.976  14.769   7.186 -0.1444 -0.1223 -0.0475
  640ERGO    C1 7129  14.199  14.644   7.470  0.0550 -0.0779 -0.1805
  640ERGO    C2 7130  14.466  14.733   7.741 -0.0058  0.1163 -0.0808
  641ERGO   ROH 7131   9.408  13.472   9.909  0.3150  0.1110 -0.0371
  641ERGO    R1 7132   9.478  13.459   9.636  0.2670  0.1132 -0.0503
  641ERGO    R2 7133   9.581  13.231   9.519  0.1821  0.0914 -0.0875
  641ERGO    R3 7134   9.375  13.267   9.344  0.1630  0.1668 -0.0488
  641ERGO    R4 7135   9.586  13.139   9.185  0.0287 -0.0558 -0.0503
  641ERGO    R5 7136   9.482  13.325   9.138  0.1522  0.0003 -0.1018
  641ERGO    C1 7137   9.396  13.120   8.828 -0.0785 -0.0708  0.0076
  641ERGO    C2 7138   9.222  12.946   8.515  0.1434  0.0920  0.3731
  642ERGO   ROH 7139  13.194  12.471   9.765 -0.0521 -0.0058 -0.0811
  642ERGO    R1 7140  13.205  12.571   9.500 -0.1630  0.0210 -0.0758
  642ERGO    R2 7141  13.438  12.574   9.352 -0.2001  0.1419 -0.1319
  642ERGO    R3 7142  13.286  12.439   9.171 -0.1811  0.0859 -0.1066
  642ERGO    R4 7143  13.533  12.504   9.027 -0.1432 -0.0065 -0.0843
  642ERGO    R5 7144  13.330  12.549   8.963 -0.1246 -0.0065 -0.1445
  642ERGO    C1 7145  13.447  12.337   8.668 -0.0922 -0.1455 -0.0328
  642ERGO    C2 7146  13.578  12.268   8.323 -0.0413 -0.0692  0.0020
  643ERGO   ROH 7147   1.375  10.165   9.907 -0.1203 -0.1774 -0.0292
  643ERGO    R1 7148   1.572  10.238   9.716 -0.0566 -0.1318  0.0531
  643ERGO    R2 7149   1.551  10.171   9.449  0.0759 -0.1448  0.0454
  643ERGO    R3 7150   1.584  10.439   9.413  0.0218 -0.1372  0.0525
  643ERGO    R4 7151   1.569  10.328   9.142  0.1313 -0.1453  0.0484
  643ERGO    R5 7152   1.727  10.456   9.221  0.0764 -0.1054  0.0955
  643ERGO    C1 7153   1.610  10.671   8.929  0.1127 -0.1383  0.0569
  643ERGO    C2 7154   1.522  10.958   8.814  0.4121  0.2888 -0.0911
  644ERGO   ROH 7155   1.996  14.120   9.923  0.0347  0.1398  0.0558
  644ERGO    R1 7156   1.943  14.202   9.657  0.1102  0.1493  0.0437
  644ERGO    R2 7157   2.143  14.232   9.469  0.1468  0.0047  0.0581
  644ERGO    R3 7158   1.987  14.062   9.324  0.0505  0.0903  0.0604
  644ERGO    R4 7159   2.202  14.140   9.141  0.1311 -0.0838  0.0798
  644ERGO    R5 7160   1.988  14.154   9.103  0.1457  0.0581  0.0471
  644ERGO    C1 7161   2.091  13.927   8.814  0.0316 -0.0550  0.0946
  644ERGO    C2 7162   2.143  14.065   8.570  0.2077  0.0253  0.0056
  645ERGO   ROH 7163   6.115   6.869  10.250  0.3769  0.1853  0.1215
  645ERGO    R1 7164   6.021   6.970  10.003  0.1233 -0.0375  0.1225
  645ERGO    R2 7165   6.168   7.144   9.848 -0.2243  0.1881  0.0340
  645ERGO    R3 7166   6.127   6.957   9.655  0.0442  0.0612  0.0946
  645ERGO    R4 7167   6.216   7.195   9.509 -0.0832  0.0713  0.0350
  645ERGO    R5 7168   6.034   7.080   9.472  0.0367 -0.1038 -0.0136
  645ERGO    C1 7169   6.204   7.049   9.131  0.2510 -0.1159  0.0924
  645ERGO    C2 7170   6.244   7.204   8.890 -0.0607 -0.0488 -0.1568
  646ERGO   ROH 7171  10.180   5.377   9.706  0.1150  0.0619 -0.0367
  646ERGO    R1 7172  10.289   5.419   9.448  0.2149  0.1052  0.0123
  646ERGO    R2 7173  10.133   5.465   9.225  0.2907 -0.0321 -0.0728
  646ERGO    R3 7174  10.290   5.685   9.200  0.1512  0.0755 -0.0191
  646ERGO    R4 7175  10.177   5.644   8.933  0.1212  0.1203 -0.0076
  646ERGO    R5 7176  10.388   5.664   8.983  0.1181  0.2285 -0.0482
  646ERGO    C1 7177  10.350   5.954   8.739 -0.1085  0.3100  0.0808
  646ERGO    C2 7178  10.114   6.125   8.574  0.0496  0.0269  0.1728
  647ERGO   ROH 7179  14.194  12.284  10.008  0.1607  0.0153  0.0931
  647ERGO    R1 7180  14.201  12.285   9.725  0.1014 -0.1824  0.0911
  647ERGO    R2 7181  14.224  12.517   9.578 -0.0038 -0.2850 -0.0736
  647ERGO    R3 7182  14.436  12.387   9.467  0.0132 -0.2911 -0.0378
  647ERGO    R4 7183  14.365  12.594   9.272  0.1769 -0.1303  0.0444
  647ERGO    R5 7184  14.386  12.380   9.233  0.1245 -0.1254 -0.0765
  647ERGO    C1 7185  14.645  12.517   8.989  0.2983 -0.0460  0.1468
  647ERGO    C2 7186  14.730  12.428   8.632  0.2556  0.0849 -0.1431
  648ERGO   ROH 7187  16.388   1.046   6.726 -0.1029  0.0972  0.0641
  648ERGO    R1 7188  16.307   1.186   6.958  0.0340  0.1418  0.0875
  648ERGO    R2 7189  16.196   1.060   7.177 -0.2173  0.2250  0.0202
  648ERGO    R3 7190  16.396   1.187   7.311 -0.0602 -0.1091  0.1124
  648ERGO    R4 7191  16.157   1.227   7.477 -0.1173  0.4620 -0.0972
  648ERGO    R5 7192  16.290   1.383   7.402  0.2620  0.1565 -0.0715
  648ERGO    C1 7193  16.321   1.444   7.777  0.0885  0.2863 -0.0788
  648ERGO    C2 7194  16.337   1.667   8.058  0.0696 -0.0559  0.0023
  649ERGO   ROH 7195  18.096   8.049  10.140  0.0087  0.0095  0.0910
  649ERGO    R1 7196  18.308   7.988   9.962  0.0528  0.0337  0.1351
  649ERGO    R2 7197  18.267   7.866   9.718  0.1363 -0.1468  0.2096
  649ERGO    R3 7198  18.405   8.081   9.624  0.0016 -0.1155  0.0785
  649ERGO    R4 7199  18.472   7.863   9.440 -0.0070 -0.1392  0.1025
  649ERGO    R5 7200  18.613   7.989   9.548 -0.0003 -0.0525 -0.0050
  649ERGO    C1 7201  18.721   8.062   9.189 -0.2169 -0.1056 -0.0828
  649ERGO    C2 7202  18.624   7.877   8.897 -0.0478 -0.1000  0.1113
  650ERGO   ROH 7203   7.242   8.727  10.085  0.1535 -0.3447  0.1376
  650ERGO    R1 7204   7.301   8.854   9.839  0.0790 -0.1817  0.2023
  650ERGO    R2 7205   7.534   8.805   9.698  0.0672 -0.0369  0.1337
  650ERGO    R3 7206   7.361   8.749   9.495  0.0493  0.0401  0.1273
  650ERGO    R4 7207   7.625   8.760   9.368  0.0633 -0.0639  0.1364
  650ERGO    R5 7208   7.448   8.871   9.308  0.1084  0.0125  0.1340
  650ERGO    C1 7209   7.517   8.681   8.985  0.0441 -0.0073  0.1319
  650ERGO    C2 7210   7.555   8.576   8.622  0.2259 -0.0442  0.3682
  651ERGO   ROH 7211  11.391   4.875   9.701 -0.0231  0.0301 -0.0680
  651ERGO    R1 7212  11.384   5.083   9.509 -0.0885  0.0153 -0.0822
  651ERGO    R2 7213  11.365   5.034   9.238 -0.1414 -0.0069 -0.0751
  651ERGO    R3 7214  11.152   5.202   9.255 -0.1571 -0.0306 -0.0409
  651ERGO    R4 7215  11.195   5.165   8.967 -0.2106 -0.0387 -0.0471
  651ERGO    R5 7216  11.182   5.355   9.074 -0.2112 -0.0356 -0.0537
  651ERGO    C1 7217  10.895   5.399   8.826 -0.2658 -0.0794  0.0015
  651ERGO    C2 7218  10.773   5.546   8.493  0.2447 -0.5668  0.3230
  652ERGO   ROH 7219   8.693   5.880   6.549  0.0835 -0.1024 -0.0179
  652ERGO    R1 7220   8.715   5.974   6.815  0.1760 -0.1076 -0.0217
  652ERGO    R2 7221   8.495   6.006   6.980  0.1804  0.2428 -0.0600
  652ERGO    R3 7222   8.639   5.847   7.147 -0.0850  0.0311 -0.0291
  652ERGO    R4 7223   8.443   5.978   7.320  0.1472  0.3829 -0.0537
  652ERGO    R5 7224   8.658   5.974   7.349  0.1351  0.0259 -0.0551
  652ERGO    C1 7225   8.547   5.812   7.676 -0.1211  0.2657 -0.0211
  652ERGO    C2 7226   8.601   5.634   7.936  0.1006  0.2082 -0.1467
  653ERGO   ROH 7227  12.221   0.794   9.113 -0.0175  0.0452 -0.0236
  653ERGO    R1 7228  12.158   0.819   8.839  0.0135  0.0069 -0.0339
  653ERGO    R2 7229  12.207   0.617   8.656 -0.0441 -0.0501  0.0166
  653ERGO    R3 7230  11.943   0.646   8.600 -0.0292  0.0318 -0.0147
  653ERGO    R4 7231  12.048   0.482   8.381 -0.0319  0.0660 -0.0487
  653ERGO    R5 7232  11.935   0.667   8.362  0.0154  0.1027 -0.0126
  653ERGO    C1 7233  11.707   0.430   8.169 -0.0107  0.2104 -0.1161
  653ERGO    C2 7234  11.660   0.198   7.854 -0.0896 -0.1509 -0.1991
  654ERGO   ROH 7235   6.283   1.435   9.186  0.0469  0.1076  0.1254
  654ERGO    R1 7236   6.138   1.546   8.970 -0.0004 -0.1058  0.0445
  654ERGO    R2 7237   6.204   1.789   8.856 -0.2770 -0.0187  0.0650
  654ERGO    R3 7238   6.208   1.643   8.626  0.0408 -0.0300  0.0737
  654ERGO    R4 7239   6.125   1.911   8.542 -0.0675 -0.0881 -0.0167
  654ERGO    R5 7240   6.021   1.724   8.501  0.0993 -0.1648 -0.1064
  654ERGO    C1 7241   6.082   1.845   8.144  0.3529 -0.1391 -0.0560
  654ERGO    C2 7242   5.966   2.072   7.820 -0.1153  0.1774  0.3256
  655ERGO   ROH 7243  11.849   3.733   6.339  0.1710  0.1425  0.0810
  655ERGO    R1 7244  11.960   3.684   6.595 -0.0129 -0.1225  0.1143
  655ERGO    R2 7245  11.910   3.847   6.812  0.1627 -0.1086  0.1420
  655ERGO    R3 7246  11.835   3.614   6.929 -0.2690 -0.0257  0.0413
  655ERGO    R4 7247  11.838   3.810   7.148  0.5907 -0.1991  0.2308
  655ERGO    R5 7248  11.942   3.618   7.144  0.0932 -0.4876 -0.1099
  655ERGO    C1 7249  11.725   3.570   7.453  0.4345 -0.1740  0.1879
  655ERGO    C2 7250  11.545   3.652   7.684  0.1022 -0.0770  0.2311
  656ERGO   ROH 7251   7.679   2.617   6.305  0.1671  0.1097  0.0023
  656ERGO    R1 7252   7.840   2.502   6.507  0.0812  0.0522  0.0388
  656ERGO    R2 7253   8.013   2.651   6.663  0.0557 -0.0003  0.1183
  656ERGO    R3 7254   7.876   2.536   6.868 -0.0315 -0.0077  0.0564
  656ERGO    R4 7255   8.106   2.665   6.995 -0.0794 -0.0186  0.1575
  656ERGO    R5 7256   8.046   2.456   7.016 -0.0929 -0.0188  0.1223
  656ERGO    C1 7257   8.033   2.564   7.381 -0.2399 -0.0361  0.1222
  656ERGO    C2 7258   7.828   2.742   7.670  0.1697 -0.2563 -0.0002
  657ERGO   ROH 7259  17.138  11.516   7.252  0.0120  0.3330 -0.0406
  657ERGO    R1 7260  17.198  11.604   7.514 -0.0834  0.1195  0.0549
  657ERGO    R2 7261  17.084  11.491   7.739 -0.0664 -0.1519 -0.0706
  657ERGO    R3 7262  17.343  11.459   7.815 -0.0639 -0.0876 -0.0522
  657ERGO    R4 7263  17.225  11.632   8.021 -0.1244 -0.1265 -0.0540
  657ERGO    R5 7264  17.404  11.673   7.905 -0.1260 -0.0750 -0.0388
  657ERGO    C1 7265  17.550  11.684   8.257 -0.1554 -0.0514 -0.0272
  657ERGO    C2 7266  17.615  11.869   8.495  0.2226  0.0373 -0.0633
  658ERGO   ROH 7267   5.011   5.146  10.047  0.1863 -0.0084 -0.1054
  658ERGO    R1 7268   4.803   5.270   9.899  0.1754  0.1446  0.0357
  658ERGO    R2 7269   4.823   5.527   9.800  0.3755  0.0643 -0.1330
  658ERGO    R3 7270   4.762   5.407   9.565 -0.0079 -0.0054 -0.0059
  658ERGO    R4 7271   4.684   5.687   9.528  0.4051  0.1069 -0.1237
  658ERGO    R5 7272   4.558   5.512   9.496  0.0947  0.2751  0.0953
  658ERGO    C1 7273   4.545   5.667   9.148  0.0626  0.0664  0.0010
  658ERGO    C2 7274   4.573   5.709   8.877 -0.0806  0.0532  0.2643
  659ERGO   ROH 7275   0.899  11.334   6.827  0.0328  0.4274  0.0306
  659ERGO    R1 7276   0.870  11.437   7.089 -0.3345  0.1319  0.1167
  659ERGO    R2 7277   0.728  11.306   7.286 -0.0191 -0.4603 -0.0151
  659ERGO    R3 7278   0.959  11.334   7.426 -0.1093  0.0918  0.0436
  659ERGO    R4 7279   0.765  11.233   7.622  0.1303 -0.5492 -0.0513
  659ERGO    R5 7280   0.889  11.411   7.642 -0.3565 -0.2188  0.0731
  659ERGO    C1 7281   1.004  11.216   7.949  0.1326 -0.0829 -0.0173
  659ERGO    C2 7282   1.191  11.053   8.148 -0.0749 -0.2949  0.0887
  660ERGO   ROH 7283   0.730  12.163   9.916  0.1124  0.2525 -0.2443
  660ERGO    R1 7284   0.830  11.958   9.748  0.0086  0.0335 -0.0447
  660ERGO    R2 7285   0.670  11.753   9.653 -0.1482  0.1413 -0.0181
  660ERGO    R3 7286   0.764  11.837   9.411  0.1077 -0.1135 -0.0121
  660ERGO    R4 7287   0.601  11.601   9.350 -0.2087  0.0896  0.0216
  660ERGO    R5 7288   0.808  11.634   9.291 -0.1226 -0.2431  0.1141
  660ERGO    C1 7289   0.649  11.591   8.948 -0.0037 -0.1796  0.0503
  660ERGO    C2 7290   0.719  11.517   8.568 -0.1417  0.1600  0.2800
  661ERGO   ROH 7291   9.276   9.378  10.484 -0.0411 -0.1571  0.0184
  661ERGO    R1 7292   9.348   9.445  10.219  0.1074 -0.1981  0.0500
  661ERGO    R2 7293   9.470   9.266  10.047 -0.2893 -0.3933 -0.0178
  661ERGO    R3 7294   9.262   9.331   9.884 -0.1490  0.1363 -0.0088
  661ERGO    R4 7295   9.474   9.243   9.702 -0.2963 -0.2924 -0.0265
  661ERGO    R5 7296   9.365   9.432   9.693  0.1145 -0.0196  0.0308
  661ERGO    C1 7297   9.281   9.291   9.349 -0.1686  0.2634 -0.0232
  661ERGO    C2 7298   9.272   9.301   9.035 -0.3943 -0.1353 -0.1616
  662ERGO   ROH 7299   8.193   4.542   9.651 -0.2420 -0.1135 -0.0020
  662ERGO    R1 7300   8.250   4.593   9.378 -0.1389  0.0177  0.0429
  662ERGO    R2 7301   8.175   4.421   9.175  0.1371 -0.0005 -0.0506
  662ERGO    R3 7302   8.058   4.644   9.073 -0.0214 -0.0809 -0.0476
  662ERGO    R4 7303   8.087   4.465   8.844  0.1396 -0.0398 -0.0563
  662ERGO    R5 7304   8.157   4.670   8.857 -0.0182  0.0118 -0.0334
  662ERGO    C1 7305   7.926   4.700   8.556 -0.0076 -0.1382 -0.0568
  662ERGO    C2 7306   7.698   4.750   8.325 -0.1694  0.0782  0.0085
  663ERGO   ROH 7307   9.975  15.282   9.499 -0.0773  0.0285 -0.0045
  663ERGO    R1 7308  10.086  15.186   9.257  0.0127  0.0706  0.0195
  663ERGO    R2 7309   9.945  15.024   9.082  0.1365 -0.0440  0.0229
  663ERGO    R3 7310  10.013  15.216   8.902  0.0313 -0.0209  0.0078
  663ERGO    R4 7311  10.022  14.966   8.750  0.1099 -0.0203  0.0127
  663ERGO    R5 7312  10.181  15.113   8.766  0.0520  0.0445 -0.0153
  663ERGO    C1 7313  10.130  15.112   8.388 -0.0044  0.0153 -0.0073
  663ERGO    C2 7314  10.277  15.280   8.083 -0.0353 -0.0784  0.1733
  664ERGO   ROH 7315  10.104   8.563  10.209  0.3024 -0.2002 -0.1685
  664ERGO    R1 7316  10.096   8.570   9.926  0.2674 -0.3602 -0.1711
  664ERGO    R2 7317  10.017   8.353   9.773 -0.4375 -0.2328 -0.0065
  664ERGO    R3 7318   9.842   8.533   9.668  0.0779  0.2500 -0.0921
  664ERGO    R4 7319   9.953   8.396   9.436 -0.4915 -0.4117 -0.0214
  664ERGO    R5 7320   9.947   8.610   9.468  0.2403 -0.3210 -0.2532
  664ERGO    C1 7321   9.751   8.589   9.142 -0.0390 -0.0628 -0.1103
  664ERGO    C2 7322   9.523   8.844   8.949  0.0099  0.0744  0.0212
  665ERGO   ROH 7323   5.274   2.116   6.620 -0.4600  0.1174  0.1895
  665ERGO    R1 7324   5.217   1.929   6.824 -0.3222  0.1088  0.2207
  665ERGO    R2 7325   5.415   1.797   6.963 -0.2258 -0.0304 -0.0409
  665ERGO    R3 7326   5.285   1.896   7.180  0.0863  0.0012  0.1384
  665ERGO    R4 7327   5.473   1.699   7.290 -0.0831 -0.3316 -0.1525
  665ERGO    R5 7328   5.257   1.707   7.324 -0.0480 -0.0631  0.0301
  665ERGO    C1 7329   5.383   1.735   7.683  0.2931 -0.4772 -0.0493
  665ERGO    C2 7330   5.573   1.695   7.943 -0.0291 -0.0133 -0.2981
  666ERGO   ROH 7331   0.040  14.643   6.809  0.3185 -0.2162  0.0731
  666ERGO    R1 7332   0.077  14.732   7.075  0.2552 -0.1630  0.0663
  666ERGO    R2 7333  -0.038  14.605   7.292  0.1959 -0.1197  0.0711
  666ERGO    R3 7334   0.219  14.597   7.382  0.1756 -0.1094  0.1246
  666ERGO    R4 7335   0.056  14.552   7.621  0.1394 -0.0918  0.0902
  666ERGO    R5 7336   0.211  14.703   7.596  0.1373 -0.0970  0.1110
  666ERGO    C1 7337   0.352  14.513   7.896  0.0874 -0.0658  0.1516
  666ERGO    C2 7338   0.511  14.296   8.147 -0.0143  0.0443  0.0391
  667ERGO   ROH 7339   1.468  13.423  10.039  0.3159 -0.0208 -0.0950
  667ERGO    R1 7340   1.571  13.386   9.778  0.1766 -0.2226 -0.1252
  667ERGO    R2 7341   1.497  13.174   9.617 -0.3100 -0.0731 -0.1231
  667ERGO    R3 7342   1.436  13.371   9.441  0.0489  0.0738 -0.0888
  667ERGO    R4 7343   1.469  13.132   9.275 -0.3898  0.0420 -0.1302
  667ERGO    R5 7344   1.570  13.323   9.248 -0.0397 -0.1358 -0.0963
  667ERGO    C1 7345   1.397  13.293   8.910 -0.0993  0.2468 -0.1022
  667ERGO    C2 7346   1.306  13.308   8.715  0.1199  0.1353  0.2476
  668ERGO   ROH 7347  16.698  15.902   6.465 -0.0175 -0.1911  0.1025
  668ERGO    R1 7348  16.507  16.065   6.596  0.1046 -0.0960  0.1662
  668ERGO    R2 7349  16.258  15.972   6.672 -0.0173  0.0922  0.0281
  668ERGO    R3 7350  16.333  16.063   6.916  0.0144 -0.1628  0.1151
  668ERGO    R4 7351  16.042  16.040   6.933 -0.0140  0.1972  0.0027
  668ERGO    R5 7352  16.161  16.216   6.979  0.1920  0.0146  0.1589
  668ERGO    C1 7353  15.988  16.165   7.315  0.0175  0.0191  0.0695
  668ERGO    C2 7354  15.646  16.280   7.560 -0.1410  0.0802  0.1395
  669ERGO   ROH 7355   3.484  17.530   9.726 -0.0478 -0.1918 -0.0575
  669ERGO    R1 7356   3.608  17.586   9.478  0.0258  0.0306  0.0288
  669ERGO    R2 7357   3.562  17.434   9.252  0.2536  0.1123 -0.0636
  669ERGO    R3 7358   3.498  17.675   9.142  0.1205  0.1148  0.0173
  669ERGO    R4 7359   3.519  17.492   8.914  0.4099  0.2234 -0.0668
  669ERGO    R5 7360   3.623  17.682   8.938  0.2450  0.3067  0.0897
  669ERGO    C1 7361   3.434  17.752   8.614  0.3761  0.2902  0.0074
  669ERGO    C2 7362   3.525  17.724   8.288 -0.2228 -0.0667 -0.0215
  670ERGO   ROH 7363  14.396  13.771   9.852  0.2392 -0.0738 -0.1595
  670ERGO    R1 7364  14.306  13.923   9.630  0.0374  0.0117 -0.0229
  670ERGO    R2 7365  14.198  14.176   9.657  0.2476  0.0883  0.1560
  670ERGO    R3 7366  14.391  14.242   9.477  0.0515 -0.0310 -0.1032
  670ERGO    R4 7367  14.164  14.415   9.409  0.0765  0.1287  0.2175
  670ERGO    R5 7368  14.271  14.282   9.274 -0.1973  0.0658  0.0596
  670ERGO    C1 7369  14.326  14.616   9.096 -0.2071  0.0405  0.0100
  670ERGO    C2 7370  14.383  14.872   8.902 -0.1553 -0.1357  0.1055
  671ERGO   ROH 7371   4.788  16.719   5.961 -0.0467  0.0572 -0.0928
  671ERGO    R1 7372   4.769  16.868   6.202 -0.0611  0.0000 -0.0587
  671ERGO    R2 7373   4.529  16.912   6.332 -0.0750  0.0098 -0.0893
  671ERGO    R3 7374   4.662  16.805   6.544 -0.1301 -0.0665 -0.0923
  671ERGO    R4 7375   4.468  16.989   6.663 -0.0264  0.0385 -0.0866
  671ERGO    R5 7376   4.683  16.986   6.698 -0.0272 -0.0802 -0.0899
  671ERGO    C1 7377   4.557  16.934   7.055 -0.0499 -0.0164 -0.0879
  671ERGO    C2 7378   4.582  17.031   7.333  0.0744 -0.1289 -0.3396
  672PSPI    C1 7379   5.110  13.116   6.100 -0.1107 -0.0589  0.0487
  672PSPI    C2 7380   5.237  12.799   6.308 -0.2137 -0.1169  0.0236
  672PSPI    C3 7381   5.222  12.783   5.909 -0.0506 -0.0184  0.0128
  672PSPI   PO4 7382   5.205  13.293   6.366 -0.1245 -0.0473  0.1620
  672PSPI   GL1 7383   5.230  13.477   6.699  0.0402  0.1984  0.1739
  672PSPI   GL2 7384   5.319  13.310   6.876  0.0690  0.1086  0.1115
  672PSPI   C1A 7385   4.931  13.548   6.939  0.2068  0.0061  0.0411
  672PSPI   C2A 7386   4.759  13.415   7.361 -0.1290  0.2070 -0.0312
  672PSPI   C3A 7387   4.496  13.449   7.708 -0.2297  0.1647 -0.1148
  672PSPI   C4A 7388   4.465  13.411   8.097  0.1924 -0.3169  0.0452
  672PSPI   C1B 7389   5.335  13.486   7.290  0.0470 -0.2852  0.0117
  672PSPI   C2B 7390   5.101  13.575   7.684 -0.2067 -0.0574 -0.1157
  672PSPI   C3B 7391   4.912  13.749   8.014 -0.2949 -0.3042  0.1199
  672PSPI   C4B 7392   4.627  13.885   8.283 -0.1562  0.0344  0.0477
  673PSPI    C1 7393  15.586   6.630   6.274 -0.0815 -0.3189  0.1484
  673PSPI    C2 7394  15.276   6.848   6.147  0.1437 -0.0214  0.0989
  673PSPI    C3 7395  15.381   6.517   5.949  0.0432  0.0409 -0.0610
  673PSPI   PO4 7396  15.566   6.620   6.459 -0.0190  0.1088  0.1712
  673PSPI   GL1 7397  15.788   6.512   6.775 -0.1907 -0.0186  0.1448
  673PSPI   GL2 7398  15.817   6.759   6.834 -0.0635  0.1187  0.2803
  673PSPI   C1A 7399  15.856   6.475   7.204  0.1095  0.1575  0.0033
  673PSPI   C2A 7400  15.875   6.453   7.577 -0.1174  0.1832 -0.0531
  673PSPI   C3A 7401  15.919   6.493   7.988  0.2183 -0.1015 -0.1803
  673PSPI   C4A 7402  15.708   6.666   8.218  0.0689 -0.0984  0.0746
  673PSPI   C1B 7403  15.741   6.937   7.272 -0.1857  0.2046  0.0998
  673PSPI   C2B 7404  15.909   6.948   7.748 -0.1898  0.1948 -0.1278
  673PSPI   C3B 7405  16.128   6.933   8.154 -0.0770 -0.0681 -0.0504
  673PSPI   C4B 7406  16.377   6.802   8.539 -0.0589 -0.2321 -0.3391
  674PSPI    C1 7407  18.223  16.595   6.127  0.0796  0.0992  0.2379
  674PSPI    C2 7408  18.249  16.954   5.954 -0.1261  0.0407  0.0809
  674PSPI    C3 7409  18.365  16.627   5.755  0.0830  0.0207  0.2321
  674PSPI   PO4 7410  18.346  16.657   6.373  0.0005 -0.1176 -0.0624
  674PSPI   GL1 7411  18.468  16.544   6.670  0.0956  0.4135 -0.1498
  674PSPI   GL2 7412  18.654  16.351   6.620  0.1577 -0.0590  0.1004
  674PSPI   C1A 7413  18.445  16.695   7.057 -0.1216  0.2521  0.1086
  674PSPI   C2A 7414  18.426  16.580   7.595  0.1673  0.1607 -0.1262
  674PSPI   C3A 7415  18.529  16.502   7.999  0.3802  0.1596 -0.0508
  674PSPI   C4A 7416  18.471  16.733   8.426 -0.2378  0.2734 -0.2311
  674PSPI   C1B 7417  18.762  16.333   7.015  0.0057  0.0512  0.3369
  674PSPI   C2B 7418  18.838  16.276   7.417  0.0248 -0.0958  0.1591
  674PSPI   C3B 7419  18.639  16.088   7.684  0.1322  0.2703 -0.0275
  674PSPI   C4B 7420  18.685  15.929   8.073  0.0767 -0.0442  0.0501
  675PSPI    C1 7421  16.593   1.878   6.346  0.0791  0.2292 -0.0429
  675PSPI    C2 7422  16.805   1.947   6.678 -0.2226 -0.3353  0.2829
  675PSPI    C3 7423  16.935   1.681   6.409  0.0000  0.0902 -0.0423
  675PSPI   PO4 7424  16.505   2.160   6.306 -0.0807 -0.0233 -0.2511
  675PSPI   GL1 7425  16.300   2.174   6.761  0.1745 -0.1091  0.3150
  675PSPI   GL2 7426  16.033   2.031   6.933 -0.4798  0.3838  0.1196
  675PSPI   C1A 7427  16.594   2.164   7.043 -0.1220  0.0504  0.0461
  675PSPI   C2A 7428  16.784   2.174   7.365  0.0651  0.2023 -0.0036
  675PSPI   C3A 7429  16.931   2.288   7.782 -0.0308  0.1295 -0.2792
  675PSPI   C4A 7430  17.190   2.517   8.138  0.2126 -0.1446 -0.0388
  675PSPI   C1B 7431  15.646   1.895   6.975  0.2463  0.1029  0.2905
  675PSPI   C2B 7432  15.328   1.769   7.336  0.0399  0.0018  0.2878
  675PSPI   C3B 7433  14.932   1.457   7.426  0.0342 -0.2253 -0.1331
  675PSPI   C4B 7434  14.746   1.151   7.292 -0.1399 -0.2271 -0.0810
  676PSPI    C1 7435  13.175  13.911   5.901 -0.1309  0.1052 -0.0983
  676PSPI    C2 7436  13.461  13.692   5.726 -0.0672  0.1293 -0.0251
  676PSPI    C3 7437  13.163  13.845   5.507 -0.2294 -0.2077 -0.0454
  676PSPI   PO4 7438  13.173  13.688   6.137 -0.4467 -0.2194 -0.0458
  676PSPI   GL1 7439  13.385  13.709   6.629 -0.3257 -0.1548  0.0150
  676PSPI   GL2 7440  13.287  13.336   6.704 -0.0872  0.1988 -0.2911
  676PSPI   C1A 7441  13.542  13.784   7.104 -0.0784  0.1501 -0.0070
  676PSPI   C2A 7442  13.482  13.855   7.517 -0.1299  0.0955 -0.2051
  676PSPI   C3A 7443  13.527  13.758   7.843 -0.1591 -0.0475  0.0514
  676PSPI   C4A 7444  13.499  13.503   8.105  0.2299 -0.1921 -0.0392
  676PSPI   C1B 7445  13.296  13.250   7.068  0.1064 -0.1689  0.2991
  676PSPI   C2B 7446  13.263  13.308   7.593 -0.0827  0.2802  0.1046
  676PSPI   C3B 7447  13.117  13.131   7.976 -0.1252  0.1751  0.0850
  676PSPI   C4B 7448  12.988  13.196   8.381  0.0175  0.3388  0.4227
  677PSPI    C1 7449  12.562  17.878   5.392  0.1163 -0.3242 -0.0467
  677PSPI    C2 7450  12.896  18.088   5.325 -0.0577 -0.0125  0.0441
  677PSPI    C3 7451  12.574  18.145   5.095 -0.0751 -0.2562  0.0052
  677PSPI   PO4 7452  12.614  17.933   5.712  0.1753  0.0197 -0.0194
  677PSPI   GL1 7453  12.530  18.133   6.004 -0.0302  0.0368 -0.2090
  677PSPI   GL2 7454  12.405  17.834   6.161 -0.0320 -0.0684  0.1643
  677PSPI   C1A 7455  12.511  18.239   6.456 -0.2200  0.3059 -0.1592
  677PSPI   C2A 7456  12.278  18.173   6.839  0.0470  0.1598 -0.2119
  677PSPI   C3A 7457  11.967  18.104   7.103  0.1683 -0.3739 -0.0762
  677PSPI   C4A 7458  11.830  17.986   7.583  0.0487 -0.0465 -0.0759
  677PSPI   C1B 7459  12.503  17.754   6.670  0.0641  0.1909  0.1356
  677PSPI   C2B 7460  12.794  18.007   6.935  0.3084 -0.4437 -0.1141
  677PSPI   C3B 7461  12.558  18.198   7.253  0.0005  0.0825 -0.1850
  677PSPI   C4B 7462  12.195  18.315   7.517 -0.0277  0.0378 -0.0244
  678PSPI    C1 7463   3.972  16.479   5.455  0.1208  0.0995  0.3225
  678PSPI    C2 7464   3.896  16.807   5.239  0.1973  0.0000  0.1422
  678PSPI    C3 7465   4.192  16.560   5.130  0.0350 -0.2145  0.1823
  678PSPI   PO4 7466   3.999  16.525   5.656 -0.2203  0.2229 -0.0461
  678PSPI   GL1 7467   4.216  16.378   5.956  0.2338  0.0065  0.4896
  678PSPI   GL2 7468   4.370  16.496   6.152 -0.2035 -0.1464  0.0223
  678PSPI   C1A 7469   4.266  16.118   6.421 -0.0048 -0.1216 -0.1002
  678PSPI   C2A 7470   4.164  16.070   6.934 -0.3605  0.1939 -0.0140
  678PSPI   C3A 7471   4.078  16.296   7.294  0.1901  0.1459  0.2740
  678PSPI   C4A 7472   4.055  16.643   7.598 -0.2541 -0.2440 -0.1172
  678PSPI   C1B 7473   4.709  16.301   6.392 -0.1447 -0.0091 -0.0210
  678PSPI   C2B 7474   4.692  16.104   6.744 -0.4057  0.1219  0.4952
  678PSPI   C3B 7475   4.632  16.016   7.245  0.1860  0.3239 -0.3702
  678PSPI   C4B 7476   5.026  16.072   7.485 -0.1517 -0.1888 -0.2506
  679PSPI    C1 7477   8.663  15.472   5.738  0.0164  0.3463  0.0366
  679PSPI    C2 7478   8.301  15.384   5.592 -0.0028  0.1246  0.2135
  679PSPI    C3 7479   8.628  15.221   5.429 -0.0145 -0.0153  0.3277
  679PSPI   PO4 7480   8.600  15.370   6.017  0.3776 -0.3008  0.0283
  679PSPI   GL1 7481   8.384  15.229   6.234 -0.1046 -0.0646 -0.0510
  679PSPI   GL2 7482   8.082  15.236   6.408 -0.2513 -0.1096 -0.1848
  679PSPI   C1A 7483   8.516  15.386   6.628 -0.1614  0.2244 -0.2783
  679PSPI   C2A 7484   8.604  15.423   7.117  0.0297 -0.0572  0.1302
  679PSPI   C3A 7485   8.726  15.600   7.515 -0.4344 -0.1925 -0.2389
  679PSPI   C4A 7486   8.999  15.888   7.955 -0.1091  0.2869  0.1288
  679PSPI   C1B 7487   8.247  15.001   6.774  0.2092  0.2509  0.2529
  679PSPI   C2B 7488   8.372  14.854   7.119 -0.1312  0.3734 -0.2967
  679PSPI   C3B 7489   8.605  14.662   7.502  0.0426 -0.1287  0.0401
  679PSPI   C4B 7490   8.408  14.619   7.886  0.0377 -0.1008  0.0411
  680PSPI    C1 7491   5.758  12.151   6.452  0.0195 -0.0632  0.2840
  680PSPI    C2 7492   5.521  11.908   6.664 -0.0777 -0.1881  0.0363
  680PSPI    C3 7493   5.399  12.046   6.309  0.0047  0.1714  0.1439
  680PSPI   PO4 7494   5.942  12.141   6.527 -0.3030 -0.1629  0.0082
  680PSPI   GL1 7495   6.274  11.873   6.791 -0.0281  0.0920 -0.1060
  680PSPI   GL2 7496   6.006  11.688   6.691  0.4743 -0.0490 -0.0396
  680PSPI   C1A 7497   6.411  11.851   7.251 -0.2666  0.0280  0.1134
  680PSPI   C2A 7498   6.447  11.792   7.681  0.4395 -0.0373  0.1468
  680PSPI   C3A 7499   6.447  11.783   8.172 -0.1786 -0.0319  0.1218
  680PSPI   C4A 7500   6.338  11.611   8.599  0.0514 -0.0349 -0.1114
  680PSPI   C1B 7501   6.059  11.474   7.031 -0.0914  0.4439 -0.1750
  680PSPI   C2B 7502   5.837  11.261   7.339  0.1675  0.0265  0.0166
  680PSPI   C3B 7503   5.874  11.231   7.802 -0.2464  0.1718  0.1640
  680PSPI   C4B 7504   5.935  11.085   8.195 -0.0299  0.0627 -0.1589
  681PSPI    C1 7505  10.099  13.878   6.131  0.0283  0.0135  0.0714
  681PSPI    C2 7506  10.001  13.832   5.746 -0.1685  0.0300  0.1182
  681PSPI    C3 7507   9.791  13.644   6.030 -0.0243  0.0181  0.2185
  681PSPI   PO4 7508  10.466  13.939   6.093 -0.0516 -0.0935 -0.3997
  681PSPI   GL1 7509  10.854  13.898   6.374  0.0040  0.0171  0.3174
  681PSPI   GL2 7510  10.767  14.169   6.396 -0.1525 -0.3391  0.0840
  681PSPI   C1A 7511  11.033  13.834   6.810 -0.1130 -0.4041  0.1410
  681PSPI   C2A 7512  11.115  13.774   7.343  0.0333 -0.0272 -0.0331
  681PSPI   C3A 7513  11.256  13.771   7.695  0.1130 -0.2565  0.0124
  681PSPI   C4A 7514  11.625  13.861   7.703  0.0489  0.3222  0.0807
  681PSPI   C1B 7515  10.533  14.491   6.738 -0.1813  0.4191  0.1901
  681PSPI   C2B 7516  10.457  14.649   7.234  0.0610  0.5534  0.0583
  681PSPI   C3B 7517  10.319  14.609   7.611 -0.1494 -0.0923 -0.1097
  681PSPI   C4B 7518  10.065  14.787   8.024  0.0855  0.3632  0.3182
  682PSPI    C1 7519   2.976  16.903   5.684  0.0026 -0.0205  0.0174
  682PSPI    C2 7520   2.983  16.771   5.307 -0.1154  0.0474 -0.0091
  682PSPI    C3 7521   3.222  17.072   5.418 -0.2137  0.1513 -0.0768
  682PSPI   PO4 7522   3.075  16.770   5.899 -0.0283 -0.0491 -0.1366
  682PSPI   GL1 7523   3.318  16.707   6.145  0.1954  0.3691 -0.0011
  682PSPI   GL2 7524   3.451  16.900   6.367 -0.1213 -0.2628  0.2816
  682PSPI   C1A 7525   3.213  16.487   6.511 -0.3355 -0.1274  0.3439
  682PSPI   C2A 7526   3.060  16.475   6.972  0.3653 -0.1801  0.0453
  682PSPI   C3A 7527   3.049  16.467   7.343  0.0898  0.2309 -0.0345
  682PSPI   C4A 7528   3.015  16.517   7.786  0.0257 -0.0009 -0.1580
  682PSPI   C1B 7529   3.497  16.848   6.741 -0.2169  0.1838 -0.1665
  682PSPI   C2B 7530   3.321  16.938   7.139 -0.1559  0.1741 -0.2542
  682PSPI   C3B 7531   3.373  17.172   7.581 -0.0518 -0.0109 -0.0196
  682PSPI   C4B 7532   3.617  17.277   7.920  0.0245  0.0689 -0.1230
  683PSPI    C1 7533   9.431  18.048   5.288  0.0275 -0.0602 -0.0799
  683PSPI    C2 7534   9.421  18.179   4.910  0.0678 -0.1619 -0.1164
  683PSPI    C3 7535   9.360  17.792   4.990 -0.0319 -0.1249 -0.0104
  683PSPI   PO4 7536   9.465  18.207   5.454 -0.0476  0.2080 -0.3370
  683PSPI   GL1 7537   9.342  18.111   5.837 -0.0514 -0.1389 -0.1617
  683PSPI   GL2 7538   9.521  18.197   6.010 -0.1192 -0.2130 -0.0560
  683PSPI   C1A 7539   8.997  18.358   6.069 -0.0071 -0.1811  0.0315
  683PSPI   C2A 7540   8.647  18.378   6.270  0.0054 -0.0662 -0.1832
  683PSPI   C3A 7541   8.459  18.375   6.605 -0.0804 -0.4537  0.2012
  683PSPI   C4A 7542   8.225  18.612   6.956 -0.1051 -0.0626 -0.1368
  683PSPI   C1B 7543   9.517  18.270   6.463  0.0608  0.2305 -0.1899
  683PSPI   C2B 7544   9.345  18.230   6.949 -0.1577  0.2455 -0.1261
  683PSPI   C3B 7545   9.113  18.154   7.228 -0.0357  0.0546  0.0885
  683PSPI   C4B 7546   8.979  17.954   7.600  0.1990  0.2099  0.1747
  684PSPI    C1 7547   9.610   3.405   5.427  0.0641 -0.0074 -0.0064
  684PSPI    C2 7548   9.751   3.712   5.642  0.0644  0.0649 -0.1092
  684PSPI    C3 7549   9.564   3.780   5.295 -0.0524 -0.0430 -0.0681
  684PSPI   PO4 7550   9.484   3.289   5.657  0.0952 -0.0822  0.1036
  684PSPI   GL1 7551   9.273   3.160   6.063  0.2398  0.0081  0.1465
  684PSPI   GL2 7552   9.442   2.916   6.050 -0.0900  0.2111  0.0083
  684PSPI   C1A 7553   8.924   3.109   6.398 -0.0791 -0.0559 -0.0173
  684PSPI   C2A 7554   8.858   3.033   6.809 -0.2016  0.0306  0.4411
  684PSPI   C3A 7555   8.953   2.770   7.155  0.1229  0.0444  0.1166
  684PSPI   C4A 7556   9.097   2.665   7.634 -0.2653  0.1906 -0.0888
  684PSPI   C1B 7557   9.533   2.479   6.289 -0.4096 -0.0304  0.3050
  684PSPI   C2B 7558   9.653   2.297   6.683 -0.1945 -0.2065  0.0827
  684PSPI   C3B 7559   9.796   2.351   7.072  0.0205 -0.1729 -0.1299
  684PSPI   C4B 7560  10.038   2.237   7.378  0.1833 -0.3811 -0.0697
  685PSPI    C1 7561  10.630   3.985   5.677  0.1205 -0.0373 -0.0765
  685PSPI    C2 7562  10.967   3.831   5.827  0.1108 -0.1092 -0.1279
  685PSPI    C3 7563  10.956   3.955   5.447  0.2126  0.3149  0.0011
  685PSPI   PO4 7564  10.439   3.816   5.752 -0.2320 -0.1669  0.0684
  685PSPI   GL1 7565  10.550   3.691   6.115 -0.1798  0.0748  0.3656
  685PSPI   GL2 7566  10.323   3.942   6.405 -0.1603  0.0133 -0.1214
  685PSPI   C1A 7567  10.450   3.466   6.570 -0.1666  0.1090  0.3777
  685PSPI   C2A 7568  10.395   3.389   7.038  0.1793 -0.0769  0.0977
  685PSPI   C3A 7569  10.461   3.171   7.359 -0.3342  0.0720 -0.1457
  685PSPI   C4A 7570  10.531   2.865   7.722 -0.0140  0.1492  0.3493
  685PSPI   C1B 7571  10.202   3.877   6.892  0.1787 -0.1067 -0.1169
  685PSPI   C2B 7572  10.263   3.768   7.299 -0.0997 -0.0411 -0.0873
  685PSPI   C3B 7573  10.105   3.395   7.637 -0.1608  0.0272 -0.1564
  685PSPI   C4B 7574  10.050   3.031   7.806 -0.1337  0.0253  0.2731
  686PSPI    C1 7575   6.616   5.891   6.100  0.0467 -0.3642  0.2452
  686PSPI    C2 7576   6.226   5.878   6.186 -0.0052 -0.1896  0.0454
  686PSPI    C3 7577   6.380   6.199   6.003  0.1912 -0.3490 -0.0732
  686PSPI   PO4 7578   6.745   5.778   6.361 -0.1435 -0.3462 -0.1488
  686PSPI   GL1 7579   6.561   5.660   6.759 -0.2736  0.0561 -0.1542
  686PSPI   GL2 7580   6.231   5.752   6.730  0.1979 -0.0205 -0.0427
  686PSPI   C1A 7581   6.807   5.706   7.161 -0.1874 -0.4782 -0.0858
  686PSPI   C2A 7582   6.859   5.596   7.628 -0.1787 -0.2029  0.2269
  686PSPI   C3A 7583   6.896   5.340   8.018  0.0412  0.0040 -0.0077
  686PSPI   C4A 7584   6.928   4.989   8.059 -0.2513 -0.2368  0.0652
  686PSPI   C1B 7585   6.263   6.124   7.087  0.1871 -0.0427 -0.2841
  686PSPI   C2B 7586   6.153   6.368   7.347 -0.2339  0.1915 -0.4139
  686PSPI   C3B 7587   6.360   6.366   7.768  0.1208 -0.4986  0.0455
  686PSPI   C4B 7588   6.547   6.300   8.255 -0.2213  0.2688 -0.0068
  687PSPI    C1 7589   3.935   4.946   6.567 -0.1802  0.0605  0.0502
  687PSPI    C2 7590   3.729   4.604   6.540 -0.2759  0.1334 -0.1591
  687PSPI    C3 7591   3.645   4.909   6.294 -0.1707  0.2972  0.0057
  687PSPI   PO4 7592   4.246   4.867   6.594  0.1103  0.0201  0.0402
  687PSPI   GL1 7593   4.483   4.789   6.981  0.1472  0.3595 -0.0502
  687PSPI   GL2 7594   4.374   4.995   7.125 -0.0472 -0.0518 -0.0334
  687PSPI   C1A 7595   4.659   4.678   7.342  0.1658 -0.4895 -0.1380
  687PSPI   C2A 7596   4.786   4.543   7.733 -0.2247  0.2825  0.0788
  687PSPI   C3A 7597   4.808   4.732   8.145 -0.3705 -0.2872  0.0396
  687PSPI   C4A 7598   4.575   4.735   8.541 -0.0152  0.0458  0.0781
  687PSPI   C1B 7599   4.424   5.089   7.500 -0.0387  0.1016 -0.0562
  687PSPI   C2B 7600   4.561   5.052   7.867  0.2736  0.1313 -0.0080
  687PSPI   C3B 7601   4.781   5.235   8.199  0.0605 -0.0220 -0.0480
  687PSPI   C4B 7602   4.707   5.480   8.463 -0.1839  0.0079 -0.1855
  688PSPI    C1 7603   1.727   8.419   6.712 -0.0546 -0.1664 -0.0595
  688PSPI    C2 7604   2.101   8.288   6.766 -0.0223 -0.0786 -0.0699
  688PSPI    C3 7605   1.861   8.103   6.506  0.1049  0.0358 -0.2718
  688PSPI   PO4 7606   1.760   8.662   6.757 -0.0080 -0.1787 -0.2130
  688PSPI   GL1 7607   1.509   8.891   7.032 -0.1430 -0.0201 -0.2377
  688PSPI   GL2 7608   1.136   8.994   6.901 -0.1442 -0.1593 -0.0513
  688PSPI   C1A 7609   1.446   8.809   7.534 -0.1743  0.0601 -0.0516
  688PSPI   C2A 7610   1.447   8.808   7.908 -0.1062 -0.0288  0.0016
  688PSPI   C3A 7611   1.537   8.938   8.340 -0.1248  0.0082 -0.1643
  688PSPI   C4A 7612   1.816   9.212   8.662 -0.2187 -0.3463 -0.1472
  688PSPI   C1B 7613   1.046   9.016   7.291  0.2707 -0.1075  0.3500
  688PSPI   C2B 7614   0.979   9.017   7.696 -0.0761  0.2503  0.2600
  688PSPI   C3B 7615   1.048   8.974   8.121 -0.1569  0.0359  0.1461
  688PSPI   C4B 7616   0.834   9.177   8.494 -0.3378  0.0252  0.2850
  689PSPI    C1 7617   8.197   8.010   6.269  0.2924  0.0863 -0.1156
  689PSPI    C2 7618   8.323   8.150   5.916 -0.0233 -0.0223 -0.2755
  689PSPI    C3 7619   7.996   7.921   5.935 -0.0772  0.0788  0.1036
  689PSPI   PO4 7620   8.136   8.160   6.406 -0.3755 -0.2216  0.0013
  689PSPI   GL1 7621   8.091   8.187   6.867  0.2203  0.3920 -0.2644
  689PSPI   GL2 7622   8.087   7.923   6.874  0.0811  0.2107  0.1736
  689PSPI   C1A 7623   8.228   8.286   7.185 -0.2313  0.0532  0.0746
  689PSPI   C2A 7624   8.229   8.347   7.635 -0.1232  0.1681 -0.1046
  689PSPI   C3A 7625   8.293   8.059   8.041 -0.0717  0.0243 -0.1219
  689PSPI   C4A 7626   8.436   7.651   8.268  0.1770  0.0845 -0.2795
  689PSPI   C1B 7627   8.388   7.822   7.197 -0.2739  0.3985 -0.3504
  689PSPI   C2B 7628   8.569   7.942   7.579  0.3760 -0.0905  0.2120
  689PSPI   C3B 7629   8.687   8.466   7.783  0.0360  0.0159  0.0798
  689PSPI   C4B 7630   9.063   8.655   7.714 -0.0627  0.2176  0.0579
  690PSPI    C1 7631   7.712   8.405   6.428 -0.0755 -0.2211  0.0362
  690PSPI    C2 7632   7.970   8.561   6.166 -0.0375  0.0194  0.2141
  690PSPI    C3 7633   7.675   8.323   6.038 -0.0611  0.1887 -0.0558
  690PSPI   PO4 7634   7.571   8.592   6.581 -0.0994 -0.3299  0.2087
  690PSPI   GL1 7635   7.387   8.704   6.969 -0.2726  0.3492  0.1073
  690PSPI   GL2 7636   7.571   8.987   6.950 -0.1452 -0.1088 -0.2546
  690PSPI   C1A 7637   7.337   8.819   7.459  0.0396 -0.0396 -0.2685
  690PSPI   C2A 7638   7.250   8.831   7.893 -0.2753 -0.1587 -0.2004
  690PSPI   C3A 7639   7.056   9.048   8.177 -0.1924 -0.1845  0.1462
  690PSPI   C4A 7640   7.026   9.212   8.606  0.0840 -0.1186 -0.1022
  690PSPI   C1B 7641   7.614   9.244   7.321 -0.1959  0.1879  0.0529
  690PSPI   C2B 7642   7.592   9.194   7.717  0.2719  0.3110 -0.2550
  690PSPI   C3B 7643   7.851   9.307   8.174  0.0696 -0.3227  0.0913
  690PSPI   C4B 7644   7.760   9.387   8.554 -0.0085  0.0361 -0.1569
  691PSPI    C1 7645  14.206   0.534   5.503  0.1555 -0.2288  0.3823
  691PSPI    C2 7646  14.221   0.890   5.684 -0.1139 -0.0015 -0.0258
  691PSPI    C3 7647  14.399   0.838   5.329 -0.3014 -0.1961 -0.0932
  691PSPI   PO4 7648  14.232   0.359   5.770  0.0926 -0.1946 -0.0859
  691PSPI   GL1 7649  13.988   0.284   6.132 -0.2688 -0.2604  0.2453
  691PSPI   GL2 7650  13.910  -0.027   6.042  0.0176  0.0543  0.3129
  691PSPI   C1A 7651  13.976   0.451   6.533 -0.1585  0.1549 -0.0312
  691PSPI   C2A 7652  14.152   0.402   6.990  0.3181 -0.2143 -0.0686
  691PSPI   C3A 7653  14.003   0.612   7.369 -0.0080  0.1860  0.2779
  691PSPI   C4A 7654  13.815   0.901   7.722  0.3495 -0.1165  0.2830
  691PSPI   C1B 7655  13.698   0.037   6.491  0.2291 -0.6092  0.2747
  691PSPI   C2B 7656  13.463  -0.041   6.811 -0.3516 -0.0746 -0.3201
  691PSPI   C3B 7657  13.144   0.067   7.140 -0.3612  0.1124 -0.1620
  691PSPI   C4B 7658  12.955   0.139   7.533  0.2570 -0.1521  0.0739
  692POPI    C1 7659  17.679   3.841   6.123  0.0061  0.1110  0.0835
  692POPI    C2 7660  18.020   3.950   6.301  0.1009  0.1454 -0.1162
  692POPI    C3 7661  18.030   3.729   5.969 -0.0800 -0.1081  0.0435
  692POPI   PO4 7662  17.524   3.762   6.301 -0.2984  0.0011  0.0018
  692POPI   GL1 7663  17.602   3.877   6.615  0.0299  0.2749  0.2001
  692POPI   GL2 7664  17.615   3.693   6.847  0.0196  0.0814  0.0699
  692POPI   C1A 7665  17.905   4.193   6.709  0.2684  0.1637 -0.0016
  692POPI   D2A 7666  18.261   4.222   6.859  0.1013 -0.2961  0.1964
  692POPI   C3A 7667  18.206   4.327   7.283  0.0651 -0.0402  0.0130
  692POPI   C4A 7668  18.312   4.282   7.798 -0.1070 -0.0501  0.0164
  692POPI   C1B 7669  17.655   4.019   7.209  0.1997 -0.2008 -0.2046
  692POPI   C2B 7670  17.833   4.170   7.610  0.0936 -0.2605 -0.0046
  692POPI   C3B 7671  17.874   4.472   7.962  0.3264 -0.2003 -0.1950
  692POPI   C4B 7672  18.059   4.653   8.328 -0.1248  0.1422 -0.0096
  693POPI    C1 7673  15.499  10.409   6.363  0.0779 -0.0383 -0.0664
  693POPI    C2 7674  15.873  10.442   6.225  0.1603  0.1877  0.2016
  693POPI    C3 7675  15.766  10.120   6.438  0.1010 -0.0440 -0.1695
  693POPI   PO4 7676  15.440  10.593   6.466  0.1296  0.2139  0.2665
  693POPI   GL1 7677  15.602  10.862   6.721  0.0488 -0.2643  0.2011
  693POPI   GL2 7678  15.834  10.586   6.814  0.1452 -0.0486 -0.0015
  693POPI   C1A 7679  15.492  10.987   7.191 -0.1875  0.0633 -0.1254
  693POPI   D2A 7680  15.628  11.103   7.555 -0.2541  0.1945 -0.2943
  693POPI   C3A 7681  15.563  10.986   8.075 -0.1080 -0.0984 -0.0862
  693POPI   C4A 7682  15.605  10.694   8.449 -0.0455 -0.0446 -0.0441
  693POPI   C1B 7683  15.893  10.563   7.268 -0.1896 -0.0709 -0.3411
  693POPI   C2B 7684  15.999  10.618   7.668 -0.0132  0.1171 -0.1976
  693POPI   C3B 7685  15.903  10.589   8.074 -0.3176 -0.0921  0.1223
  693POPI   C4B 7686  16.078  10.360   8.372  0.1075 -0.0635 -0.1050
  694POPI    C1 7687  16.555   7.042   6.147 -0.1307  0.1042  0.1508
  694POPI    C2 7688  16.557   6.643   6.173  0.1560  0.0851 -0.1124
  694POPI    C3 7689  16.444   6.820   5.833 -0.1581  0.2360  0.0665
  694POPI   PO4 7690  16.614   7.111   6.373 -0.2181 -0.1611 -0.1023
  694POPI   GL1 7691  16.641   6.991   6.643  0.2606  0.1902 -0.1071
  694POPI   GL2 7692  16.756   6.705   6.644 -0.0949  0.1741  0.0222
  694POPI   C1A 7693  16.510   7.141   7.034 -0.1118  0.2196  0.2733
  694POPI   D2A 7694  16.631   7.326   7.478  0.2860  0.0718 -0.1754
  694POPI   C3A 7695  16.828   7.330   7.826  0.3081 -0.5547 -0.0568
  694POPI   C4A 7696  17.089   7.494   8.092 -0.0514 -0.1954 -0.1570
  694POPI   C1B 7697  16.733   6.652   7.117  0.2246  0.2160  0.1517
  694POPI   C2B 7698  16.818   6.488   7.396  0.2211  0.2203  0.0294
  694POPI   C3B 7699  16.819   6.530   7.883  0.0836  0.0310  0.0205
  694POPI   C4B 7700  16.404   6.492   8.170 -0.3376  0.6489  0.0241
  695POPI    C1 7701   2.919   7.257   6.390 -0.1284 -0.1212 -0.2653
  695POPI    C2 7702   3.153   7.334   6.075  0.0088 -0.0618 -0.1501
  695POPI    C3 7703   3.154   6.970   6.241  0.1825 -0.0017 -0.0167
  695POPI   PO4 7704   2.994   7.502   6.547  0.1166  0.0915  0.0095
  695POPI   GL1 7705   2.971   7.572   6.944  0.1844  0.0166 -0.0854
  695POPI   GL2 7706   2.804   7.847   7.051  0.2468 -0.1943  0.0320
  695POPI   C1A 7707   3.174   7.255   7.229 -0.0560 -0.0498 -0.0945
  695POPI   D2A 7708   3.649   7.249   7.215 -0.1422 -0.2631  0.0902
  695POPI   C3A 7709   3.858   7.372   7.543 -0.2830  0.1750  0.1942
  695POPI   C4A 7710   3.842   7.476   7.889 -0.4932 -0.2223 -0.3323
  695POPI   C1B 7711   2.678   7.957   7.492  0.2164 -0.0196 -0.3016
  695POPI   C2B 7712   2.441   7.861   8.019 -0.0672  0.0568 -0.0952
  695POPI   C3B 7713   2.396   7.914   8.362  0.0869 -0.1153 -0.0290
  695POPI   C4B 7714   2.466   8.223   8.641 -0.0227  0.3415 -0.1875
  696POPI    C1 7715  15.468  12.967   5.835 -0.0376  0.0745  0.0205
  696POPI    C2 7716  15.437  12.748   5.501 -0.1269  0.0022  0.0755
  696POPI    C3 7717  15.346  13.138   5.495 -0.1265  0.0015  0.0151
  696POPI   PO4 7718  15.399  12.649   6.085  0.3958 -0.0266 -0.1404
  696POPI   GL1 7719  15.307  12.726   6.528  0.3134  0.0808  0.1899
  696POPI   GL2 7720  15.412  12.434   6.513  0.1046  0.1473 -0.1652
  696POPI   C1A 7721  15.464  12.871   6.916 -0.0469 -0.3036 -0.1203
  696POPI   D2A 7722  15.348  13.205   7.257  0.1084 -0.3360 -0.0306
  696POPI   C3A 7723  15.240  13.163   7.684 -0.0264 -0.2820  0.1440
  696POPI   C4A 7724  15.238  12.972   8.059  0.2822 -0.1026  0.1139
  696POPI   C1B 7725  15.429  12.338   6.977  0.0513 -0.0242  0.0260
  696POPI   C2B 7726  15.273  12.231   7.378  0.4568 -0.0794 -0.1939
  696POPI   C3B 7727  15.197  12.258   7.747 -0.1701  0.0491 -0.1631
  696POPI   C4B 7728  15.417  12.230   8.128  0.3316  0.0143  0.2346
  697POPI    C1 7729  15.254  17.828   5.587 -0.1360  0.0245  0.0868
  697POPI    C2 7730  15.398  17.521   5.374 -0.0968 -0.1044  0.2954
  697POPI    C3 7731  15.524  17.894   5.299  0.0565 -0.1707  0.2195
  697POPI   PO4 7732  15.223  17.723   5.888 -0.2606 -0.0338 -0.1397
  697POPI   GL1 7733  15.004  17.447   6.054 -0.2658 -0.0088 -0.0262
  697POPI   GL2 7734  15.249  17.217   6.145  0.0568 -0.0083  0.1315
  697POPI   C1A 7735  14.852  17.490   6.342 -0.0391  0.2068 -0.2154
  697POPI   D2A 7736  15.018  17.499   6.740 -0.2264 -0.1049  0.3228
  697POPI   C3A 7737  15.071  17.391   7.199  0.4188  0.0132  0.4451
  697POPI   C4A 7738  15.401  17.318   7.407 -0.2186  0.1654  0.1038
  697POPI   C1B 7739  15.294  16.947   6.607  0.0703 -0.1226 -0.1787
  697POPI   C2B 7740  15.385  16.874   7.035  0.1156  0.1151 -0.2065
  697POPI   C3B 7741  15.346  16.610   7.343  0.3268  0.1322 -0.1598
  697POPI   C4B 7742  15.115  16.206   7.515  0.1035 -0.1747 -0.2271
  698POPI    C1 7743   3.282   0.850   6.111 -0.0563 -0.1669  0.1399
  698POPI    C2 7744   3.272   1.249   6.132  0.1749 -0.1652  0.2464
  698POPI    C3 7745   3.111   1.061   5.818  0.0915  0.0128  0.1814
  698POPI   PO4 7746   3.448   0.706   6.266  0.0144 -0.0728  0.0432
  698POPI   GL1 7747   3.585   0.396   6.557 -0.2175  0.1603 -0.2481
  698POPI   GL2 7748   3.245   0.225   6.448 -0.5233 -0.3005  0.0817
  698POPI   C1A 7749   3.672   0.568   6.878 -0.1111  0.0585 -0.0691
  698POPI   D2A 7750   3.818   0.523   7.217  0.1596  0.3013  0.0000
  698POPI   C3A 7751   3.637   0.318   7.572  0.1122  0.1744  0.2408
  698POPI   C4A 7752   3.703   0.103   7.868 -0.1604 -0.1360  0.1020
  698POPI   C1B 7753   2.831   0.120   6.692  0.1718  0.1092 -0.0141
  698POPI   C2B 7754   2.486   0.342   7.031 -0.1660  0.0157 -0.0783
  698POPI   C3B 7755   2.562   0.262   7.388  0.0485 -0.0870  0.0513
  698POPI   C4B 7756   2.714   0.389   7.827  0.2187 -0.0763  0.1873
  699POPI    C1 7757   0.680   4.393   5.787  0.0278  0.1026 -0.1451
  699POPI    C2 7758   0.587   4.032   5.643 -0.0006  0.0288  0.0545
  699POPI    C3 7759   0.483   4.361   5.441  0.0023 -0.0735 -0.1153
  699POPI   PO4 7760   0.738   4.248   6.078  0.2432  0.0568  0.0205
  699POPI   GL1 7761   0.715   4.327   6.522  0.0931  0.1571 -0.1970
  699POPI   GL2 7762   0.860   4.207   6.784 -0.2301  0.2296  0.0556
  699POPI   C1A 7763   0.402   4.720   6.506  0.0335  0.2774  0.0416
  699POPI   D2A 7764   0.474   5.150   6.780 -0.3120  0.2312 -0.2165
  699POPI   C3A 7765   0.430   5.075   7.260 -0.0065 -0.2431 -0.2389
  699POPI   C4A 7766   0.387   4.722   7.468  0.0164 -0.1504 -0.2391
  699POPI   C1B 7767   1.067   4.417   7.218  0.2268  0.2780  0.1467
  699POPI   C2B 7768   0.911   4.579   7.611  0.2273  0.1490 -0.1070
  699POPI   C3B 7769   1.080   4.695   8.028  0.3042 -0.0467  0.0310
  699POPI   C4B 7770   0.831   4.995   8.223  0.2884  0.2743  0.2170
  700POPI    C1 7771   4.748  11.916   6.591  0.0639  0.0526  0.0896
  700POPI    C2 7772   4.935  11.873   6.241 -0.0646 -0.1264  0.0413
  700POPI    C3 7773   4.609  12.103   6.266  0.1426  0.1649  0.1201
  700POPI   PO4 7774   5.011  11.883   6.725  0.1599 -0.4986 -0.0685
  700POPI   GL1 7775   5.081  11.537   6.996  0.3383 -0.1550 -0.0293
  700POPI   GL2 7776   5.427  11.451   6.855  0.2595  0.0424  0.0981
  700POPI   C1A 7777   5.049  11.666   7.378  0.1539  0.1111  0.0739
  700POPI   D2A 7778   4.858  11.786   7.860  0.2368 -0.3589  0.2347
  700POPI   C3A 7779   5.029  12.097   8.130 -0.0021  0.2262  0.0734
  700POPI   C4A 7780   5.308  12.387   8.329 -0.0149 -0.4197 -0.1265
  700POPI   C1B 7781   5.538  11.647   7.178 -0.0122 -0.2853  0.0810
  700POPI   C2B 7782   5.451  11.954   7.482  0.1400  0.0064  0.1695
  700POPI   C3B 7783   5.411  11.711   7.880 -0.1308 -0.3010  0.1712
  700POPI   C4B 7784   5.560  11.835   8.263  0.3725  0.1040 -0.0253
  701POPI    C1 7785  13.387   5.746   6.245 -0.1022  0.2193 -0.0076
  701POPI    C2 7786  13.198   5.557   5.947 -0.2329  0.1246  0.1340
  701POPI    C3 7787  13.188   5.956   5.969  0.0762  0.1549 -0.1879
  701POPI   PO4 7788  13.542   5.593   6.372 -0.0770  0.0985  0.0016
  701POPI   GL1 7789  13.524   5.359   6.778 -0.1819 -0.0518 -0.0135
  701POPI   GL2 7790  13.682   5.158   6.942  0.0229  0.3273  0.2346
  701POPI   C1A 7791  13.474   5.446   7.347  0.3175 -0.0742  0.0329
  701POPI   D2A 7792  13.556   5.407   7.771 -0.0618  0.0679 -0.0197
  701POPI   C3A 7793  13.712   5.812   8.147  0.0444  0.1917  0.0068
  701POPI   C4A 7794  13.887   5.776   8.544  0.1659  0.3250 -0.4247
  701POPI   C1B 7795  13.462   4.906   7.230 -0.1186  0.1800 -0.2625
  701POPI   C2B 7796  13.508   4.614   7.593 -0.0407  0.1611  0.0141
  701POPI   C3B 7797  13.316   4.520   7.929  0.1881 -0.3116 -0.0178
  701POPI   C4B 7798  12.932   4.573   8.175  0.1422  0.0355 -0.3155
  702POPI    C1 7799   1.923  12.275   6.067 -0.1803 -0.1071 -0.1242
  702POPI    C2 7800   2.251  12.166   6.268 -0.1650  0.2514  0.0529
  702POPI    C3 7801   2.284  12.376   5.929 -0.1969 -0.2049 -0.2404
  702POPI   PO4 7802   1.736  12.482   6.189  0.1343 -0.1599  0.0625
  702POPI   GL1 7803   1.609  12.613   6.536  0.2368 -0.0558 -0.0246
  702POPI   GL2 7804   1.860  12.548   6.728 -0.1734 -0.0213  0.3724
  702POPI   C1A 7805   1.314  12.753   6.854 -0.1475  0.2300 -0.2055
  702POPI   D2A 7806   1.428  12.884   7.234  0.0610 -0.1429  0.1095
  702POPI   C3A 7807   1.271  13.069   7.547  0.2953  0.1770  0.0382
  702POPI   C4A 7808   1.357  13.098   8.068 -0.0882 -0.6248 -0.0233
  702POPI   C1B 7809   2.066  12.304   7.024  0.1543 -0.0352 -0.3499
  702POPI   C2B 7810   2.319  12.325   7.404  0.3380  0.1009 -0.0659
  702POPI   C3B 7811   2.222  12.544   7.764  0.0500  0.1356  0.0975
  702POPI   C4B 7812   2.296  12.940   7.880 -0.0199  0.1659 -0.0767
  703POPI    C1 7813  11.753   9.593   6.655 -0.0695  0.3017  0.0923
  703POPI    C2 7814  11.833   9.407   6.310 -0.0317  0.0014  0.2595
  703POPI    C3 7815  11.475   9.576   6.367  0.0211  0.2055  0.0095
  703POPI   PO4 7816  11.985   9.678   6.723 -0.5191 -0.1981 -0.0062
  703POPI   GL1 7817  12.210   9.604   7.034  0.2368 -0.0801  0.1543
  703POPI   GL2 7818  11.887   9.457   7.156 -0.1897  0.0408 -0.1633
  703POPI   C1A 7819  12.295   9.603   7.443 -0.0370  0.1414 -0.1289
  703POPI   D2A 7820  11.935   9.634   7.651  0.1440 -0.5311 -0.2698
  703POPI   C3A 7821  11.744   9.483   8.008  0.1430  0.3506  0.3103
  703POPI   C4A 7822  11.538   9.644   8.349 -0.0001  0.1968 -0.1527
  703POPI   C1B 7823  11.714   9.247   7.506 -0.0003 -0.0830  0.1945
  703POPI   C2B 7824  11.598   9.003   7.882 -0.2976  0.3205  0.1686
  703POPI   C3B 7825  11.799   8.695   8.232  0.2161 -0.0856 -0.2559
  703POPI   C4B 7826  12.129   8.771   8.425  0.3074  0.2197 -0.4193
  704POPI    C1 7827  14.265   8.114   6.649 -0.0944 -0.1771 -0.0237
  704POPI    C2 7828  14.131   8.324   6.336  0.1791  0.0045 -0.0220
  704POPI    C3 7829  14.468   8.111   6.304  0.0376 -0.2348  0.0537
  704POPI   PO4 7830  14.051   8.039   6.806  0.1148  0.0283  0.2792
  704POPI   GL1 7831  13.789   8.128   7.096 -0.0412  0.0911  0.1850
  704POPI   GL2 7832  13.592   8.296   7.295  0.0854  0.0211 -0.1569
  704POPI   C1A 7833  13.518   7.786   7.302  0.0688 -0.1768  0.2617
  704POPI   D2A 7834  13.359   7.745   7.658 -0.0480 -0.1647 -0.1619
  704POPI   C3A 7835  13.359   7.963   7.967 -0.0143  0.1988  0.0898
  704POPI   C4A 7836  13.391   8.149   8.374  0.3152  0.1210  0.0582
  704POPI   C1B 7837  13.512   8.362   7.687 -0.3037 -0.1087  0.3617
  704POPI   C2B 7838  13.715   8.387   8.019 -0.0166 -0.1071 -0.1026
  704POPI   C3B 7839  13.859   8.261   8.312 -0.2666 -0.4549  0.0563
  704POPI   C4B 7840  14.284   8.405   8.508  0.2098 -0.0764  0.1012
  705POPI    C1 7841  10.336   6.449   6.041  0.1239  0.0017 -0.0875
  705POPI    C2 7842  10.517   6.095   5.994 -0.1126 -0.1097 -0.1748
  705POPI    C3 7843  10.237   6.213   5.734 -0.0684  0.1224 -0.1200
  705POPI   PO4 7844  10.183   6.443   6.325 -0.1676  0.0620  0.1179
  705POPI   GL1 7845  10.345   6.571   6.715  0.2541 -0.2617 -0.2195
  705POPI   GL2 7846  10.085   6.870   6.672  0.2347  0.0253 -0.1672
  705POPI   C1A 7847  10.379   6.531   7.218  0.0740 -0.1123 -0.3190
  705POPI   D2A 7848  10.569   6.257   7.468  0.1361 -0.1126  0.2779
  705POPI   C3A 7849  10.474   5.960   7.707 -0.1821  0.0769  0.0959
  705POPI   C4A 7850  10.468   5.932   8.188 -0.3244 -0.2092  0.1625
  705POPI   C1B 7851  10.177   6.978   7.093 -0.3175  0.2381 -0.1451
  705POPI   C2B 7852  10.227   7.024   7.517 -0.2034 -0.2899 -0.1440
  705POPI   C3B 7853  10.364   6.989   7.929 -0.0545 -0.1598 -0.1789
  705POPI   C4B 7854  10.675   6.861   8.244  0.0860 -0.1182  0.2619
  706POPI    C1 7855  10.090   0.849   4.880  0.1274 -0.1362 -0.2503
  706POPI    C2 7856  10.227   1.141   4.643  0.4793 -0.0559  0.0413
  706POPI    C3 7857  10.321   0.760   4.565  0.2577 -0.0696 -0.1747
  706POPI   PO4 7858  10.076   1.098   5.121  0.0060 -0.0303 -0.0523
  706POPI   GL1 7859  10.240   0.983   5.535  0.2673  0.0550 -0.1484
  706POPI   GL2 7860  10.163   0.707   5.667 -0.1516 -0.0993 -0.1308
  706POPI   C1A 7861  10.441   0.933   6.004 -0.0369 -0.1250  0.1916
  706POPI   D2A 7862  10.530   0.806   6.383 -0.1670 -0.1479  0.1828
  706POPI   C3A 7863  10.453   0.943   6.819 -0.0313  0.0473 -0.3958
  706POPI   C4A 7864  10.418   0.773   7.146  0.1084  0.2988 -0.5272
  706POPI   C1B 7865  10.329   0.420   6.038  0.2308  0.1682 -0.1901
  706POPI   C2B 7866  10.388   0.253   6.466  0.2468 -0.0446  0.2998
  706POPI   C3B 7867  10.461   0.135   6.816  0.0848  0.2884  0.0776
  706POPI   C4B 7868  10.297  -0.051   7.143 -0.0072 -0.3035 -0.0282
  707POPI    C1 7869   5.262  14.153   6.011 -0.3153 -0.1659  0.1760
  707POPI    C2 7870   4.973  14.015   5.770 -0.0122 -0.2452 -0.1503
  707POPI    C3 7871   5.096  14.394   5.738 -0.1322 -0.1887  0.0426
  707POPI   PO4 7872   5.203  14.204   6.296 -0.0081 -0.0303  0.0900
  707POPI   GL1 7873   5.246  14.296   6.719  0.1146 -0.0114 -0.2418
  707POPI   GL2 7874   4.948  14.453   6.660  0.0415 -0.1484 -0.0762
  707POPI   C1A 7875   5.417  14.302   7.148 -0.2587 -0.2242  0.0051
  707POPI   D2A 7876   5.699  14.328   7.475 -0.1825 -0.1115  0.0518
  707POPI   C3A 7877   5.572  14.534   7.807  0.1052  0.1266 -0.0204
  707POPI   C4A 7878   5.462  14.614   8.217 -0.1539  0.2595  0.2266
  707POPI   C1B 7879   4.870  14.459   7.094  0.1270 -0.1691 -0.0769
  707POPI   C2B 7880   5.167  14.531   7.492 -0.2833  0.0172  0.3288
  707POPI   C3B 7881   5.020  14.791   7.857  0.0704 -0.1168  0.0815
  707POPI   C4B 7882   4.808  14.765   8.123  0.3566  0.1245  0.1292
  708POPI    C1 7883  11.664  12.989   5.865 -0.0463 -0.0454 -0.1308
  708POPI    C2 7884  11.878  12.752   5.625 -0.3405 -0.2457 -0.2014
  708POPI    C3 7885  11.785  13.124   5.509  0.0767 -0.1087 -0.1133
  708POPI   PO4 7886  11.845  12.971   6.141  0.0596  0.0544 -0.0255
  708POPI   GL1 7887  11.638  12.881   6.569  0.1504  0.0653  0.1277
  708POPI   GL2 7888  11.424  12.720   6.843  0.0998 -0.1204 -0.1509
  708POPI   C1A 7889  11.876  12.979   6.932  0.1025 -0.0094 -0.2677
  708POPI   D2A 7890  12.137  12.968   7.214  0.1537 -0.1204 -0.2743
  708POPI   C3A 7891  11.983  12.886   7.657 -0.2087  0.1005 -0.1393
  708POPI   C4A 7892  12.190  12.959   8.129  0.1972 -0.0389  0.3346
  708POPI   C1B 7893  11.587  12.774   7.266  0.1342  0.1858  0.1269
  708POPI   C2B 7894  11.424  12.778   7.633 -0.2310 -0.0829  0.0102
  708POPI   C3B 7895  11.352  12.850   8.026 -0.1716  0.2555  0.1299
  708POPI   C4B 7896  11.424  13.111   8.390 -0.4249  0.1617 -0.5123
  709POPI    C1 7897  15.010   8.906   6.311 -0.0507  0.0968 -0.1990
  709POPI    C2 7898  15.216   8.564   6.293 -0.0147  0.1053  0.0215
  709POPI    C3 7899  15.320   8.872   6.060  0.2121  0.1037  0.1187
  709POPI   PO4 7900  15.102   8.979   6.598  0.3348  0.2478  0.3131
  709POPI   GL1 7901  15.074   9.152   7.005 -0.2191  0.2094  0.3135
  709POPI   GL2 7902  14.744   9.020   7.134 -0.0577  0.0889 -0.1521
  709POPI   C1A 7903  15.342   9.197   7.442 -0.0538 -0.1356  0.2026
  709POPI   D2A 7904  15.148   9.349   7.791  0.1530 -0.0864  0.2901
  709POPI   C3A 7905  15.425   9.328   8.232  0.3243 -0.0098  0.0746
  709POPI   C4A 7906  15.671   9.262   8.583  0.0002  0.2874 -0.0914
  709POPI   C1B 7907  15.048   8.807   7.412  0.0245  0.0459 -0.0253
  709POPI   C2B 7908  15.128   8.895   7.842 -0.2193  0.4053  0.2801
  709POPI   C3B 7909  15.189   8.747   8.147  0.5145 -0.1998  0.1003
  709POPI   C4B 7910  15.100   8.604   8.551 -0.0553 -0.0165  0.1784
  710POPI    C1 7911   1.522  14.152   5.762  0.0343  0.1721  0.0794
  710POPI    C2 7912   1.191  14.122   5.984  0.0096 -0.0852  0.0112
  710POPI    C3 7913   1.211  13.939   5.629  0.2353 -0.0943  0.0268
  710POPI   PO4 7914   1.780  14.081   6.053 -0.0093 -0.1391  0.0855
  710POPI   GL1 7915   1.705  14.318   6.447  0.3194 -0.0517  0.1598
  710POPI   GL2 7916   1.623  14.706   6.430  0.0826 -0.0826  0.0233
  710POPI   C1A 7917   1.813  14.280   6.831 -0.3233  0.1441 -0.3205
  710POPI   D2A 7918   1.712  14.115   7.149  0.1318  0.2080 -0.1476
  710POPI   C3A 7919   1.898  14.258   7.563  0.1336 -0.2058  0.1351
  710POPI   C4A 7920   1.874  14.284   7.995  0.1202 -0.3657  0.0096
  710POPI   C1B 7921   1.706  15.080   6.749  0.1888  0.0766  0.1582
  710POPI   C2B 7922   1.498  15.063   7.147 -0.0665 -0.0840  0.0776
  710POPI   C3B 7923   1.256  14.892   7.470 -0.2055 -0.2367 -0.0726
  710POPI   C4B 7924   0.932  14.613   7.283  0.0096 -0.1359  0.4954
  711POPI    C1 7925  10.236  12.179   6.318 -0.1348  0.0919  0.0020
  711POPI    C2 7926  10.236  11.791   6.221  0.0574 -0.0049  0.3684
  711POPI    C3 7927   9.909  12.013   6.157  0.0528 -0.1451 -0.1407
  711POPI   PO4 7928  10.349  12.145   6.594 -0.2289 -0.3094  0.0825
  711POPI   GL1 7929  10.131  12.034   6.895  0.2264 -0.0668 -0.1424
  711POPI   GL2 7930  10.003  12.218   7.162  0.0654  0.0206 -0.1605
  711POPI   C1A 7931  10.147  11.818   7.373  0.1522  0.3370  0.1792
  711POPI   D2A 7932   9.979  11.802   7.864  0.0099 -0.2722  0.1499
  711POPI   C3A 7933  10.198  11.830   8.169 -0.1239  0.3914  0.1325
  711POPI   C4A 7934  10.412  11.526   8.397 -0.0823  0.0510  0.2323
  711POPI   C1B 7935   9.890  12.212   7.559  0.1025  0.0867  0.0465
  711POPI   C2B 7936   9.837  12.236   8.038  0.2606 -0.1284  0.0167
  711POPI   C3B 7937   9.957  12.107   8.497  0.1445  0.1940  0.0410
  711POPI   C4B 7938  10.107  11.761   8.758  0.2632 -0.3531  0.1121
  712POPI    C1 7939  13.280   6.826   6.247  0.0541  0.0603 -0.0687
  712POPI    C2 7940  13.501   7.142   6.353 -0.0449  0.0678  0.1201
  712POPI    C3 7941  13.678   6.810   6.216  0.0527  0.2454 -0.1939
  712POPI   PO4 7942  13.074   6.827   6.467  0.0251  0.0080  0.1271
  712POPI   GL1 7943  13.081   7.098   6.807 -0.1154 -0.0367  0.1429
  712POPI   GL2 7944  12.780   7.014   6.881  0.2048  0.3004  0.4327
  712POPI   C1A 7945  13.266   6.939   7.218  0.0293  0.1011 -0.1740
  712POPI   D2A 7946  13.400   6.682   7.540  0.0299  0.0435 -0.2470
  712POPI   C3A 7947  13.450   6.762   7.994 -0.0992 -0.1503  0.0540
  712POPI   C4A 7948  13.149   6.996   8.119 -0.0175 -0.1438  0.1316
  712POPI   C1B 7949  12.707   6.723   7.295  0.1900 -0.1860  0.1353
  712POPI   C2B 7950  12.354   6.856   7.577  0.2352  0.0436  0.1629
  712POPI   C3B 7951  12.283   6.681   7.932  0.0268 -0.1009  0.0225
  712POPI   C4B 7952  12.237   6.630   8.327 -0.0894 -0.0749 -0.3976
  713POPI    C1 7953   6.077  11.273   5.978  0.0416 -0.0249 -0.0042
  713POPI    C2 7954   5.964  11.583   5.751  0.1468 -0.0715 -0.1215
  713POPI    C3 7955   5.691  11.322   5.882  0.0790 -0.0180 -0.1548
  713POPI   PO4 7956   6.201  11.390   6.244 -0.1375  0.0961 -0.2672
  713POPI   GL1 7957   6.225  11.186   6.619  0.2343 -0.1427 -0.1725
  713POPI   GL2 7958   6.427  11.276   6.817  0.1203  0.0830 -0.1933
  713POPI   C1A 7959   5.835  11.077   6.874 -0.0587 -0.1604 -0.0305
  713POPI   D2A 7960   5.407  11.101   7.162  0.0661 -0.0041  0.0249
  713POPI   C3A 7961   5.397  11.262   7.578  0.3813  0.0958 -0.2275
  713POPI   C4A 7962   5.084  11.331   7.871  0.0779 -0.0766  0.0330
  713POPI   C1B 7963   6.485  11.346   7.307  0.1445  0.1228  0.2817
  713POPI   C2B 7964   6.354  11.304   7.761  0.0892 -0.0656 -0.3030
  713POPI   C3B 7965   6.425  11.288   8.205  0.1227  0.3487 -0.1479
  713POPI   C4B 7966   6.277  11.089   8.544  0.1024  0.1950 -0.0492
  714POPI    C1 7967  16.059   6.542   6.299 -0.1142 -0.0222  0.0015
  714POPI    C2 7968  16.187   6.891   6.446  0.1119 -0.1060  0.0080
  714POPI    C3 7969  16.024   6.876   6.081 -0.0593  0.0332  0.0769
  714POPI   PO4 7970  16.251   6.411   6.490  0.0031  0.1046 -0.2122
  714POPI   GL1 7971  16.185   6.149   6.845  0.1298  0.1285 -0.2237
  714POPI   GL2 7972  15.960   6.036   6.664 -0.1398  0.0187  0.0334
  714POPI   C1A 7973  16.146   6.085   7.296  0.0068  0.3510  0.0996
  714POPI   D2A 7974  16.213   6.132   7.809  0.2055 -0.1335 -0.1123
  714POPI   C3A 7975  16.076   6.018   8.217  0.1521 -0.3558  0.4165
  714POPI   C4A 7976  15.898   5.669   8.468  0.0683  0.0402  0.3333
  714POPI   C1B 7977  15.835   5.774   7.015  0.1180 -0.0678 -0.0141
  714POPI   C2B 7978  15.622   5.506   7.211  0.1042 -0.2722  0.0195
  714POPI   C3B 7979  15.589   5.265   7.563  0.0142 -0.1620 -0.3208
  714POPI   C4B 7980  15.686   4.882   7.860  0.1369  0.0328 -0.0615
  715POPI    C1 7981   2.447   8.150   6.506 -0.3081  0.0112 -0.2418
  715POPI    C2 7982   2.595   8.094   6.139 -0.0054 -0.0708 -0.1101
  715POPI    C3 7983   2.587   7.791   6.399 -0.1402  0.0089 -0.0202
  715POPI   PO4 7984   2.598   8.365   6.608 -0.1783  0.0310  0.1996
  715POPI   GL1 7985   2.540   8.344   7.069 -0.2365  0.0925  0.0736
  715POPI   GL2 7986   2.838   8.328   7.094  0.2055  0.0973  0.0802
  715POPI   C1A 7987   2.166   8.472   7.271 -0.5633 -0.1014  0.0885
  715POPI   D2A 7988   1.897   8.595   7.523 -0.0449 -0.1418  0.2356
  715POPI   C3A 7989   1.896   8.653   7.863  0.1565  0.2822 -0.1152
  715POPI   C4A 7990   1.995   8.768   8.282  0.3704  0.1239  0.4824
  715POPI   C1B 7991   2.661   8.421   7.513  0.0845  0.1330 -0.0200
  715POPI   C2B 7992   2.698   8.288   7.879  0.3029 -0.0562 -0.1002
  715POPI   C3B 7993   2.764   8.386   8.273  0.1175 -0.0994  0.4159
  715POPI   C4B 7994   2.930   8.432   8.633 -0.0018 -0.0844 -0.2918
  716POPI    C1 7995  18.098  12.434   6.181 -0.2044  0.0700  0.0316
  716POPI    C2 7996  18.328  12.446   5.854 -0.2039 -0.1071  0.0244
  716POPI    C3 7997  17.935  12.381   5.819 -0.1971 -0.1688  0.0619
  716POPI   PO4 7998  18.193  12.753   6.397 -0.0445  0.1052 -0.0838
  716POPI   GL1 7999  18.449  12.797   6.679  0.1680  0.2687 -0.2932
  716POPI   GL2 8000  18.671  13.075   6.641 -0.0513  0.1359  0.2854
  716POPI   C1A 8001  18.496  12.852   7.157  0.1577 -0.0256  0.0048
  716POPI   D2A 8002  18.566  12.994   7.601  0.0358 -0.4420 -0.2958
  716POPI   C3A 8003  18.442  13.381   7.954 -0.1236 -0.1885  0.0564
  716POPI   C4A 8004  18.642  13.684   8.232 -0.0162  0.0040  0.4577
  716POPI   C1B 8005  18.863  13.302   7.044 -0.0650  0.3112 -0.0206
  716POPI   C2B 8006  19.148  13.413   7.441  0.1492  0.2062 -0.0343
  716POPI   C3B 8007  19.368  13.473   7.788  0.2027 -0.0170 -0.1568
  716POPI   C4B 8008  19.639  13.562   8.164 -0.0444 -0.0626 -0.1974
  717POPI    C1 8009   4.284  12.473   6.183  0.1755 -0.3388  0.0057
  717POPI    C2 8010   3.988  12.565   5.930  0.1931 -0.2712  0.0095
  717POPI    C3 8011   4.133  12.193   5.941  0.3175 -0.2315 -0.2108
  717POPI   PO4 8012   4.182  12.614   6.438  0.1312  0.0632 -0.3722
  717POPI   GL1 8013   3.836  12.907   6.760  0.4201 -0.5046  0.3165
  717POPI   GL2 8014   3.866  13.264   6.694 -0.2054  0.1217 -0.1311
  717POPI   C1A 8015   3.717  12.872   7.199 -0.1286 -0.3337 -0.0356
  717POPI   D2A 8016   3.637  12.887   7.617 -0.0324 -0.1800  0.1294
  717POPI   C3A 8017   3.854  13.093   7.912 -0.2805 -0.1624 -0.1800
  717POPI   C4A 8018   4.024  13.459   7.916 -0.4151  0.2079 -0.2388
  717POPI   C1B 8019   3.970  13.317   7.141 -0.1281 -0.1243  0.1698
  717POPI   C2B 8020   4.063  13.201   7.482  0.0959 -0.1055 -0.2466
  717POPI   C3B 8021   4.319  12.982   7.849  0.0227 -0.2623 -0.1330
  717POPI   C4B 8022   4.333  12.991   8.255 -0.1850 -0.1555 -0.2619
  718POPI    C1 8023   8.942  13.866   5.976  0.1746  0.0681 -0.0952
  718POPI    C2 8024   8.598  14.020   6.110  0.2019  0.0338  0.0152
  718POPI    C3 8025   8.637  13.924   5.723  0.1061  0.0883 -0.0083
  718POPI   PO4 8026   9.120  14.029   6.109 -0.0513  0.1228  0.1755
  718POPI   GL1 8027   9.446  13.769   6.370 -0.0729  0.4343 -0.0089
  718POPI   GL2 8028   9.437  13.637   6.623  0.0494  0.0681  0.0541
  718POPI   C1A 8029   9.760  14.118   6.441  0.0919  0.3087  0.0401
  718POPI   D2A 8030  10.182  14.133   6.677  0.1495 -0.1299 -0.0523
  718POPI   C3A 8031  10.254  14.236   7.052  0.0673  0.0216 -0.0217
  718POPI   C4A 8032  10.254  14.142   7.420  0.0129  0.1652  0.0708
  718POPI   C1B 8033   9.398  14.090   6.758 -0.1664 -0.1321  0.0582
  718POPI   C2B 8034   9.710  14.349   6.923  0.1299  0.2775 -0.4863
  718POPI   C3B 8035   9.822  14.444   7.353  0.1799  0.1604 -0.3678
  718POPI   C4B 8036   9.750  14.502   7.756  0.1447 -0.0910 -0.0716
  719POPI    C1 8037  15.967  12.585   6.079  0.0393 -0.1248  0.0095
  719POPI    C2 8038  16.223  12.366   5.864 -0.0296 -0.0119 -0.1903
  719POPI    C3 8039  16.320  12.739   5.971 -0.0554 -0.0168 -0.1496
  719POPI   PO4 8040  15.875  12.408   6.235 -0.0423  0.2434  0.0110
  719POPI   GL1 8041  16.017  12.297   6.680  0.2711 -0.1314  0.0936
  719POPI   GL2 8042  16.031  11.967   6.878 -0.2771  0.5417 -0.0059
  719POPI   C1A 8043  15.836  12.584   7.007 -0.0204  0.1068  0.0148
  719POPI   D2A 8044  15.462  12.715   7.368  0.0028  0.2650 -0.1378
  719POPI   C3A 8045  15.494  12.640   7.864  0.2005  0.0510 -0.0131
  719POPI   C4A 8046  15.744  12.591   8.314  0.3097  0.1310 -0.2523
  719POPI   C1B 8047  15.812  12.108   7.218 -0.1261  0.0286  0.2824
  719POPI   C2B 8048  15.824  12.398   7.483 -0.1893 -0.0823  0.1358
  719POPI   C3B 8049  15.892  12.752   7.667  0.0102  0.1626  0.1879
  719POPI   C4B 8050  15.801  13.020   8.054  0.2596 -0.4275 -0.0401
  720POPI    C1 8051   1.492   0.512   6.241  0.0075 -0.0204 -0.2075
  720POPI    C2 8052   1.620   0.136   6.193  0.0690 -0.0109 -0.1185
  720POPI    C3 8053   1.238   0.206   6.289  0.1072 -0.0615  0.0743
  720POPI   PO4 8054   1.631   0.584   6.514  0.0147 -0.0430  0.3253
  720POPI   GL1 8055   2.031   0.370   6.594 -0.0820 -0.0682  0.3392
  720POPI   GL2 8056   2.044   0.578   6.838  0.0941 -0.2338  0.0750
  720POPI   C1A 8057   2.104   0.091   6.892  0.0226  0.2169 -0.2460
  720POPI   D2A 8058   1.997   0.016   7.337  0.1062 -0.1046 -0.2509
  720POPI   C3A 8059   2.244   0.217   7.716  0.1700 -0.1264 -0.2045
  720POPI   C4A 8060   2.287   0.499   8.105  0.0566 -0.1400 -0.1485
  720POPI   C1B 8061   2.131   0.556   7.268  0.2588 -0.0395 -0.2319
  720POPI   C2B 8062   2.291   0.759   7.618  0.0279  0.2210 -0.1671
  720POPI   C3B 8063   2.247   0.997   7.891 -0.3711 -0.0721  0.0969
  720POPI   C4B 8064   2.203   1.270   8.263  0.1185  0.1684 -0.2958
  721POPI    C1 8065  13.127   9.918   6.760  0.1579  0.0906  0.3197
  721POPI    C2 8066  13.328   9.963   6.417  0.1513 -0.0541  0.2962
  721POPI    C3 8067  12.959  10.113   6.454  0.2087  0.0904  0.2915
  721POPI   PO4 8068  13.314   9.869   6.910 -0.0723 -0.2046  0.4683
  721POPI   GL1 8069  13.567  10.061   7.191  0.2024  0.0027  0.2460
  721POPI   GL2 8070  13.403  10.262   7.250 -0.0607 -0.0557 -0.0121
  721POPI   C1A 8071  13.473  10.162   7.742  0.0586  0.0400  0.0036
  721POPI   D2A 8072  13.544  10.059   8.138  0.3873  0.1244 -0.1545
  721POPI   C3A 8073  13.439   9.654   8.328 -0.0861 -0.0282 -0.0889
  721POPI   C4A 8074  13.402   9.229   8.492  0.0562 -0.0774 -0.0311
  721POPI   C1B 8075  13.205  10.616   7.381 -0.2843 -0.2887 -0.0190
  721POPI   C2B 8076  13.037  10.795   7.690  0.0412 -0.0962  0.0157
  721POPI   C3B 8077  13.053  10.874   8.112 -0.3082  0.0058 -0.1427
  721POPI   C4B 8078  13.117  10.959   8.569  0.0423 -0.1447 -0.0261
  722POPI    C1 8079   0.771  12.139   6.129 -0.0854  0.0146 -0.0243
  722POPI    C2 8080   0.632  11.781   6.016 -0.4270  0.1956 -0.1940
  722POPI    C3 8081   0.944  11.943   5.826 -0.1895 -0.0653 -0.0329
  722POPI   PO4 8082   0.874  12.251   6.453  0.1489  0.0114  0.1811
  722POPI   GL1 8083   1.052  12.312   6.772  0.2205 -0.1325 -0.0353
  722POPI   GL2 8084   1.381  12.194   6.726  0.0661 -0.2105 -0.1633
  722POPI   C1A 8085   0.972  12.230   7.252  0.0139 -0.0442 -0.1887
  722POPI   D2A 8086   0.864  12.362   7.685 -0.1487 -0.1889  0.0358
  722POPI   C3A 8087   1.064  12.197   8.039 -0.1374 -0.2827 -0.0185
  722POPI   C4A 8088   1.403  12.295   8.316 -0.1036 -0.0460  0.0165
  722POPI   C1B 8089   1.414  12.348   7.145 -0.0892 -0.0873 -0.1162
  722POPI   C2B 8090   1.294  12.520   7.522  0.2154  0.0636 -0.1293
  722POPI   C3B 8091   1.281  12.625   7.934  0.1365  0.2805 -0.0334
  722POPI   C4B 8092   0.917  12.645   8.321  0.2137 -0.0044 -0.0116
  723POPI    C1 8093   2.145   5.355   6.446  0.0283 -0.0559 -0.1256
  723POPI    C2 8094   2.009   5.730   6.423  0.0447 -0.0383  0.0467
  723POPI    C3 8095   2.080   5.522   6.089 -0.0362  0.0855 -0.0487
  723POPI   PO4 8096   1.970   5.243   6.646 -0.0100 -0.2395  0.0058
  723POPI   GL1 8097   1.800   5.103   7.086 -0.0150 -0.1704 -0.0055
  723POPI   GL2 8098   2.079   5.181   7.132 -0.2759  0.1388  0.0308
  723POPI   C1A 8099   1.961   4.697   7.260  0.2204  0.2542  0.2683
  723POPI   D2A 8100   2.347   4.659   7.597  0.5443 -0.1442 -0.0100
  723POPI   C3A 8101   2.748   4.685   7.552 -0.0914 -0.1731  0.0584
  723POPI   C4A 8102   3.202   4.699   7.750 -0.1556  0.2003 -0.0795
  723POPI   C1B 8103   2.216   5.516   7.508  0.1019  0.2943  0.0794
  723POPI   C2B 8104   2.263   5.651   7.874  0.1131  0.0686  0.0321
  723POPI   C3B 8105   2.510   5.853   8.126  0.2226 -0.0483 -0.1730
  723POPI   C4B 8106   2.458   6.039   8.556  0.0566  0.1034 -0.3539
  724POPI    C1 8107   1.551  16.338   6.085 -0.0496  0.0794  0.0578
  724POPI    C2 8108   1.601  16.548   5.747 -0.1537  0.2085  0.1218
  724POPI    C3 8109   1.233  16.488   5.893 -0.1162  0.0727  0.1625
  724POPI   PO4 8110   1.791  16.355   6.238  0.1238 -0.0978  0.0871
  724POPI   GL1 8111   1.885  16.179   6.641 -0.0389 -0.0070 -0.0221
  724POPI   GL2 8112   2.163  15.988   6.576 -0.3821 -0.1050 -0.0698
  724POPI   C1A 8113   2.106  16.362   6.985 -0.0473 -0.0513  0.1331
  724POPI   D2A 8114   2.341  16.719   7.192  0.2363  0.0066  0.0099
  724POPI   C3A 8115   2.588  16.657   7.498 -0.1121 -0.0588 -0.1987
  724POPI   C4A 8116   2.578  16.675   8.009 -0.0646  0.2694 -0.0131
  724POPI   C1B 8117   2.276  15.822   6.871 -0.0754  0.1321 -0.2404
  724POPI   C2B 8118   2.350  15.652   7.280  0.3470 -0.2268 -0.1359
  724POPI   C3B 8119   2.133  15.530   7.638 -0.2422 -0.0481 -0.0097
  724POPI   C4B 8120   2.187  15.883   8.084 -0.2399 -0.1337  0.1274
  725POPI    C1 8121   5.708   8.604   6.441  0.1096 -0.2125  0.2831
  725POPI    C2 8122   5.544   8.786   6.757 -0.0968 -0.0041  0.0600
  725POPI    C3 8123   5.311   8.610   6.484  0.0687 -0.0079 -0.0807
  725POPI   PO4 8124   5.968   8.866   6.432  0.0437  0.0640  0.0079
  725POPI   GL1 8125   6.318   8.903   6.721 -0.0875  0.0728 -0.0858
  725POPI   GL2 8126   5.994   9.064   6.886  0.2625  0.1136  0.3045
  725POPI   C1A 8127   6.631   8.814   7.009 -0.0174 -0.1237 -0.3250
  725POPI   D2A 8128   6.934   8.752   7.225  0.0566 -0.0114  0.3062
  725POPI   C3A 8129   6.824   8.850   7.568 -0.2167  0.4391  0.1025
  725POPI   C4A 8130   6.783   8.602   7.858 -0.0416 -0.1198 -0.0865
  725POPI   C1B 8131   5.959   9.100   7.304 -0.0269 -0.0013  0.0125
  725POPI   C2B 8132   6.030   9.172   7.773  0.1145 -0.0021  0.0514
  725POPI   C3B 8133   6.061   9.494   8.058  0.0284  0.3267 -0.2732
  725POPI   C4B 8134   5.812   9.550   8.438 -0.2070 -0.0267 -0.2455
  726POPI    C1 8135  12.247  13.645   6.140  0.1984 -0.3081  0.1159
  726POPI    C2 8136  12.218  13.259   6.042 -0.0411 -0.2466 -0.0653
  726POPI    C3 8137  12.150  13.540   5.766 -0.0941 -0.0731  0.1225
  726POPI   PO4 8138  12.357  13.612   6.351 -0.2557 -0.0707  0.1642
  726POPI   GL1 8139  12.428  13.842   6.722 -0.0140 -0.0842  0.0446
  726POPI   GL2 8140  12.344  14.099   6.545  0.0405 -0.2673  0.0733
  726POPI   C1A 8141  12.435  13.777   7.172  0.0812 -0.2124 -0.0455
  726POPI   D2A 8142  12.488  13.759   7.655  0.0708 -0.3370 -0.2012
  726POPI   C3A 8143  12.107  13.711   7.868 -0.0650  0.4046  0.1086
  726POPI   C4A 8144  11.812  13.800   8.195 -0.1272 -0.0542  0.0494
  726POPI   C1B 8145  12.073  14.133   6.932  0.1485 -0.0339 -0.2254
  726POPI   C2B 8146  11.976  13.936   7.332 -0.0832 -0.3935  0.0774
  726POPI   C3B 8147  12.050  14.244   7.702 -0.1897  0.1453 -0.1042
  726POPI   C4B 8148  12.261  14.579   7.670  0.0604  0.1451  0.2524
  727POPI    C1 8149   6.840   6.293   6.106  0.4247  0.0112 -0.1956
  727POPI    C2 8150   7.113   6.566   6.003  0.1373  0.3318 -0.1287
  727POPI    C3 8151   6.739   6.595   5.864  0.0217  0.1541  0.1378
  727POPI   PO4 8152   6.899   6.338   6.414  0.0357  0.0239  0.0545
  727POPI   GL1 8153   6.822   6.490   6.751  0.0330  0.1166  0.3578
  727POPI   GL2 8154   7.124   6.399   6.894  0.1245 -0.1215  0.1379
  727POPI   C1A 8155   6.959   6.883   6.991 -0.3364  0.0096 -0.0187
  727POPI   D2A 8156   7.162   7.091   7.358 -0.0634 -0.0222 -0.0689
  727POPI   C3A 8157   7.377   6.938   7.732 -0.0691 -0.2260 -0.0611
  727POPI   C4A 8158   7.224   6.876   8.084  0.1425 -0.1433  0.3701
  727POPI   C1B 8159   6.783   6.232   7.169 -0.1967 -0.0899  0.0532
  727POPI   C2B 8160   6.562   5.990   7.479 -0.1592  0.2462  0.0652
  727POPI   C3B 8161   6.662   5.960   7.959 -0.2377  0.0841  0.0480
  727POPI   C4B 8162   7.086   5.842   8.053  0.0908  0.0097 -0.0995
  728POPI    C1 8163   4.041   6.043   6.502  0.3269 -0.1833  0.1931
  728POPI    C2 8164   4.413   6.167   6.423  0.0942  0.2843 -0.2278
  728POPI    C3 8165   4.138   6.427   6.554 -0.1231 -0.0286 -0.0470
  728POPI   PO4 8166   4.070   5.834   6.686  0.3420 -0.0697 -0.0594
  728POPI   GL1 8167   4.270   5.870   7.005  0.2523 -0.3150 -0.1915
  728POPI   GL2 8168   4.540   6.086   6.960  0.2816 -0.1858 -0.0119
  728POPI   C1A 8169   4.254   5.616   7.292 -0.6766 -0.0108 -0.0280
  728POPI   D2A 8170   3.973   5.314   7.521 -0.1652  0.0842 -0.1867
  728POPI   C3A 8171   3.875   5.430   8.013  0.1142 -0.0539 -0.0001
  728POPI   C4A 8172   3.842   5.510   8.496  0.2361  0.0790 -0.2650
  728POPI   C1B 8173   4.775   6.123   7.400 -0.2777 -0.0041 -0.0136
  728POPI   C2B 8174   4.686   6.243   7.798 -0.0873 -0.0936 -0.3832
  728POPI   C3B 8175   4.360   6.289   8.042  0.2010  0.1136  0.2850
  728POPI   C4B 8176   4.273   6.633   8.323 -0.1910  0.0920  0.1126
  729POPI    C1 8177  12.592   6.689   6.450 -0.2108 -0.0315  0.1179
  729POPI    C2 8178  12.394   6.496   6.160 -0.0774  0.0170 -0.0065
  729POPI    C3 8179  12.379   6.895   6.181  0.2236  0.0401 -0.1803
  729POPI   PO4 8180  12.530   6.602   6.666  0.4119  0.0617 -0.0244
  729POPI   GL1 8181  12.274   6.872   7.012 -0.2182 -0.1467 -0.0128
  729POPI   GL2 8182  12.230   6.550   7.055 -0.1023 -0.3503 -0.1093
  729POPI   C1A 8183  12.188   7.156   7.230 -0.0294  0.0105 -0.1027
  729POPI   D2A 8184  11.842   7.335   7.429  0.0240  0.2099  0.1659
  729POPI   C3A 8185  11.911   7.346   7.853 -0.0350  0.1838 -0.1989
  729POPI   C4A 8186  12.060   7.155   8.218  0.1303 -0.1262 -0.1931
  729POPI   C1B 8187  11.963   6.452   7.378  0.0629  0.0441 -0.1963
  729POPI   C2B 8188  11.724   6.131   7.463 -0.1717 -0.0948  0.0488
  729POPI   C3B 8189  11.632   5.963   7.840  0.4179  0.2331  0.0707
  729POPI   C4B 8190  11.477   5.464   7.991  0.0363  0.0058  0.0003
  730POPI    C1 8191   0.978  13.374   5.989 -0.1304  0.0073 -0.1178
  730POPI    C2 8192   0.949  13.089   5.710  0.0927  0.1333 -0.2727
  730POPI    C3 8193   1.307  13.191   5.855 -0.0129  0.1379 -0.0103
  730POPI   PO4 8194   0.891  13.627   5.944  0.2576 -0.1449  0.0864
  730POPI   GL1 8195   0.761  13.935   6.241 -0.2353  0.2843 -0.0574
  730POPI   GL2 8196   0.893  14.319   6.377  0.3399  0.2900 -0.1098
  730POPI   C1A 8197   1.160  13.864   6.541  0.2913 -0.2431 -0.1706
  730POPI   D2A 8198   1.602  13.807   6.514  0.2862 -0.2076 -0.0750
  730POPI   C3A 8199   1.919  13.764   6.874 -0.0719 -0.2471  0.1103
  730POPI   C4A 8200   1.926  13.770   7.343 -0.0313  0.0545 -0.0901
  730POPI   C1B 8201   0.927  14.286   6.754 -0.2483 -0.1202 -0.0038
  730POPI   C2B 8202   1.284  14.201   6.965 -0.0935  0.1714 -0.1713
  730POPI   C3B 8203   1.390  14.345   7.459 -0.1206 -0.2215 -0.2163
  730POPI   C4B 8204   1.431  14.323   7.915  0.0072  0.4022 -0.1388
  731POPI    C1 8205   8.650   0.256   5.386  0.0758  0.1281  0.2502
  731POPI    C2 8206   8.878   0.568   5.283 -0.0428  0.1666  0.1017
  731POPI    C3 8207   9.017   0.296   5.541  0.0948  0.2947  0.1642
  731POPI   PO4 8208   8.408   0.336   5.388  0.1690 -0.1431  0.0496
  731POPI   GL1 8209   8.175   0.536   5.674  0.3240  0.1129  0.1226
  731POPI   GL2 8210   8.247   0.848   5.835 -0.0621  0.1506 -0.3193
  731POPI   C1A 8211   8.126   0.312   6.144 -0.0119 -0.0399  0.1039
  731POPI   D2A 8212   8.020   0.458   6.462 -0.0429 -0.1648 -0.2829
  731POPI   C3A 8213   7.761   0.216   6.715 -0.1977 -0.0840  0.0516
  731POPI   C4A 8214   7.990  -0.007   7.082 -0.0230 -0.2074  0.0738
  731POPI   C1B 8215   8.413   0.702   6.271  0.0144  0.1451  0.0707
  731POPI   C2B 8216   8.513   0.690   6.708 -0.1472  0.2440  0.3339
  731POPI   C3B 8217   8.744   0.785   7.067  0.1361 -0.2834 -0.0606
  731POPI   C4B 8218   8.844   1.216   7.131 -0.0175 -0.0071 -0.2181
  732POPI    C1 8219   4.806  16.209   5.829 -0.1310  0.0290  0.1976
  732POPI    C2 8220   4.803  15.918   6.104 -0.3283 -0.1330  0.0281
  732POPI    C3 8221   4.483  15.976   5.871 -0.1183 -0.0779 -0.2511
  732POPI   PO4 8222   5.115  16.196   5.765 -0.2358 -0.3705  0.0018
  732POPI   GL1 8223   5.331  16.105   6.145 -0.0367 -0.1604 -0.1911
  732POPI   GL2 8224   5.696  16.085   6.126  0.2680  0.0078  0.3620
  732POPI   C1A 8225   5.197  15.945   6.527  0.4073 -0.1411  0.1095
  732POPI   D2A 8226   5.128  16.070   6.931  0.0766  0.1182  0.2869
  732POPI   C3A 8227   5.391  16.309   7.165 -0.0944  0.0958  0.0270
  732POPI   C4A 8228   5.427  16.542   7.500  0.1039  0.1346  0.2221
  732POPI   C1B 8229   5.703  16.202   6.565  0.0042 -0.3966  0.2518
  732POPI   C2B 8230   5.856  16.280   6.954 -0.0666  0.0822  0.1698
  732POPI   C3B 8231   5.867  16.463   7.353 -0.1383  0.0672 -0.1158
  732POPI   C4B 8232   5.922  16.364   7.764 -0.1137  0.1935 -0.0602
  733POPI    C1 8233   2.276   4.281   6.364  0.0295 -0.1549  0.0521
  733POPI    C2 8234   2.001   4.529   6.211  0.1694  0.0400  0.1120
  733POPI    C3 8235   2.364   4.506   6.045  0.1114 -0.2354  0.0176
  733POPI   PO4 8236   2.271   4.319   6.609 -0.1969  0.1520  0.1812
  733POPI   GL1 8237   2.342   4.068   6.940 -0.0217 -0.1807 -0.0090
  733POPI   GL2 8238   2.337   3.837   7.099  0.0276  0.0992 -0.1720
  733POPI   C1A 8239   2.475   4.295   7.305  0.0915  0.0182  0.1835
  733POPI   D2A 8240   2.626   4.251   7.774  0.0357 -0.1589 -0.0905
  733POPI   C3A 8241   2.409   4.464   8.133 -0.2976  0.1170 -0.0853
  733POPI   C4A 8242   2.474   4.688   8.537  0.1413  0.2034 -0.0462
  733POPI   C1B 8243   2.300   3.918   7.609  0.0155 -0.4746 -0.0050
  733POPI   C2B 8244   2.216   3.919   8.042  0.0081 -0.1182  0.1853
  733POPI   C3B 8245   2.020   4.171   8.227 -0.1309  0.0145 -0.0770
  733POPI   C4B 8246   2.028   4.529   8.531 -0.2225  0.2732  0.2212
  734POPI    C1 8247  17.001   8.201   6.422 -0.0331 -0.0044  0.0271
  734POPI    C2 8248  16.989   8.446   6.106  0.3542  0.0104  0.0188
  734POPI    C3 8249  16.771   8.528   6.431 -0.1559 -0.0784 -0.2891
  734POPI   PO4 8250  17.204   8.254   6.615 -0.0475 -0.0753 -0.1757
  734POPI   GL1 8251  17.033   8.198   7.006 -0.0156  0.1833 -0.0594
  734POPI   GL2 8252  16.733   8.300   6.892 -0.0624 -0.1181 -0.1890
  734POPI   C1A 8253  16.998   8.301   7.421  0.1328  0.1237 -0.0884
  734POPI   D2A 8254  16.698   8.198   7.696 -0.3154  0.0766  0.0268
  734POPI   C3A 8255  16.264   8.264   7.641  0.2386 -0.2674 -0.2424
  734POPI   C4A 8256  15.749   8.285   7.600 -0.0371  0.0803  0.2020
  734POPI   C1B 8257  16.583   8.011   7.208 -0.4418  0.0128 -0.2672
  734POPI   C2B 8258  16.452   7.771   7.584 -0.0705  0.1673  0.0076
  734POPI   C3B 8259  16.629   7.763   7.927  0.2277  0.1475  0.2934
  734POPI   C4B 8260  16.679   7.688   8.420 -0.1211  0.0959  0.2142
  735POPI    C1 8261   0.124  10.986   6.251  0.0221 -0.0425  0.0066
  735POPI    C2 8262  -0.092  11.091   5.932  0.0036 -0.1049 -0.0014
  735POPI    C3 8263   0.024  10.711   5.978  0.1238 -0.0688 -0.0045
  735POPI   PO4 8264   0.003  11.180   6.443 -0.0644 -0.1179 -0.1162
  735POPI   GL1 8265   0.221  11.280   6.781 -0.1210 -0.0232  0.1220
  735POPI   GL2 8266   0.420  11.555   7.039 -0.1701 -0.0266  0.3385
  735POPI   C1A 8267  -0.063  11.489   7.090 -0.0167 -0.0556 -0.3533
  735POPI   D2A 8268  -0.148  11.401   7.470  0.0744 -0.0051  0.0221
  735POPI   C3A 8269  -0.457  11.305   7.695 -0.0212 -0.1267  0.2145
  735POPI   C4A 8270  -0.477  11.150   8.132  0.0216 -0.1595  0.2942
  735POPI   C1B 8271   0.351  11.587   7.462 -0.1548  0.2119 -0.1053
  735POPI   C2B 8272   0.142  11.743   7.776  0.1405 -0.1828  0.2445
  735POPI   C3B 8273   0.258  11.904   8.102 -0.0212  0.2547  0.0902
  735POPI   C4B 8274   0.580  12.225   8.226  0.1317  0.0565 -0.2513
  736POPI    C1 8275  17.916   5.458   6.072  0.1162  0.0492  0.1533
  736POPI    C2 8276  17.787   5.650   5.746 -0.0200  0.1717  0.2785
  736POPI    C3 8277  18.163   5.702   5.873  0.0763  0.0159  0.0625
  736POPI   PO4 8278  17.849   5.194   6.038 -0.1976  0.0213  0.1921
  736POPI   GL1 8279  17.814   4.959   6.308  0.1991 -0.0318 -0.0764
  736POPI   GL2 8280  17.468   5.133   6.398 -0.0328 -0.0416 -0.1892
  736POPI   C1A 8281  18.125   4.970   6.645 -0.0417  0.0601 -0.0463
  736POPI   D2A 8282  18.344   4.685   6.978 -0.1365 -0.0063  0.2054
  736POPI   C3A 8283  18.816   4.620   7.018 -0.1086 -0.1531  0.2441
  736POPI   C4A 8284  19.124   4.891   7.241  0.1249 -0.1203  0.2509
  736POPI   C1B 8285  17.236   5.436   6.694  0.2229  0.1993  0.0367
  736POPI   C2B 8286  16.925   5.562   7.051  0.0394 -0.4377  0.0263
  736POPI   C3B 8287  16.911   5.269   7.405  0.1216  0.1758 -0.2495
  736POPI   C4B 8288  16.850   5.273   7.818 -0.0983 -0.1786  0.0215
  737POPI    C1 8289   0.072   5.211   6.256 -0.1062  0.0542 -0.0596
  737POPI    C2 8290   0.162   5.240   5.868  0.1577 -0.0009 -0.0046
  737POPI    C3 8291   0.122   4.880   6.037  0.1474  0.0228  0.0433
  737POPI   PO4 8292   0.148   5.595   6.297  0.1228 -0.0912 -0.1184
  737POPI   GL1 8293   0.442   5.840   6.540  0.0562  0.1193 -0.0830
  737POPI   GL2 8294   0.166   6.119   6.511 -0.1953 -0.1357  0.1386
  737POPI   C1A 8295   0.255   5.656   6.918 -0.1926  0.1002  0.0373
  737POPI   D2A 8296   0.009   5.233   7.046 -0.0897 -0.0371 -0.1138
  737POPI   C3A 8297  -0.139   4.932   7.301  0.3735  0.0896 -0.0266
  737POPI   C4A 8298  -0.104   4.692   7.579  0.0388  0.1243 -0.1420
  737POPI   C1B 8299   0.130   6.135   6.981  0.0488  0.1735  0.2481
  737POPI   C2B 8300   0.006   6.031   7.383  0.0741 -0.0452 -0.0703
  737POPI   C3B 8301  -0.067   5.969   7.784 -0.0743 -0.0774 -0.0924
  737POPI   C4B 8302   0.019   6.013   8.248 -0.1640 -0.0137 -0.0718
  738POPI    C1 8303   7.171  13.556   6.347 -0.0246 -0.0104  0.1501
  738POPI    C2 8304   7.406  13.297   6.153  0.0942  0.2735 -0.0930
  738POPI    C3 8305   7.566  13.618   6.329 -0.0557  0.2023  0.1794
  738POPI   PO4 8306   7.010  13.501   6.523  0.1165  0.0161  0.2666
  738POPI   GL1 8307   6.880  13.777   6.782  0.0640  0.3393  0.0808
  738POPI   GL2 8308   6.636  13.552   6.889 -0.2834 -0.0490 -0.1277
  738POPI   C1A 8309   7.144  13.873   7.072  0.0438  0.2330  0.2397
  738POPI   D2A 8310   7.267  14.095   7.424 -0.0484  0.2932  0.2490
  738POPI   C3A 8311   7.017  14.420   7.700 -0.1412 -0.0855  0.2120
  738POPI   C4A 8312   7.260  14.439   8.081  0.1178 -0.2555  0.0817
  738POPI   C1B 8313   6.774  13.624   7.270 -0.1837 -0.0885 -0.0626
  738POPI   C2B 8314   7.060  13.656   7.616  0.0674 -0.1169  0.1355
  738POPI   C3B 8315   7.291  13.462   7.930 -0.1694  0.0248  0.2925
  738POPI   C4B 8316   7.415  13.504   8.363 -0.2738 -0.1160  0.0824
  739POPS   CNO 8317  18.014   3.047   6.230 -0.2823  0.0575  0.1963
  739POPS   PO4 8318  17.637   2.834   6.175 -0.2054 -0.0904 -0.2786
  739POPS   GL1 8319  17.740   2.930   6.607 -0.2274 -0.2162  0.0290
  739POPS   GL2 8320  17.745   3.196   6.833  0.2340  0.2049 -0.2082
  739POPS   C1A 8321  17.658   2.784   7.054 -0.1173 -0.0018  0.1207
  739POPS   D2A 8322  17.702   2.780   7.469  0.1758  0.0077 -0.2038
  739POPS   C3A 8323  17.472   2.450   7.703 -0.1533 -0.1527 -0.0781
  739POPS   C4A 8324  17.698   2.372   8.046 -0.1119 -0.1027  0.0547
  739POPS   C1B 8325  17.699   3.480   7.255  0.0137 -0.0866 -0.2578
  739POPS   C2B 8326  17.836   3.691   7.653  0.3294  0.0915  0.0021
  739POPS   C3B 8327  18.056   3.904   8.061  0.1696  0.0375  0.0706
  739POPS   C4B 8328  18.024   4.174   8.437 -0.3071  0.2735  0.1745
  740POPS   CNO 8329  10.016   1.892   5.520 -0.3067  0.0182  0.1425
  740POPS   PO4 8330  10.418   1.990   5.499  0.1961 -0.0765 -0.0817
  740POPS   GL1 8331  10.536   1.765   5.836 -0.0722  0.1159 -0.1540
  740POPS   GL2 8332  10.902   1.647   5.853  0.0752 -0.3600 -0.0736
  740POPS   C1A 8333  10.621   1.524   6.203 -0.0476  0.2010 -0.1002
  740POPS   D2A 8334  10.546   1.281   6.487 -0.0656 -0.0406 -0.0256
  740POPS   C3A 8335  10.534   1.407   6.954  0.0156  0.2810  0.0251
  740POPS   C4A 8336  10.297   1.204   7.303  0.1170 -0.2266  0.0114
  740POPS   C1B 8337  10.900   2.028   6.209 -0.0949 -0.0656  0.2290
  740POPS   C2B 8338  10.751   2.118   6.611  0.1349  0.0834 -0.2250
  740POPS   C3B 8339  10.727   1.940   7.021  0.5163 -0.0132 -0.1814
  740POPS   C4B 8340  10.804   1.579   7.260  0.0223 -0.1862  0.0774
  741POPS   CNO 8341  17.200   3.583   6.024  0.2679  0.2358  0.1358
  741POPS   PO4 8342  16.824   3.362   6.227  0.2324 -0.2535 -0.0273
  741POPS   GL1 8343  16.589   3.441   6.635 -0.0592  0.2312  0.1944
  741POPS   GL2 8344  16.439   3.137   6.694 -0.0075 -0.0738  0.1398
  741POPS   C1A 8345  16.580   3.583   7.038  0.2770  0.0740 -0.0180
  741POPS   D2A 8346  16.508   3.393   7.365 -0.1331  0.0983 -0.3677
  741POPS   C3A 8347  16.142   3.183   7.493  0.0225 -0.2447  0.0469
  741POPS   C4A 8348  15.980   2.732   7.513  0.0452  0.0593  0.2830
  741POPS   C1B 8349  16.177   3.244   6.989 -0.2734 -0.1214 -0.2826
  741POPS   C2B 8350  15.750   3.314   7.079 -0.0449 -0.0519 -0.0255
  741POPS   C3B 8351  15.596   3.464   7.407 -0.1057 -0.1712 -0.2016
  741POPS   C4B 8352  15.375   3.478   7.621 -0.1003  0.0689 -0.0759
  742POPS   CNO 8353   6.836  18.006   5.218 -0.2065  0.0011  0.0800
  742POPS   PO4 8354   7.025  18.189   5.505  0.2598  0.1617 -0.3465
  742POPS   GL1 8355   6.805  18.181   5.845 -0.0671  0.0142  0.0322
  742POPS   GL2 8356   6.637  18.393   5.901  0.1104  0.2355  0.1462
  742POPS   C1A 8357   6.903  18.181   6.307  0.0821  0.1473 -0.0715
  742POPS   D2A 8358   7.032  17.820   6.546 -0.0796 -0.1412 -0.0490
  742POPS   C3A 8359   6.965  17.863   6.994  0.1428 -0.0666  0.2054
  742POPS   C4A 8360   7.000  18.125   7.410  0.0907  0.3659  0.2375
  742POPS   C1B 8361   7.018  18.699   6.139  0.6606  0.0822  0.0789
  742POPS   C2B 8362   7.260  18.640   6.615  0.1087 -0.0028 -0.0525
  742POPS   C3B 8363   7.440  18.819   6.916  0.3215  0.2264 -0.0373
  742POPS   C4B 8364   7.310  18.726   7.402  0.0904 -0.2906  0.2530
  743POPS   CNO 8365   7.104  14.611   5.562  0.0542 -0.1194  0.1736
  743POPS   PO4 8366   7.101  15.005   5.761  0.0554  0.1512 -0.3530
  743POPS   GL1 8367   7.233  15.020   6.180 -0.4211  0.1052  0.0470
  743POPS   GL2 8368   7.104  14.770   6.330  0.0455  0.1185 -0.1719
  743POPS   C1A 8369   7.218  15.206   6.612 -0.2707  0.0035 -0.0733
  743POPS   D2A 8370   7.335  15.112   7.043  0.2740 -0.1397  0.1922
  743POPS   C3A 8371   7.146  15.372   7.438 -0.2096  0.2321 -0.1766
  743POPS   C4A 8372   7.151  15.317   7.922 -0.1138  0.3446 -0.0986
  743POPS   C1B 8373   7.344  14.665   6.701 -0.0526  0.1192  0.0521
  743POPS   C2B 8374   7.445  14.626   7.047  0.0599  0.0574 -0.1800
  743POPS   C3B 8375   7.362  14.745   7.428  0.3529  0.0287  0.3267
  743POPS   C4B 8376   7.309  14.836   7.843  0.0136  0.0768 -0.2170
  744POPS   CNO 8377  16.460   5.526   5.543 -0.0797  0.0672  0.1857
  744POPS   PO4 8378  16.470   5.683   6.014 -0.1492 -0.0470 -0.0747
  744POPS   GL1 8379  16.492   5.535   6.352 -0.2791 -0.3744 -0.3520
  744POPS   GL2 8380  16.390   5.725   6.641  0.0287 -0.2285 -0.1689
  744POPS   C1A 8381  16.661   5.283   6.742 -0.0935 -0.1802 -0.1141
  744POPS   D2A 8382  16.548   5.114   7.166  0.1761  0.0528  0.2457
  744POPS   C3A 8383  16.513   4.995   7.544 -0.0916  0.0342  0.0549
  744POPS   C4A 8384  16.503   4.909   8.002  0.0778  0.1082  0.0133
  744POPS   C1B 8385  16.324   5.552   7.069 -0.0637  0.1147  0.0952
  744POPS   C2B 8386  16.117   5.594   7.406 -0.1178  0.2098  0.0325
  744POPS   C3B 8387  16.367   5.504   7.814  0.1467 -0.0953 -0.0379
  744POPS   C4B 8388  16.664   5.602   8.190  0.1818 -0.0837 -0.0296
  745POPS   CNO 8389   5.716   2.999   6.008 -0.0598 -0.1246  0.3597
  745POPS   PO4 8390   6.128   3.100   5.924  0.1354  0.0686 -0.1275
  745POPS   GL1 8391   6.305   2.778   6.161  0.1659 -0.1161  0.1329
  745POPS   GL2 8392   6.593   3.027   6.281  0.1338  0.0873  0.1070
  745POPS   C1A 8393   6.550   2.643   6.537 -0.0675  0.0149 -0.0729
  745POPS   D2A 8394   6.518   2.626   6.950 -0.1653 -0.1695 -0.0210
  745POPS   C3A 8395   6.687   2.363   7.304 -0.0704  0.0923  0.0660
  745POPS   C4A 8396   7.005   2.367   7.552  0.2183  0.1904 -0.0184
  745POPS   C1B 8397   6.703   3.076   6.790  0.0499  0.0193 -0.1323
  745POPS   C2B 8398   6.800   3.141   7.248  0.1185  0.0904  0.2147
  745POPS   C3B 8399   7.083   3.231   7.548 -0.2010 -0.0888  0.0386
  745POPS   C4B 8400   6.933   3.344   7.967  0.2736 -0.1526 -0.1675
  746POPS   CNO 8401   0.948   8.168   6.747  0.0760 -0.0562  0.1345
  746POPS   PO4 8402   1.338   8.239   6.469 -0.2373  0.2978  0.0328
  746POPS   GL1 8403   1.412   7.986   6.911  0.0784 -0.0496  0.0126
  746POPS   GL2 8404   1.809   7.933   6.995  0.0499  0.3673 -0.0275
  746POPS   C1A 8405   1.134   7.820   7.235 -0.1850  0.2437 -0.0305
  746POPS   D2A 8406   1.097   7.984   7.545  0.0973  0.0774  0.1709
  746POPS   C3A 8407   1.007   7.854   7.928 -0.1803  0.1369  0.0402
  746POPS   C4A 8408   0.714   7.750   8.468  0.1141 -0.2768 -0.4611
  746POPS   C1B 8409   2.018   8.016   7.345 -0.1929 -0.2442 -0.0268
  746POPS   C2B 8410   2.208   8.174   7.687  0.4560  0.1671 -0.1875
  746POPS   C3B 8411   2.246   8.326   8.120  0.2378 -0.1017  0.0804
  746POPS   C4B 8412   1.952   8.326   8.493 -0.1830  0.1373 -0.0605
  747POPS   CNO 8413   1.386   7.279   5.931 -0.2230  0.2040 -0.1001
  747POPS   PO4 8414   1.332   7.165   6.331  0.2212 -0.1806 -0.1332
  747POPS   GL1 8415   1.140   7.025   6.695 -0.0831 -0.0333 -0.2003
  747POPS   GL2 8416   1.398   7.061   6.820  0.0723  0.0036 -0.1757
  747POPS   C1A 8417   1.085   7.141   7.200 -0.0372  0.0129 -0.0163
  747POPS   D2A 8418   1.192   7.459   7.559 -0.2710  0.1726  0.4750
  747POPS   C3A 8419   1.148   7.398   7.989  0.0419  0.2588 -0.2477
  747POPS   C4A 8420   1.012   7.375   8.473 -0.0883 -0.1721 -0.0438
  747POPS   C1B 8421   1.541   7.460   7.116  0.0115 -0.0805  0.1850
  747POPS   C2B 8422   1.593   7.705   7.538  0.2887  0.3587  0.0807
  747POPS   C3B 8423   1.471   7.764   7.909 -0.1497  0.0996 -0.1013
  747POPS   C4B 8424   1.298   7.876   8.325 -0.0592  0.1444 -0.0138
  748POPS   CNO 8425   8.878   9.691   6.582  0.4561  0.0618 -0.1292
  748POPS   PO4 8426   8.969   9.845   6.954  0.0339  0.0444  0.0224
  748POPS   GL1 8427   9.248   9.794   7.300  0.0728 -0.0236  0.0532
  748POPS   GL2 8428   9.474   9.884   7.473 -0.0391 -0.0816 -0.0918
  748POPS   C1A 8429   9.066   9.761   7.690 -0.1479 -0.2245  0.2454
  748POPS   D2A 8430   8.985   9.805   8.073  0.4157  0.0429  0.1138
  748POPS   C3A 8431   9.231   9.607   8.463 -0.2626  0.2585 -0.1728
  748POPS   C4A 8432   9.473   9.285   8.448  0.2506 -0.1355 -0.1876
  748POPS   C1B 8433   9.462   9.917   7.961 -0.1889  0.3417 -0.0268
  748POPS   C2B 8434   9.643   9.856   8.362 -0.1273 -0.0433  0.2574
  748POPS   C3B 8435   9.955   9.850   8.649 -0.0483 -0.1900 -0.3083
  748POPS   C4B 8436  10.361   9.945   8.835 -0.2274 -0.0750 -0.1148
  749POPS   CNO 8437  14.228   3.193   5.868 -0.0233 -0.0204 -0.0592
  749POPS   PO4 8438  13.884   2.959   5.987 -0.1237 -0.0366  0.0157
  749POPS   GL1 8439  14.092   2.934   6.338  0.1649 -0.0038  0.0454
  749POPS   GL2 8440  14.081   3.219   6.398  0.0124 -0.1075  0.0397
  749POPS   C1A 8441  14.286   2.893   6.737 -0.3081  0.1225  0.2604
  749POPS   D2A 8442  14.504   2.668   7.133  0.0640 -0.2879  0.2328
  749POPS   C3A 8443  14.634   2.935   7.461  0.0566  0.3226 -0.1427
  749POPS   C4A 8444  14.548   2.786   7.790 -0.1037 -0.3506 -0.0744
  749POPS   C1B 8445  14.224   3.399   6.765 -0.3390  0.0679 -0.0137
  749POPS   C2B 8446  14.532   3.590   7.110  0.1266 -0.0931 -0.0683
  749POPS   C3B 8447  14.570   3.670   7.474 -0.1059 -0.1959 -0.1548
  749POPS   C4B 8448  14.480   3.700   7.845  0.3445  0.2156 -0.0361
  750POPS   CNO 8449  11.418   4.092   5.591  0.2267  0.3787 -0.1345
  750POPS   PO4 8450  11.659   4.380   5.746  0.0616 -0.2359 -0.3886
  750POPS   GL1 8451  11.592   4.498   6.144 -0.0238 -0.2052  0.2171
  750POPS   GL2 8452  11.765   4.686   6.348 -0.2357  0.0175  0.0721
  750POPS   C1A 8453  11.607   4.199   6.529 -0.1537  0.0916  0.3657
  750POPS   D2A 8454  11.420   3.898   6.836 -0.0954 -0.0409 -0.1255
  750POPS   C3A 8455  11.298   3.954   7.259 -0.3736 -0.0182 -0.0141
  750POPS   C4A 8456  11.081   3.868   7.561 -0.0191  0.3018 -0.1848
  750POPS   C1B 8457  11.628   4.558   6.870 -0.0212 -0.1797  0.1981
  750POPS   C2B 8458  11.648   4.320   7.255  0.1931  0.0100  0.0797
  750POPS   C3B 8459  11.425   4.192   7.679 -0.0330 -0.2337 -0.2362
  750POPS   C4B 8460  11.425   4.409   8.152  0.0077  0.2544  0.2055
  751POPS   CNO 8461   6.017   5.092   6.104 -0.0399 -0.1854  0.3725
  751POPS   PO4 8462   5.814   5.438   6.119 -0.2949 -0.0928  0.1025
  751POPS   GL1 8463   5.965   5.337   6.605 -0.3316 -0.3743  0.0935
  751POPS   GL2 8464   6.071   5.037   6.647  0.1886 -0.0820  0.1817
  751POPS   C1A 8465   6.116   5.433   7.024 -0.0361  0.3807  0.0065
  751POPS   D2A 8466   6.374   5.533   7.371 -0.0239  0.1234  0.1925
  751POPS   C3A 8467   6.442   5.490   7.873 -0.0951  0.0414  0.1695
  751POPS   C4A 8468   6.435   5.476   8.295  0.2038 -0.0362  0.0014
  751POPS   C1B 8469   6.114   4.928   6.971 -0.0676  0.1891 -0.1744
  751POPS   C2B 8470   6.076   4.769   7.418 -0.2462 -0.2925 -0.3462
  751POPS   C3B 8471   6.185   4.515   7.776  0.0050  0.1198  0.0370
  751POPS   C4B 8472   6.335   4.354   8.143 -0.0151 -0.1330 -0.1185
  752POPS   CNO 8473  10.679  10.478   6.566  0.2600  0.0409 -0.1083
  752POPS   PO4 8474  10.309  10.297   6.766 -0.1272 -0.0968 -0.1791
  752POPS   GL1 8475  10.231  10.415   7.091 -0.0214 -0.2800 -0.1397
  752POPS   GL2 8476  10.256  10.780   7.054 -0.0796 -0.1337 -0.2853
  752POPS   C1A 8477  10.242  10.413   7.598  0.3084  0.1335 -0.2470
  752POPS   D2A 8478  10.186  10.586   8.057 -0.1302  0.2190  0.3099
  752POPS   C3A 8479   9.867  10.725   8.400 -0.1704 -0.1702 -0.1374
  752POPS   C4A 8480   9.587  10.832   8.735 -0.1404 -0.1596 -0.3543
  752POPS   C1B 8481  10.026  10.828   7.447 -0.1889 -0.2483  0.1100
  752POPS   C2B 8482   9.823  10.952   7.915 -0.2607  0.0369 -0.1677
  752POPS   C3B 8483   9.543  11.215   8.254  0.1137 -0.1395 -0.0641
  752POPS   C4B 8484   9.282  11.193   8.596  0.3111 -0.5651 -0.0409
  753POPS   CNO 8485   1.885  16.070   5.773  0.2135 -0.1400  0.0331
  753POPS   PO4 8486   2.156  15.717   5.822  0.2003  0.1756 -0.1362
  753POPS   GL1 8487   2.238  15.622   6.202  0.0048  0.1640 -0.3500
  753POPS   GL2 8488   2.409  15.367   6.362 -0.2053  0.0277 -0.1552
  753POPS   C1A 8489   2.661  15.842   6.476 -0.0530 -0.1159 -0.1156
  753POPS   D2A 8490   3.070  15.978   6.671 -0.1386  0.0344  0.1287
  753POPS   C3A 8491   3.134  16.017   7.161  0.1628  0.1378 -0.1325
  753POPS   C4A 8492   3.134  16.004   7.689 -0.2033 -0.1453  0.1198
  753POPS   C1B 8493   2.405  15.346   6.783 -0.0114 -0.1961  0.1109
  753POPS   C2B 8494   2.576  15.253   7.220  0.0371  0.2512 -0.2011
  753POPS   C3B 8495   2.488  15.163   7.686 -0.1396  0.1177 -0.1092
  753POPS   C4B 8496   2.131  15.168   8.039  0.1495  0.3120 -0.1085
  754POPS   CNO 8497   2.100  17.207   6.021  0.0774 -0.2298  0.0935
  754POPS   PO4 8498   1.740  17.358   6.014  0.0912  0.0630 -0.1659
  754POPS   GL1 8499   1.731  17.543   6.382  0.1414  0.3366  0.2182
  754POPS   GL2 8500   1.951  17.337   6.475 -0.5120 -0.1462 -0.0164
  754POPS   C1A 8501   1.632  17.476   6.819 -0.0149 -0.0469  0.0677
  754POPS   D2A 8502   1.595  17.341   7.242 -0.2004  0.0226  0.1186
  754POPS   C3A 8503   1.872  17.195   7.588  0.2621 -0.0740 -0.0736
  754POPS   C4A 8504   1.783  16.966   8.078 -0.0040 -0.2181  0.4235
  754POPS   C1B 8505   2.258  17.335   6.888 -0.1570 -0.1266  0.0625
  754POPS   C2B 8506   2.325  17.178   7.338  0.2709  0.3401  0.0514
  754POPS   C3B 8507   2.407  17.222   7.809  0.2986 -0.1334 -0.3944
  754POPS   C4B 8508   2.329  17.333   8.134  0.1336  0.0280 -0.3132
  755POPS   CNO 8509   9.127  14.758   5.765 -0.2851  0.2655 -0.2250
  755POPS   PO4 8510   9.503  14.981   5.801 -0.0428  0.4279 -0.4200
  755POPS   GL1 8511   9.287  14.902   6.250  0.2354 -0.1913  0.0094
  755POPS   GL2 8512   9.285  14.628   6.523  0.0923 -0.2603 -0.1410
  755POPS   C1A 8513   9.291  15.148   6.576  0.1845 -0.0181  0.2446
  755POPS   D2A 8514   9.609  15.281   6.896  0.1163 -0.0486 -0.1121
  755POPS   C3A 8515   9.748  15.494   7.326 -0.2286  0.2425 -0.2306
  755POPS   C4A 8516   9.416  15.471   7.701  0.0591 -0.4237  0.1895
  755POPS   C1B 8517   9.466  14.772   6.903  0.0926 -0.2290 -0.0030
  755POPS   C2B 8518   9.438  14.935   7.212  0.0579  0.2661 -0.1583
  755POPS   C3B 8519   9.715  15.015   7.544  0.1739 -0.0652 -0.3038
  755POPS   C4B 8520   9.841  15.295   7.761 -0.0194  0.2373  0.0401
  756POPS   CNO 8521   2.699   6.815   6.340  0.1208  0.3967 -0.2282
  756POPS   PO4 8522   2.430   6.565   6.677  0.1220  0.1365 -0.2099
  756POPS   GL1 8523   2.390   6.436   7.164  0.3591 -0.1231 -0.1339
  756POPS   GL2 8524   2.024   6.540   7.363 -0.0521  0.2066  0.1577
  756POPS   C1A 8525   2.600   6.536   7.654  0.0714  0.1945  0.2110
  756POPS   D2A 8526   2.964   6.664   7.990 -0.1948 -0.2845 -0.2425
  756POPS   C3A 8527   2.906   6.504   8.407  0.1396 -0.0075 -0.0569
  756POPS   C4A 8528   2.708   6.379   8.868 -0.1790 -0.0966 -0.0735
  756POPS   C1B 8529   2.149   6.823   7.775 -0.0387 -0.2604  0.2077
  756POPS   C2B 8530   1.998   6.876   8.280 -0.0909  0.0032 -0.1281
  756POPS   C3B 8531   1.868   6.698   8.779 -0.0719 -0.0774  0.0478
  756POPS   C4B 8532   1.742   6.319   8.809 -0.0756  0.0682 -0.0135
  757POPS   CNO 8533  17.601  10.693   6.806 -0.0798  0.1966 -0.0229
  757POPS   PO4 8534  17.526  10.255   6.673 -0.0319  0.0027  0.3030
  757POPS   GL1 8535  17.702  10.238   7.047 -0.2275  0.0307  0.2411
  757POPS   GL2 8536  18.095  10.425   6.990  0.0934  0.0943  0.0490
  757POPS   C1A 8537  17.566  10.369   7.308 -0.1510  0.1225 -0.0579
  757POPS   D2A 8538  17.542  10.433   7.727  0.2804  0.1067  0.0758
  757POPS   C3A 8539  17.531  10.541   8.109  0.0766  0.1853  0.0941
  757POPS   C4A 8540  17.862  10.334   8.525  0.1174 -0.1483 -0.0191
  757POPS   C1B 8541  18.341  10.389   7.352 -0.0733 -0.0958 -0.1323
  757POPS   C2B 8542  18.449  10.499   7.800  0.0252  0.3126  0.0247
  757POPS   C3B 8543  18.807  10.351   8.067  0.0405  0.1119 -0.0892
  757POPS   C4B 8544  19.116  10.537   8.340  0.0377 -0.2337  0.1928
  758POPS   CNO 8545   3.634   2.988   5.864  0.1115 -0.0150  0.0044
  758POPS   PO4 8546   3.691   3.272   6.226  0.0319 -0.1070 -0.3031
  758POPS   GL1 8547   3.840   3.113   6.675  0.0309 -0.0442 -0.1486
  758POPS   GL2 8548   4.083   3.237   6.893 -0.2057  0.0641 -0.1636
  758POPS   C1A 8549   3.560   2.938   6.949 -0.1410  0.0744 -0.2778
  758POPS   D2A 8550   3.177   3.065   7.118 -0.1265 -0.1063 -0.0527
  758POPS   C3A 8551   3.054   3.036   7.540  0.2459  0.2401  0.3407
  758POPS   C4A 8552   3.073   3.086   7.969 -0.1241 -0.0442 -0.1956
  758POPS   C1B 8553   4.054   2.939   7.271  0.0043 -0.1115 -0.1434
  758POPS   C2B 8554   4.044   2.789   7.604  0.2278 -0.0610 -0.4166
  758POPS   C3B 8555   4.004   2.755   8.047 -0.1035  0.0174  0.0784
  758POPS   C4B 8556   3.890   2.706   8.448 -0.1076  0.3123 -0.1977
  759POPS   CNO 8557   7.659   7.313   6.563 -0.1663  0.2770  0.2048
  759POPS   PO4 8558   8.037   7.573   6.441 -0.0615  0.1982 -0.1023
  759POPS   GL1 8559   8.133   7.436   6.857 -0.0553  0.0654 -0.1863
  759POPS   GL2 8560   8.104   7.138   6.894  0.0428  0.2805  0.0812
  759POPS   C1A 8561   8.199   7.373   7.358 -0.1328 -0.1048 -0.3887
  759POPS   D2A 8562   8.200   7.219   7.823 -0.1796 -0.2253 -0.1484
  759POPS   C3A 8563   7.765   7.200   7.932  0.1766  0.0067  0.1341
  759POPS   C4A 8564   7.700   7.031   8.284  0.0599  0.0964  0.0600
  759POPS   C1B 8565   8.004   6.912   7.200 -0.1557 -0.1012  0.1762
  759POPS   C2B 8566   7.975   6.785   7.670  0.0624 -0.1680  0.0960
  759POPS   C3B 8567   8.162   6.780   8.160  0.2027 -0.0163  0.0557
  759POPS   C4B 8568   7.992   6.580   8.491  0.1695 -0.0504  0.0432
  760POPS   CNO 8569   7.086   1.458   5.755 -0.0127  0.3780 -0.3953
  760POPS   PO4 8570   6.964   1.862   5.524  0.1971  0.0716 -0.0186
  760POPS   GL1 8571   6.926   1.918   5.969 -0.1257 -0.2589 -0.3036
  760POPS   GL2 8572   6.677   1.963   6.112  0.2262  0.1521  0.0228
  760POPS   C1A 8573   7.194   1.898   6.371 -0.0814 -0.0550 -0.0112
  760POPS   D2A 8574   7.240   1.895   6.755  0.0751  0.0003  0.1954
  760POPS   C3A 8575   7.291   1.592   7.072 -0.3273 -0.0855  0.0048
  760POPS   C4A 8576   7.039   1.344   7.313 -0.1614  0.3411  0.1056
  760POPS   C1B 8577   6.745   1.831   6.562  0.0795 -0.1394 -0.2289
  760POPS   C2B 8578   6.827   1.551   6.903  0.0818 -0.0894 -0.3891
  760POPS   C3B 8579   6.683   1.184   6.951  0.0695  0.3266  0.0958
  760POPS   C4B 8580   6.418   0.941   7.144 -0.2298  0.2076  0.2000
  761POPS   CNO 8581   5.303  13.676   5.867  0.1404 -0.0985  0.1699
  761POPS   PO4 8582   5.491  13.796   6.338 -0.0362 -0.1764  0.1135
  761POPS   GL1 8583   5.656  13.724   6.756 -0.0106  0.0230  0.0699
  761POPS   GL2 8584   5.779  13.418   6.930  0.0421 -0.3793  0.2139
  761POPS   C1A 8585   5.740  13.897   7.187  0.1270  0.0028  0.4247
  761POPS   D2A 8586   5.448  13.895   7.496 -0.0498  0.0874 -0.3675
  761POPS   C3A 8587   5.235  14.061   7.860 -0.0320  0.3783  0.3305
  761POPS   C4A 8588   5.039  14.232   8.216  0.2114 -0.0393 -0.1112
  761POPS   C1B 8589   5.895  13.402   7.297 -0.1163 -0.1575 -0.1027
  761POPS   C2B 8590   5.885  13.674   7.654 -0.0215  0.2562 -0.2187
  761POPS   C3B 8591   5.735  13.934   7.920  0.2108 -0.0621 -0.1578
  761POPS   C4B 8592   5.458  14.023   8.329 -0.2368 -0.2388  0.2628
  762POPS   CNO 8593   0.094   9.257   6.266 -0.3793 -0.2392  0.1107
  762POPS   PO4 8594   0.365   9.206   6.603  0.0832 -0.2203  0.0247
  762POPS   GL1 8595   0.132   9.330   7.006  0.0852  0.0557  0.0084
  762POPS   GL2 8596   0.063   9.019   6.939  0.3805 -0.1491  0.0713
  762POPS   C1A 8597  -0.091   9.378   7.444 -0.2063  0.2344 -0.0710
  762POPS   D2A 8598  -0.505   9.352   7.577  0.3806  0.1682 -0.0892
  762POPS   C3A 8599  -0.663   9.405   8.011 -0.2766 -0.1056 -0.2103
  762POPS   C4A 8600  -0.876   9.426   8.346  0.0190  0.1715 -0.1080
  762POPS   C1B 8601   0.021   8.918   7.328 -0.1825 -0.0460 -0.2897
  762POPS   C2B 8602  -0.116   9.048   7.788 -0.1485  0.3472 -0.3113
  762POPS   C3B 8603  -0.132   9.277   8.130  0.0938 -0.2184  0.2873
  762POPS   C4B 8604  -0.028   9.310   8.596 -0.0381  0.1316  0.0360
  763POPS   CNO 8605   7.770   2.762   5.777  0.2354  0.2430 -0.0070
  763POPS   PO4 8606   7.533   2.629   5.415  0.0730  0.2502 -0.0376
  763POPS   GL1 8607   7.310   2.544   5.785  0.0200  0.3295 -0.1120
  763POPS   GL2 8608   7.036   2.676   5.740  0.1884 -0.1181 -0.1171
  763POPS   C1A 8609   7.319   2.315   6.146 -0.1655 -0.0034 -0.1582
  763POPS   D2A 8610   7.327   2.359   6.574  0.2580 -0.1342 -0.0937
  763POPS   C3A 8611   7.415   2.347   6.894  0.2099  0.1012 -0.0663
  763POPS   C4A 8612   7.616   2.256   7.224 -0.2064 -0.1473  0.1022
  763POPS   C1B 8613   6.789   2.481   6.059  0.1156  0.0127  0.2160
  763POPS   C2B 8614   6.888   2.269   6.434  0.0356 -0.0606 -0.0339
  763POPS   C3B 8615   6.890   2.266   6.853 -0.0430  0.1326  0.2578
  763POPS   C4B 8616   7.113   2.050   7.171  0.0761 -0.0641 -0.2813
  764POPS   CNO 8617   3.236   4.671   6.674 -0.0791  0.1319 -0.3119
  764POPS   PO4 8618   3.444   4.910   6.788 -0.1810 -0.1746  0.1565
  764POPS   GL1 8619   3.321   5.174   7.085  0.1332 -0.1591 -0.0205
  764POPS   GL2 8620   3.450   5.411   7.265  0.2774 -0.0375  0.0096
  764POPS   C1A 8621   3.066   5.126   7.431  0.0457 -0.0662  0.1156
  764POPS   D2A 8622   2.999   5.108   7.895 -0.1261  0.0602 -0.1115
  764POPS   C3A 8623   2.863   4.774   8.027  0.0522  0.0060 -0.1219
  764POPS   C4A 8624   2.928   4.423   8.172 -0.0619 -0.0250 -0.0337
  764POPS   C1B 8625   3.474   5.451   7.686 -0.2305 -0.2958  0.0221
  764POPS   C2B 8626   3.467   5.699   7.955 -0.2030  0.2865 -0.2084
  764POPS   C3B 8627   3.534   5.866   8.324  0.2335  0.1322  0.1393
  764POPS   C4B 8628   3.553   5.826   8.687  0.3132 -0.0124  0.0361
  765POPS   CNO 8629   4.494  10.151   6.551 -0.4023 -0.0975 -0.0283
  765POPS   PO4 8630   4.255  10.441   6.650  0.0112  0.0178 -0.0040
  765POPS   GL1 8631   4.121  10.733   6.995 -0.0169 -0.0189 -0.2562
  765POPS   GL2 8632   3.841  10.885   6.990 -0.0153  0.0022 -0.0321
  765POPS   C1A 8633   3.912  10.667   7.443 -0.0120 -0.0077  0.3381
  765POPS   D2A 8634   3.534  10.834   7.780 -0.0566  0.1625  0.0649
  765POPS   C3A 8635   3.166  10.713   7.873 -0.1968  0.0700 -0.0039
  765POPS   C4A 8636   2.892  10.839   8.049 -0.0948 -0.0784  0.4066
  765POPS   C1B 8637   3.443  10.956   7.220 -0.0414 -0.0469 -0.3509
  765POPS   C2B 8638   3.016  10.912   7.127  0.0924  0.2669 -0.2224
  765POPS   C3B 8639   2.646  10.814   6.989  0.1410 -0.0220  0.2168
  765POPS   C4B 8640   2.150  10.744   6.912 -0.2737  0.1881 -0.0178
  766POPS   CNO 8641   8.883   5.466   5.817 -0.1308 -0.1157  0.0928
  766POPS   PO4 8642   8.770   5.469   6.225  0.1464  0.3258 -0.5088
  766POPS   GL1 8643   8.678   5.156   6.524 -0.1524 -0.2058  0.1258
  766POPS   GL2 8644   8.735   4.902   6.448  0.0334 -0.0560 -0.2617
  766POPS   C1A 8645   8.399   5.019   6.933 -0.0656  0.0990  0.1277
  766POPS   D2A 8646   8.184   4.997   7.298  0.2266  0.0759 -0.1577
  766POPS   C3A 8647   8.388   4.713   7.666  0.0646 -0.1088  0.3672
  766POPS   C4A 8648   8.660   4.479   7.569  0.0243 -0.0169  0.2497
  766POPS   C1B 8649   8.784   4.556   6.713  0.1610 -0.2658  0.0194
  766POPS   C2B 8650   8.854   4.361   7.119 -0.4191  0.0565 -0.1503
  766POPS   C3B 8651   8.971   4.145   7.404  0.1267 -0.1002 -0.2045
  766POPS   C4B 8652   8.883   4.152   7.883 -0.1910  0.0894  0.1641
  767POPS   CNO 8653  15.541   5.283   6.057 -0.3028 -0.2173 -0.1728
  767POPS   PO4 8654  15.137   5.203   6.068  0.1470 -0.0866 -0.0300
  767POPS   GL1 8655  15.233   5.256   6.497 -0.0930 -0.0473 -0.2931
  767POPS   GL2 8656  15.552   5.445   6.552  0.3123 -0.0517  0.0257
  767POPS   C1A 8657  15.222   5.154   6.950  0.2836 -0.0167 -0.1374
  767POPS   D2A 8658  15.359   4.840   7.387 -0.1310  0.0721  0.0541
  767POPS   C3A 8659  15.150   4.800   7.756 -0.1544 -0.3912 -0.2006
  767POPS   C4A 8660  15.120   5.037   8.082  0.0489  0.0817 -0.3628
  767POPS   C1B 8661  15.297   5.670   6.854 -0.4132  0.1917 -0.1319
  767POPS   C2B 8662  15.155   5.518   7.286  0.0260  0.1057 -0.0255
  767POPS   C3B 8663  14.967   5.278   7.632 -0.0301 -0.4592  0.2112
  767POPS   C4B 8664  14.896   5.424   7.959  0.4149 -0.0426 -0.1929
  768POPS   CNO 8665   8.488   2.418   5.118  0.1055 -0.2126 -0.1520
  768POPS   PO4 8666   8.307   2.466   5.496 -0.0678 -0.0283 -0.2977
  768POPS   GL1 8667   8.113   2.432   5.916 -0.0350  0.0411  0.0676
  768POPS   GL2 8668   8.253   2.628   6.095  0.1004  0.0595  0.1447
  768POPS   C1A 8669   7.886   2.186   6.175  0.1181  0.1372 -0.0504
  768POPS   D2A 8670   7.655   2.013   6.464 -0.2741 -0.1020  0.1879
  768POPS   C3A 8671   7.849   1.902   6.850 -0.2402 -0.0922  0.5929
  768POPS   C4A 8672   8.050   2.010   7.203 -0.1165 -0.1160 -0.0436
  768POPS   C1B 8673   8.444   2.689   6.449 -0.1171 -0.1101  0.1391
  768POPS   C2B 8674   8.569   2.579   6.825  0.0594 -0.0386 -0.2224
  768POPS   C3B 8675   8.502   2.445   7.206 -0.3715 -0.0874 -0.4146
  768POPS   C4B 8676   8.312   2.195   7.588 -0.0439  0.1034 -0.0454
  769POPS   CNO 8677   6.012   9.877   5.918  0.0061  0.0617  0.0317
  769POPS   PO4 8678   6.149   9.690   6.169 -0.3133  0.1521  0.1901
  769POPS   GL1 8679   6.250   9.755   6.580 -0.1089 -0.1270  0.0356
  769POPS   GL2 8680   6.262   9.431   6.704 -0.1900  0.0944 -0.0754
  769POPS   C1A 8681   6.435  10.003   6.845 -0.1968 -0.0132 -0.1031
  769POPS   D2A 8682   6.604  10.197   7.163 -0.2260  0.1439  0.4169
  769POPS   C3A 8683   6.398  10.363   7.574  0.1432 -0.1423  0.0960
  769POPS   C4A 8684   6.355  10.278   7.966  0.2092  0.0377 -0.2045
  769POPS   C1B 8685   6.424   9.317   7.152  0.1740  0.0288  0.0451
  769POPS   C2B 8686   6.462   9.186   7.554 -0.2402  0.3109 -0.0687
  769POPS   C3B 8687   6.554   9.058   7.943 -0.0138  0.0053 -0.1808
  769POPS   C4B 8688   6.481   8.864   8.357  0.0063  0.0379 -0.1617
  770POPS   CNO 8689   6.134   4.371   5.938 -0.0883  0.1226 -0.1737
  770POPS   PO4 8690   6.431   3.999   6.121  0.0612 -0.0629  0.1201
  770POPS   GL1 8691   6.373   3.828   6.566  0.2707  0.2336 -0.1305
  770POPS   GL2 8692   6.427   3.535   6.519 -0.1661 -0.0837  0.1110
  770POPS   C1A 8693   6.367   3.557   7.044 -0.2778 -0.2488  0.2949
  770POPS   D2A 8694   6.481   3.493   7.461 -0.1741  0.1845 -0.0228
  770POPS   C3A 8695   6.497   3.163   7.815 -0.3129 -0.2887 -0.1212
  770POPS   C4A 8696   6.794   2.924   8.141  0.0829  0.1690 -0.2269
  770POPS   C1B 8697   6.780   3.545   6.774 -0.1955 -0.0827 -0.0604
  770POPS   C2B 8698   6.960   3.649   7.142  0.1212  0.1215 -0.1917
  770POPS   C3B 8699   7.083   3.708   7.626  0.1507 -0.2291  0.0740
  770POPS   C4B 8700   7.378   3.574   7.848 -0.1323  0.2882 -0.0871
  771POPS   CNO 8701  17.439  12.241   6.520  0.0029  0.0436  0.2439
  771POPS   PO4 8702  17.441  12.666   6.748 -0.0078 -0.1025  0.1681
  771POPS   GL1 8703  17.080  12.804   6.911  0.2576 -0.0560 -0.1942
  771POPS   GL2 8704  16.760  12.641   6.736  0.0417 -0.0842  0.0900
  771POPS   C1A 8705  17.082  12.958   7.278 -0.2105  0.2403 -0.3052
  771POPS   D2A 8706  16.831  12.943   7.671 -0.3486  0.2467 -0.0759
  771POPS   C3A 8707  16.839  13.123   8.016 -0.0621  0.0735  0.1504
  771POPS   C4A 8708  17.152  13.282   8.334 -0.1864 -0.1148  0.1278
  771POPS   C1B 8709  16.757  12.599   7.260 -0.0440 -0.0035 -0.0604
  771POPS   C2B 8710  16.810  12.454   7.721  0.2190  0.2281 -0.0557
  771POPS   C3B 8711  16.846  12.643   8.053  0.0620  0.1453 -0.2077
  771POPS   C4B 8712  17.182  12.817   8.245  0.2741  0.0876  0.3067
  772POPS   CNO 8713   3.490  13.300   6.126  0.0132  0.2068 -0.3608
  772POPS   PO4 8714   3.046  13.573   6.355  0.3780  0.0402  0.0142
  772POPS   GL1 8715   2.990  14.029   6.454  0.2657 -0.1468 -0.0380
  772POPS   GL2 8716   3.102  14.348   6.468 -0.0210 -0.0367  0.2156
  772POPS   C1A 8717   2.881  14.084   6.899 -0.3219  0.0930  0.1769
  772POPS   D2A 8718   2.928  13.947   7.312  0.0308 -0.2947  0.0704
  772POPS   C3A 8719   3.148  13.844   7.707 -0.0815  0.0201 -0.2680
  772POPS   C4A 8720   3.261  14.081   8.058 -0.0668 -0.3101  0.2121
  772POPS   C1B 8721   3.362  14.436   6.834  0.3153  0.0559 -0.2805
  772POPS   C2B 8722   3.465  14.616   7.172 -0.1005 -0.0604 -0.1266
  772POPS   C3B 8723   3.571  14.617   7.530 -0.0445 -0.0108  0.0611
  772POPS   C4B 8724   3.506  14.450   7.877 -0.1421 -0.2417 -0.1378
  773POPS   CNO 8725   6.413   8.120   6.076 -0.1026 -0.1818 -0.2641
  773POPS   PO4 8726   6.349   7.925   6.411 -0.0897 -0.0110  0.0685
  773POPS   GL1 8727   6.593   7.826   6.831  0.1628  0.2301  0.2060
  773POPS   GL2 8728   6.868   7.824   6.906 -0.0092 -0.0410  0.0440
  773POPS   C1A 8729   6.455   7.804   7.244  0.2212  0.1824  0.0595
  773POPS   D2A 8730   6.353   7.757   7.716  0.0755  0.0242 -0.1065
  773POPS   C3A 8731   6.617   7.719   8.140 -0.2175 -0.0921 -0.0170
  773POPS   C4A 8732   7.068   7.638   8.269  0.2069  0.2693 -0.2104
  773POPS   C1B 8733   6.898   7.947   7.425 -0.0612 -0.1356  0.0621
  773POPS   C2B 8734   6.925   7.871   7.794  0.0029  0.0249 -0.0726
  773POPS   C3B 8735   6.927   8.148   8.137  0.0126  0.2072  0.0812
  773POPS   C4B 8736   7.112   8.510   8.320  0.0035 -0.1436 -0.0928
  774POPS   CNO 8737  17.002  14.117   5.874  0.1467  0.0649 -0.0121
  774POPS   PO4 8738  16.683  14.238   6.139 -0.0638  0.2204 -0.3520
  774POPS   GL1 8739  16.726  14.336   6.540  0.1098 -0.0108 -0.0080
  774POPS   GL2 8740  16.942  14.527   6.702 -0.2265  0.0245 -0.3595
  774POPS   C1A 8741  16.736  13.942   6.763 -0.0309 -0.0562 -0.0017
  774POPS   D2A 8742  16.682  13.735   7.215 -0.0814 -0.1052 -0.2184
  774POPS   C3A 8743  16.379  13.830   7.414  0.2734  0.2708  0.0184
  774POPS   C4A 8744  15.955  13.731   7.510  0.0792  0.2424  0.0141
  774POPS   C1B 8745  16.641  14.263   7.090  0.0873  0.2197 -0.0779
  774POPS   C2B 8746  16.543  14.287   7.454  0.1181  0.1497 -0.0777
  774POPS   C3B 8747  16.521  14.284   7.948  0.1801 -0.0761  0.2617
  774POPS   C4B 8748  16.633  14.030   8.272 -0.3929  0.1474  0.0001
  775POPS   CNO 8749   4.035   9.412   6.480 -0.1727 -0.4355 -0.0967
  775POPS   PO4 8750   4.446   9.603   6.656 -0.0797 -0.2175 -0.0700
  775POPS   GL1 8751   4.258   9.775   7.011 -0.0625 -0.0311  0.0022
  775POPS   GL2 8752   4.295  10.023   6.971  0.2906  0.0899  0.1607
  775POPS   C1A 8753   4.534   9.973   7.383  0.1673 -0.0479  0.0420
  775POPS   D2A 8754   4.498  10.044   7.862 -0.3088 -0.0759  0.1468
  775POPS   C3A 8755   4.229  10.130   8.198 -0.1143  0.0075 -0.2569
  775POPS   C4A 8756   4.029   9.846   8.575  0.0595  0.4820  0.3531
  775POPS   C1B 8757   4.073  10.199   7.294  0.2749 -0.0463 -0.2871
  775POPS   C2B 8758   4.067  10.302   7.826 -0.1137 -0.1419 -0.1645
  775POPS   C3B 8759   3.908  10.540   8.091  0.1812 -0.0779 -0.1388
  775POPS   C4B 8760   3.605  10.696   8.238 -0.0416 -0.1478  0.0209
  776POPS   CNO 8761   5.476   6.366   6.396  0.2825  0.0279 -0.2124
  776POPS   PO4 8762   5.384   6.065   6.669  0.1803  0.0362 -0.1194
  776POPS   GL1 8763   5.368   6.291   6.915  0.2636  0.0664  0.2602
  776POPS   GL2 8764   5.247   6.555   6.760  0.0519  0.1457 -0.1289
  776POPS   C1A 8765   5.625   6.402   7.321  0.2203 -0.2380  0.0083
  776POPS   D2A 8766   5.815   6.570   7.742  0.1408 -0.2181  0.2611
  776POPS   C3A 8767   5.969   6.304   8.099  0.1061  0.2001 -0.0592
  776POPS   C4A 8768   6.130   6.344   8.482  0.1012  0.2904 -0.0279
  776POPS   C1B 8769   5.398   6.845   7.063  0.0088 -0.1646 -0.0060
  776POPS   C2B 8770   5.497   6.941   7.455 -0.1804 -0.0746 -0.2046
  776POPS   C3B 8771   5.573   7.072   7.803 -0.0710 -0.0703  0.1416
  776POPS   C4B 8772   5.522   7.407   8.245 -0.1049  0.1152 -0.0401
  777POPS   CNO 8773   5.546   3.659   5.914  0.1669  0.1122 -0.0030
  777POPS   PO4 8774   5.509   3.389   6.295  0.2045 -0.1382  0.1787
  777POPS   GL1 8775   5.541   3.371   6.814  0.0025 -0.0819 -0.1392
  777POPS   GL2 8776   5.492   3.149   6.963 -0.1464 -0.0107  0.1040
  777POPS   C1A 8777   5.791   3.532   7.145 -0.0880 -0.0453 -0.1758
  777POPS   D2A 8778   5.943   3.426   7.516 -0.3550  0.0188 -0.0842
  777POPS   C3A 8779   5.978   3.008   7.716 -0.1398  0.0670 -0.3473
  777POPS   C4A 8780   6.252   2.829   8.031 -0.0241 -0.0463 -0.0543
  777POPS   C1B 8781   5.624   2.976   7.308 -0.1912 -0.0640  0.2842
  777POPS   C2B 8782   5.480   2.729   7.646 -0.1283 -0.1341 -0.2839
  777POPS   C3B 8783   5.760   2.573   7.997 -0.0651 -0.4020 -0.0653
  777POPS   C4B 8784   5.810   2.720   8.376 -0.1031  0.1108 -0.1643
  778POPS   CNO 8785   3.581   6.613   6.380 -0.0604  0.1686 -0.1982
  778POPS   PO4 8786   3.652   6.666   6.762  0.1776  0.1525  0.0584
  778POPS   GL1 8787   3.843   6.808   7.051 -0.0768  0.0757 -0.0893
  778POPS   GL2 8788   4.295   6.796   6.998  0.0646 -0.1822 -0.1981
  778POPS   C1A 8789   4.049   6.859   7.396 -0.0400  0.1452  0.1223
  778POPS   D2A 8790   4.251   6.670   7.711  0.0384  0.1063 -0.0451
  778POPS   C3A 8791   4.202   6.953   7.966 -0.0875 -0.1183 -0.0381
  778POPS   C4A 8792   4.118   7.170   8.269  0.3267  0.0850  0.2426
  778POPS   C1B 8793   4.472   6.495   7.244  0.1844 -0.4070  0.2330
  778POPS   C2B 8794   4.290   6.190   7.463  0.0648  0.0244  0.3145
  778POPS   C3B 8795   4.485   5.831   7.738 -0.0116 -0.2117 -0.2666
  778POPS   C4B 8796   4.374   5.481   7.943  0.0551 -0.0726  0.1876
  779POPS   CNO 8797   1.910   3.505   5.995 -0.1374  0.1996 -0.1040
  779POPS   PO4 8798   1.949   3.246   6.324  0.1742  0.0021  0.2667
  779POPS   GL1 8799   2.031   3.138   6.705 -0.2116 -0.0501  0.1147
  779POPS   GL2 8800   2.308   2.886   6.859 -0.0385 -0.0225  0.2799
  779POPS   C1A 8801   1.898   3.139   7.096  0.2486  0.0264 -0.0333
  779POPS   D2A 8802   1.723   3.105   7.597  0.0221 -0.0460  0.2232
  779POPS   C3A 8803   1.751   2.670   7.795  0.0581 -0.2828 -0.0060
  779POPS   C4A 8804   1.678   2.312   8.174 -0.1698 -0.0091 -0.2272
  779POPS   C1B 8805   2.586   2.907   7.272  0.1924  0.0349  0.1139
  779POPS   C2B 8806   2.618   2.887   7.679  0.1622  0.1029 -0.0918
  779POPS   C3B 8807   2.834   2.651   8.033  0.3171  0.2430 -0.0360
  779POPS   C4B 8808   3.017   2.359   8.292 -0.1373  0.0777  0.1810
  780POPS   CNO 8809   4.579  14.542   5.887 -0.1658 -0.0807 -0.1362
  780POPS   PO4 8810   4.691  14.201   6.166 -0.1338 -0.1774 -0.1841
  780POPS   GL1 8811   4.517  14.591   6.419 -0.1963 -0.2123  0.1359
  780POPS   GL2 8812   4.242  14.534   6.464  0.0180 -0.4154  0.3551
  780POPS   C1A 8813   4.293  14.656   6.939 -0.0906 -0.1576 -0.2609
  780POPS   D2A 8814   4.471  14.635   7.383  0.0554 -0.2344 -0.0665
  780POPS   C3A 8815   4.237  14.652   7.664  0.2278 -0.0050 -0.3521
  780POPS   C4A 8816   3.989  14.425   7.873 -0.3285  0.0863  0.3461
  780POPS   C1B 8817   4.473  14.250   6.765 -0.1903  0.0229  0.3187
  780POPS   C2B 8818   4.521  14.075   7.036  0.1422  0.0335  0.2549
  780POPS   C3B 8819   4.308  13.722   7.327  0.0518 -0.1841 -0.1787
  780POPS   C4B 8820   3.956  13.694   7.483  0.2368 -0.0838 -0.2847
  781POPS   CNO 8821   3.668   9.161   6.730 -0.0572  0.0680 -0.1182
  781POPS   PO4 8822   3.304   8.948   6.572  0.1520  0.0944  0.2483
  781POPS   GL1 8823   3.248   9.158   7.041 -0.2638  0.2637 -0.0561
  781POPS   GL2 8824   3.404   9.462   7.157 -0.1224 -0.1934  0.1979
  781POPS   C1A 8825   3.120   9.183   7.482  0.0074 -0.1855  0.0133
  781POPS   D2A 8826   2.732   9.392   7.693 -0.0933 -0.0853  0.2242
  781POPS   C3A 8827   2.567   9.267   8.125  0.2580 -0.2214 -0.0916
  781POPS   C4A 8828   2.262   9.202   8.394 -0.3789 -0.0307 -0.2976
  781POPS   C1B 8829   3.528   9.407   7.534  0.0772  0.1583  0.0013
  781POPS   C2B 8830   3.630   9.467   7.975 -0.0445  0.1011 -0.1330
  781POPS   C3B 8831   3.582   9.591   8.349 -0.0224  0.3029  0.1623
  781POPS   C4B 8832   3.458   9.673   8.795 -0.1393  0.1584  0.1851
  782POPS   CNO 8833  13.039  10.442   6.919  0.0737  0.2719  0.0184
  782POPS   PO4 8834  12.838  10.587   6.422 -0.0462  0.1203 -0.1045
  782POPS   GL1 8835  12.852  10.874   6.774  0.1453 -0.2311 -0.2738
  782POPS   GL2 8836  12.602  11.134   6.886 -0.0733  0.2430  0.3843
  782POPS   C1A 8837  12.731  10.709   7.200 -0.1920 -0.0481 -0.0392
  782POPS   D2A 8838  12.597  10.557   7.615 -0.0343  0.0904  0.1403
  782POPS   C3A 8839  12.548  10.643   7.991  0.0384  0.1434 -0.0364
  782POPS   C4A 8840  12.697  10.666   8.419 -0.0330  0.2943  0.3404
  782POPS   C1B 8841  12.507  11.291   7.353  0.0768  0.3921  0.1229
  782POPS   C2B 8842  12.404  11.571   7.709  0.0621 -0.1029 -0.2822
  782POPS   C3B 8843  12.375  11.557   8.171 -0.2388  0.0804 -0.1355
  782POPS   C4B 8844  12.409  11.492   8.597 -0.1963  0.1381  0.2074
  783POPS   CNO 8845   5.630   1.832   5.387  0.2051 -0.1080 -0.0724
  783POPS   PO4 8846   5.402   2.069   5.669  0.0725 -0.1673 -0.4358
  783POPS   GL1 8847   5.747   2.197   5.947  0.0307 -0.2313 -0.2068
  783POPS   GL2 8848   5.757   1.917   6.238 -0.2410 -0.1256  0.0659
  783POPS   C1A 8849   5.876   2.529   6.182  0.4850 -0.2735  0.1223
  783POPS   D2A 8850   6.081   2.601   6.572 -0.4369 -0.0378 -0.0225
  783POPS   C3A 8851   6.025   2.498   7.064 -0.1738  0.1318  0.0175
  783POPS   C4A 8852   5.969   2.583   7.481 -0.3781  0.3012  0.0860
  783POPS   C1B 8853   5.791   1.692   6.616 -0.2813 -0.0525  0.1989
  783POPS   C2B 8854   5.785   1.433   6.961 -0.0941  0.1959  0.0835
  783POPS   C3B 8855   5.989   1.173   7.262  0.1378  0.3693  0.2769
  783POPS   C4B 8856   6.129   1.110   7.566 -0.1960  0.0713  0.0967
  784POPS   CNO 8857  12.203   2.091   5.665 -0.1566 -0.1867 -0.0108
  784POPS   PO4 8858  11.850   2.461   5.838  0.0891 -0.1897  0.3473
  784POPS   GL1 8859  12.086   2.436   6.243 -0.1814  0.0603 -0.0382
  784POPS   GL2 8860  12.352   2.608   6.331 -0.1084 -0.3180  0.0675
  784POPS   C1A 8861  12.096   2.283   6.691  0.0120 -0.1683 -0.3435
  784POPS   D2A 8862  12.257   2.102   7.039  0.2819 -0.0708 -0.1735
  784POPS   C3A 8863  12.092   2.239   7.407  0.0542 -0.2953 -0.2299
  784POPS   C4A 8864  11.895   2.064   7.718  0.0911  0.0388 -0.0502
  784POPS   C1B 8865  12.206   2.817   6.749  0.4539  0.1636  0.2666
  784POPS   C2B 8866  12.135   2.649   7.116 -0.1755 -0.0259 -0.3724
  784POPS   C3B 8867  12.311   2.685   7.491  0.0243 -0.0189 -0.0952
  784POPS   C4B 8868  12.425   2.720   7.945 -0.4390  0.2948  0.0264
  785POPS   CNO 8869   9.784   4.001   6.075  0.0357 -0.0660 -0.4630
  785POPS   PO4 8870   9.337   4.007   6.133  0.0042  0.0582 -0.1051
  785POPS   GL1 8871   9.171   4.060   6.556  0.1010  0.4729 -0.0805
  785POPS   GL2 8872   9.330   4.286   6.770 -0.3578 -0.4204  0.0529
  785POPS   C1A 8873   9.073   3.939   6.983  0.0038  0.3672 -0.0052
  785POPS   D2A 8874   9.264   3.758   7.301 -0.0018 -0.0411  0.0187
  785POPS   C3A 8875   9.664   3.744   7.435  0.0186 -0.0937  0.3880
  785POPS   C4A 8876   9.756   3.692   7.836 -0.0931 -0.2257  0.0453
  785POPS   C1B 8877   9.548   4.193   7.080 -0.0672  0.0136  0.4437
  785POPS   C2B 8878   9.498   4.182   7.436 -0.1711 -0.2809 -0.1231
  785POPS   C3B 8879   9.386   4.005   7.793 -0.1130 -0.0237 -0.0683
  785POPS   C4B 8880   9.263   3.580   7.770  0.0962 -0.2387 -0.1982
  786POPS   CNO 8881   9.801   9.668   6.142 -0.1494 -0.0082 -0.1146
  786POPS   PO4 8882   9.931   9.481   6.516 -0.3060  0.3043  0.0156
  786POPS   GL1 8883   9.886   9.423   6.910  0.0497  0.0827  0.1112
  786POPS   GL2 8884  10.032   9.116   6.933  0.2513  0.0606  0.4091
  786POPS   C1A 8885   9.804   9.610   7.252  0.2220  0.1008  0.2023
  786POPS   D2A 8886   9.928  10.004   7.381 -0.4381  0.3173  0.3160
  786POPS   C3A 8887  10.015   9.916   7.793 -0.0115  0.1514  0.0126
  786POPS   C4A 8888   9.968  10.064   8.061 -0.2240 -0.0169  0.0454
  786POPS   C1B 8889   9.883   9.112   7.309 -0.0525  0.1901  0.1162
  786POPS   C2B 8890  10.015   9.000   7.688 -0.1487  0.1255 -0.0291
  786POPS   C3B 8891  10.144   9.024   8.078 -0.1842 -0.1122 -0.0374
  786POPS   C4B 8892  10.359   9.007   8.408 -0.0995  0.0670 -0.1382
  787POPS   CNO 8893  14.765   5.960   6.161  0.3324 -0.1979 -0.1333
  787POPS   PO4 8894  14.270   5.755   6.064 -0.0297  0.1518 -0.0373
  787POPS   GL1 8895  14.411   5.898   6.509  0.2024 -0.3060  0.0100
  787POPS   GL2 8896  14.100   6.015   6.635  0.0686 -0.0720  0.0218
  787POPS   C1A 8897  14.458   5.838   6.944 -0.2443 -0.0660 -0.1812
  787POPS   D2A 8898  14.388   6.048   7.247  0.1875  0.1217  0.3673
  787POPS   C3A 8899  14.487   5.960   7.647  0.2279 -0.1068 -0.1319
  787POPS   C4A 8900  14.709   5.837   7.955  0.2234  0.0658  0.1823
  787POPS   C1B 8901  14.036   6.296   7.057 -0.1801  0.0211 -0.4888
  787POPS   C2B 8902  13.857   6.277   7.479  0.2438  0.0375 -0.1082
  787POPS   C3B 8903  13.674   6.330   7.861 -0.3997  0.0026  0.0261
  787POPS   C4B 8904  13.683   6.320   8.242  0.3788 -0.1203  0.3670
  788POPS   CNO 8905  17.115  17.775   5.716 -0.2495  0.0469  0.3671
  788POPS   PO4 8906  17.174  18.100   5.992 -0.1218 -0.1175  0.1476
  788POPS   GL1 8907  17.182  18.277   6.334  0.1251  0.0440  0.0968
  788POPS   GL2 8908  17.209  18.137   6.514 -0.0248  0.1127 -0.1765
  788POPS   C1A 8909  17.062  18.540   6.744  0.2229 -0.1689  0.2169
  788POPS   D2A 8910  17.117  18.858   7.073  0.2460 -0.1325 -0.1432
  788POPS   C3A 8911  16.973  18.825   7.431  0.0383  0.0961  0.1803
  788POPS   C4A 8912  16.821  18.523   7.694 -0.0041  0.2242  0.1605
  788POPS   C1B 8913  17.112  17.978   6.875 -0.1412 -0.2573 -0.1266
  788POPS   C2B 8914  17.114  17.951   7.321 -0.2617  0.1206  0.2104
  788POPS   C3B 8915  16.980  17.840   7.688 -0.0188  0.0796 -0.2414
  788POPS   C4B 8916  16.602  17.663   7.689 -0.0106 -0.0916  0.1378
  789POPS   CNO 8917   5.722   1.450   5.770 -0.0165  0.3511 -0.0566
  789POPS   PO4 8918   6.119   1.325   5.773 -0.1251  0.0960  0.0454
  789POPS   GL1 8919   6.295   1.249   6.078  0.0746  0.1664 -0.1827
  789POPS   GL2 8920   6.285   1.613   6.221 -0.2049  0.1160 -0.3376
  789POPS   C1A 8921   6.793   1.280   6.186  0.0138 -0.0846 -0.3842
  789POPS   D2A 8922   7.087   1.426   6.525  0.1856 -0.3095 -0.4681
  789POPS   C3A 8923   7.296   1.163   6.865  0.0446  0.1646  0.2315
  789POPS   C4A 8924   7.456   1.071   7.184  0.2322 -0.0739 -0.0164
  789POPS   C1B 8925   6.253   1.458   6.664  0.1761 -0.2123  0.2575
  789POPS   C2B 8926   6.307   1.518   7.068  0.0403  0.1504 -0.0433
  789POPS   C3B 8927   6.445   1.515   7.400  0.1213 -0.1687  0.1213
  789POPS   C4B 8928   6.445   1.670   7.823 -0.0707 -0.1522  0.1465
  790POPS   CNO 8929  18.125   2.072   6.374  0.0105  0.1071 -0.2206
  790POPS   PO4 8930  18.139   1.774   6.108  0.1771 -0.0513 -0.0255
  790POPS   GL1 8931  18.212   1.539   6.534  0.1602 -0.1505 -0.1210
  790POPS   GL2 8932  18.422   1.327   6.599  0.1315 -0.1915 -0.2234
  790POPS   C1A 8933  18.448   1.755   6.914  0.2059 -0.0767  0.0276
  790POPS   D2A 8934  18.871   1.888   6.972  0.0966  0.2193 -0.0556
  790POPS   C3A 8935  18.955   2.155   7.258  0.0054 -0.2412 -0.0223
  790POPS   C4A 8936  19.166   2.452   7.539  0.1753 -0.1744  0.0731
  790POPS   C1B 8937  18.132   1.369   6.996  0.2496  0.0655  0.0015
  790POPS   C2B 8938  17.863   1.168   7.327  0.0455  0.0233  0.0688
  790POPS   C3B 8939  17.757   1.253   7.765  0.2562  0.1873 -0.0355
  790POPS   C4B 8940  17.644   1.163   8.257 -0.1864  0.2229  0.0737
  791POPS   CNO 8941  15.567  16.671   5.684 -0.2448 -0.0555 -0.2097
  791POPS   PO4 8942  15.472  17.104   5.647  0.3581  0.0730  0.0078
  791POPS   GL1 8943  15.743  17.311   6.009  0.1890  0.0693 -0.1408
  791POPS   GL2 8944  15.682  17.641   6.100 -0.1496  0.0887  0.0606
  791POPS   C1A 8945  15.629  17.339   6.505  0.1521  0.1120 -0.2604
  791POPS   D2A 8946  15.488  17.441   6.904  0.0189  0.0904 -0.1301
  791POPS   C3A 8947  15.405  17.787   7.191  0.1487  0.0241  0.1095
  791POPS   C4A 8948  15.266  18.216   7.371  0.0421 -0.0967 -0.1125
  791POPS   C1B 8949  15.530  17.842   6.437 -0.0578 -0.2052 -0.1516
  791POPS   C2B 8950  15.684  18.260   6.655 -0.1903  0.1912 -0.1722
  791POPS   C3B 8951  15.645  18.714   6.653 -0.0084  0.0012 -0.0620
  791POPS   C4B 8952  15.405  19.021   6.658  0.1057  0.1863  0.1972
  792POPS   CNO 8953   6.004  13.446   6.466  0.2115  0.1484 -0.0525
  792POPS   PO4 8954   6.203  13.145   6.640  0.1681  0.2416 -0.0817
  792POPS   GL1 8955   6.040  12.931   6.991 -0.0163  0.0738 -0.1181
  792POPS   GL2 8956   5.709  12.900   7.084 -0.0173  0.1705 -0.0213
  792POPS   C1A 8957   6.109  12.812   7.397 -0.1274  0.2863  0.0466
  792POPS   D2A 8958   5.990  12.719   7.885  0.1542 -0.1626  0.0174
  792POPS   C3A 8959   6.307  12.729   8.315  0.1537 -0.1820  0.0530
  792POPS   C4A 8960   6.656  12.986   8.448  0.0788  0.4104  0.0569
  792POPS   C1B 8961   5.635  13.011   7.461 -0.1744 -0.1106 -0.0503
  792POPS   C2B 8962   5.561  13.309   7.741  0.1786  0.0821  0.0737
  792POPS   C3B 8963   5.410  13.534   8.087 -0.1628 -0.2534 -0.0204
  792POPS   C4B 8964   5.724  13.616   8.322 -0.1356  0.2774 -0.2153
  793POPS   CNO 8965  14.262   6.325   6.263  0.0144 -0.1435 -0.1334
  793POPS   PO4 8966  14.617   6.390   6.495  0.1173 -0.3078 -0.0943
  793POPS   GL1 8967  14.598   6.474   6.871  0.1277  0.0010 -0.1422
  793POPS   GL2 8968  14.836   6.468   7.050  0.0561  0.0380  0.1285
  793POPS   C1A 8969  14.386   6.659   7.199 -0.0014 -0.2768  0.3798
  793POPS   D2A 8970  14.280   6.513   7.610 -0.0489  0.1869 -0.0786
  793POPS   C3A 8971  14.185   6.266   7.927  0.0704  0.0542  0.2777
  793POPS   C4A 8972  14.147   6.181   8.352  0.1950  0.1465  0.1657
  793POPS   C1B 8973  14.815   6.345   7.443  0.1468  0.2536 -0.3290
  793POPS   C2B 8974  15.139   6.315   7.723  0.0929 -0.1482 -0.0980
  793POPS   C3B 8975  15.087   6.408   8.166 -0.0109 -0.2299  0.0391
  793POPS   C4B 8976  15.263   6.542   8.385  0.0543  0.0575 -0.1543
  794POPS   CNO 8977   7.929   2.216   4.949 -0.3291  0.1298  0.2477
  794POPS   PO4 8978   8.180   1.866   5.235 -0.1440 -0.2058 -0.2410
  794POPS   GL1 8979   7.954   1.638   5.591 -0.1547 -0.0257  0.2072
  794POPS   GL2 8980   7.897   1.310   5.656  0.1394 -0.0711 -0.0884
  794POPS   C1A 8981   7.704   1.728   5.959 -0.4412  0.1508 -0.1558
  794POPS   D2A 8982   7.458   1.488   6.217  0.3014  0.0324  0.1055
  794POPS   C3A 8983   7.676   1.313   6.502 -0.2025  0.2859 -0.0990
  794POPS   C4A 8984   7.840   1.341   6.943 -0.0198  0.0210 -0.3829
  794POPS   C1B 8985   7.936   1.246   6.061  0.0272  0.3739  0.0219
  794POPS   C2B 8986   8.120   1.019   6.450 -0.1847  0.2326 -0.1545
  794POPS   C3B 8987   7.900   0.773   6.842 -0.0686 -0.0318  0.1121
  794POPS   C4B 8988   7.833   0.552   7.248 -0.0445  0.2423  0.0166
  795POPS   CNO 8989   7.362  16.216   5.851 -0.1579  0.0489  0.1284
  795POPS   PO4 8990   7.413  15.815   5.836  0.1272  0.0840  0.2868
  795POPS   GL1 8991   7.188  15.868   6.178  0.1716 -0.0562 -0.1221
  795POPS   GL2 8992   6.779  16.032   6.263 -0.2632  0.0813 -0.0064
  795POPS   C1A 8993   7.020  15.897   6.633  0.1366 -0.0823  0.1697
  795POPS   D2A 8994   7.122  16.168   6.873 -0.2647  0.0326  0.2834
  795POPS   C3A 8995   7.489  16.125   7.090 -0.0639 -0.0616 -0.0220
  795POPS   C4A 8996   7.862  16.028   7.427 -0.0326  0.1057  0.1810
  795POPS   C1B 8997   6.647  16.229   6.655 -0.0013 -0.3840  0.1123
  795POPS   C2B 8998   6.816  16.579   6.941  0.0261 -0.2453 -0.3324
  795POPS   C3B 8999   6.664  16.793   7.293  0.1384 -0.0529  0.1000
  795POPS   C4B 9000   6.405  17.042   7.423  0.0404 -0.1093  0.2933
  796POPS   CNO 9001  11.228  11.148   6.241  0.3546  0.2925  0.2135
  796POPS   PO4 9002  11.493  10.990   6.322 -0.0533 -0.0374  0.3034
  796POPS   GL1 9003  11.539  11.062   6.790 -0.1820  0.1131 -0.1043
  796POPS   GL2 9004  11.216  11.148   6.886  0.1374  0.0500  0.1495
  796POPS   C1A 9005  11.762  10.977   7.232  0.0223 -0.2597 -0.1395
  796POPS   D2A 9006  11.591  10.804   7.685  0.2512 -0.1018 -0.0576
  796POPS   C3A 9007  11.583  10.861   8.073  0.0696  0.0258 -0.1642
  796POPS   C4A 9008  11.575  10.940   8.550 -0.1363 -0.0605  0.1548
  796POPS   C1B 9009  11.383  11.241   7.376 -0.0511 -0.1086  0.0047
  796POPS   C2B 9010  11.301  11.308   7.806  0.0686 -0.0390  0.0203
  796POPS   C3B 9011  11.427  11.403   8.210  0.1767 -0.1338  0.2932
  796POPS   C4B 9012  11.502  11.724   8.381  0.0233  0.0358 -0.1640
  797POPS   CNO 9013   1.750   5.973   6.002 -0.0903  0.1878  0.1275
  797POPS   PO4 9014   1.440   5.764   6.327 -0.3407 -0.0294  0.2100
  797POPS   GL1 9015   1.356   5.627   6.789 -0.2334  0.0919 -0.4670
  797POPS   GL2 9016   1.726   5.592   6.991 -0.0158  0.0651 -0.0223
  797POPS   C1A 9017   1.163   5.296   7.090  0.0334 -0.1686  0.1859
  797POPS   D2A 9018   1.041   5.293   7.504  0.2104 -0.2474  0.0778
  797POPS   C3A 9019   0.676   5.104   7.710  0.2238 -0.2548 -0.0488
  797POPS   C4A 9020   0.426   5.260   8.052  0.0250 -0.0922 -0.0065
  797POPS   C1B 9021   1.583   5.464   7.411  0.3370  0.1173  0.2711
  797POPS   C2B 9022   1.319   5.723   7.637 -0.3026  0.0527  0.2515
  797POPS   C3B 9023   1.259   5.860   8.059 -0.0919 -0.3349 -0.2441
  797POPS   C4B 9024   0.959   6.058   8.397 -0.1335 -0.3092 -0.0276
  798POPS   CNO 9025   4.317   0.389   5.922 -0.0733  0.2007 -0.0701
  798POPS   PO4 9026   4.091   0.759   6.026 -0.1763  0.2727  0.2841
  798POPS   GL1 9027   4.047   0.740   6.541 -0.0347 -0.2396 -0.1152
  798POPS   GL2 9028   4.031   1.130   6.650  0.0143  0.3073  0.1745
  798POPS   C1A 9029   4.195   0.744   6.996  0.1690 -0.1846  0.3249
  798POPS   D2A 9030   4.262   0.673   7.384  0.1072  0.2068  0.3759
  798POPS   C3A 9031   4.137   0.315   7.638 -0.1719  0.2164  0.1145
  798POPS   C4A 9032   4.184  -0.131   7.685  0.0260  0.0769 -0.1475
  798POPS   C1B 9033   3.873   1.161   6.989  0.0078 -0.1362 -0.0936
  798POPS   C2B 9034   3.908   1.070   7.353 -0.0681  0.0975 -0.0521
  798POPS   C3B 9035   3.921   0.795   7.716  0.0568  0.0611 -0.1591
  798POPS   C4B 9036   3.645   0.564   8.007 -0.0930  0.0922  0.2552
  799POPS   CNO 9037   9.043   7.589   6.354  0.1464  0.0626  0.0303
  799POPS   PO4 9038   8.944   7.280   6.651  0.1817 -0.1907 -0.0915
  799POPS   GL1 9039   8.761   7.476   6.982 -0.1506  0.1588  0.1415
  799POPS   GL2 9040   9.113   7.327   7.157  0.0827  0.1951  0.2217
  799POPS   C1A 9041   8.691   7.464   7.399  0.2898 -0.0422  0.2224
  799POPS   D2A 9042   8.640   7.444   7.884 -0.0800 -0.2473 -0.4162
  799POPS   C3A 9043   8.951   7.506   8.247  0.1599  0.0786 -0.2098
  799POPS   C4A 9044   9.099   7.434   8.448 -0.4128 -0.4590  0.1211
  799POPS   C1B 9045   9.135   7.152   7.530 -0.0310 -0.2656 -0.0222
  799POPS   C2B 9046   9.012   7.087   7.977 -0.0727 -0.0960 -0.1363
  799POPS   C3B 9047   8.547   7.078   8.240 -0.0473 -0.1465 -0.0640
  799POPS   C4B 9048   8.093   7.310   8.290  0.0661  0.0730  0.0441
  800POPS   CNO 9049  13.149  15.550   5.254 -0.0124 -0.1303  0.0226
  800POPS   PO4 9050  13.153  15.340   5.672  0.0556  0.0699 -0.1067
  800POPS   GL1 9051  13.067  15.593   6.056 -0.2288 -0.0610 -0.0053
  800POPS   GL2 9052  13.231  15.520   6.366  0.0023  0.0348 -0.0746
  800POPS   C1A 9053  13.062  16.011   6.346  0.0274  0.0926 -0.2438
  800POPS   D2A 9054  12.864  16.416   6.562 -0.1292  0.1781 -0.1329
  800POPS   C3A 9055  12.798  16.373   7.006 -0.0009 -0.2768  0.2517
  800POPS   C4A 9056  12.454  16.423   7.370  0.0779 -0.2920  0.3225
  800POPS   C1B 9057  13.513  15.555   6.626 -0.0869 -0.0382 -0.0937
  800POPS   C2B 9058  13.560  15.670   7.079  0.3421 -0.1494  0.1698
  800POPS   C3B 9059  13.706  15.866   7.438  0.1254  0.5738 -0.2216
  800POPS   C4B 9060  13.840  16.003   7.770 -0.2291  0.1472 -0.2358
  801POPS   CNO 9061  15.908  11.530   6.645 -0.0283 -0.0792  0.0254
  801POPS   PO4 9062  15.756  11.909   6.449 -0.1847  0.0735  0.0572
  801POPS   GL1 9063  15.521  11.799   6.855  0.1014 -0.0303  0.1778
  801POPS   GL2 9064  15.493  11.366   6.911 -0.0220 -0.2370 -0.2360
  801POPS   C1A 9065  15.361  11.780   7.244  0.2246 -0.5675  0.3178
  801POPS   D2A 9066  15.507  11.627   7.615  0.0996 -0.0154  0.1035
  801POPS   C3A 9067  15.635  11.978   7.731  0.1664 -0.3057 -0.2548
  801POPS   C4A 9068  15.896  12.269   7.998 -0.3444  0.0866  0.0003
  801POPS   C1B 9069  15.831  11.546   7.161  0.0319 -0.3563  0.0371
  801POPS   C2B 9070  16.037  11.674   7.548  0.1931 -0.3179 -0.1033
  801POPS   C3B 9071  15.923  11.586   7.904 -0.3637  0.1741 -0.0715
  801POPS   C4B 9072  15.828  11.419   8.304 -0.3201  0.0728 -0.2568
  802POPS   CNO 9073   6.196  15.367   6.114  0.3424 -0.1430 -0.1403
  802POPS   PO4 9074   5.855  15.583   6.143  0.2132 -0.2361  0.2329
  802POPS   GL1 9075   5.941  15.525   6.575  0.2331  0.3930  0.0468
  802POPS   GL2 9076   6.064  15.280   6.632 -0.1798  0.0774 -0.0237
  802POPS   C1A 9077   6.049  15.773   6.867 -0.1905 -0.0521 -0.2774
  802POPS   D2A 9078   5.954  15.953   7.333  0.5757  0.2701  0.1282
  802POPS   C3A 9079   5.927  15.877   7.834 -0.5091  0.1763 -0.1296
  802POPS   C4A 9080   5.750  15.733   8.237 -0.1260  0.1679 -0.0788
  802POPS   C1B 9081   6.347  15.321   6.909 -0.2363 -0.0430  0.0849
  802POPS   C2B 9082   6.355  15.743   7.287 -0.0655 -0.1052  0.0054
  802POPS   C3B 9083   6.370  16.085   7.566  0.1268 -0.0256  0.0780
  802POPS   C4B 9084   6.393  16.558   7.636  0.0001  0.1538  0.0492
  803POPS   CNO 9085   7.726   5.993   6.311  0.2755 -0.1071  0.0359
  803POPS   PO4 9086   7.973   5.795   5.899 -0.0409  0.1942 -0.3514
  803POPS   GL1 9087   8.031   5.620   6.378 -0.3563 -0.1161  0.2914
  803POPS   GL2 9088   8.163   5.316   6.471 -0.2153 -0.0022 -0.2066
  803POPS   C1A 9089   7.951   5.860   6.780  0.2668 -0.0436  0.0815
  803POPS   D2A 9090   7.962   5.903   7.130 -0.2416 -0.0477 -0.1887
  803POPS   C3A 9091   7.974   5.877   7.589 -0.0546 -0.2569 -0.0665
  803POPS   C4A 9092   8.166   5.836   8.007  0.2055  0.2030 -0.0225
  803POPS   C1B 9093   8.401   5.570   6.746 -0.3786 -0.2732 -0.0905
  803POPS   C2B 9094   8.700   5.429   7.012 -0.2260 -0.2748 -0.2085
  803POPS   C3B 9095   8.870   5.505   7.479  0.2105  0.0568 -0.4017
  803POPS   C4B 9096   9.095   5.525   7.832  0.1814  0.4048  0.1949
  804POPS   CNO 9097  14.675  16.019   5.701 -0.2550  0.1865  0.2652
  804POPS   PO4 9098  14.277  16.158   5.806  0.3086 -0.3129  0.0557
  804POPS   GL1 9099  14.237  15.905   6.106 -0.0199 -0.2549  0.0303
  804POPS   GL2 9100  14.476  15.745   6.130 -0.0037 -0.2973 -0.1775
  804POPS   C1A 9101  14.313  15.957   6.520  0.1345 -0.1055  0.0231
  804POPS   D2A 9102  14.547  16.110   6.901  0.0558  0.0783  0.0237
  804POPS   C3A 9103  14.365  16.458   7.107  0.1294 -0.1255 -0.2805
  804POPS   C4A 9104  14.077  16.778   7.303 -0.1357 -0.0337 -0.1619
  804POPS   C1B 9105  14.864  15.974   6.409  0.3244  0.1806  0.2356
  804POPS   C2B 9106  15.061  15.992   6.829 -0.0597 -0.1212 -0.3586
  804POPS   C3B 9107  14.855  15.892   7.256 -0.0808  0.0081  0.0717
  804POPS   C4B 9108  14.624  15.867   7.562  0.1260  0.3516  0.1703
  805POPS   CNO 9109  10.937   0.448   5.271  0.2510 -0.0051 -0.0972
  805POPS   PO4 9110  11.117   0.838   5.195 -0.2735 -0.1861  0.2518
  805POPS   GL1 9111  11.281   0.745   5.655 -0.3238  0.0903  0.0373
  805POPS   GL2 9112  11.112   0.475   5.876  0.2331 -0.4041 -0.0296
  805POPS   C1A 9113  11.340   0.916   5.985  0.1127  0.2116  0.0428
  805POPS   D2A 9114  11.382   1.291   5.998 -0.1279 -0.0175  0.0425
  805POPS   C3A 9115  11.622   1.501   6.264 -0.2326 -0.1374  0.0871
  805POPS   C4A 9116  11.821   1.421   6.600 -0.2365 -0.1740  0.4589
  805POPS   C1B 9117  10.853   0.579   6.138  0.1280  0.0895  0.3030
  805POPS   C2B 9118  10.791   0.538   6.651 -0.0708 -0.2553  0.2097
  805POPS   C3B 9119  10.799   0.478   6.952  0.1176  0.4089 -0.0617
  805POPS   C4B 9120  10.882   0.638   7.387  0.1913  0.2495 -0.0940
  806POPS   CNO 9121  13.284   8.040   6.402 -0.1634  0.2117 -0.2975
  806POPS   PO4 9122  13.040   7.972   6.699 -0.0730 -0.1241 -0.0111
  806POPS   GL1 9123  12.978   8.129   7.159 -0.0877  0.1977  0.1803
  806POPS   GL2 9124  12.700   8.136   7.290 -0.0849  0.1225 -0.0459
  806POPS   C1A 9125  13.083   8.154   7.579  0.2001  0.1063  0.0970
  806POPS   D2A 9126  12.858   8.288   7.898 -0.1400  0.1866  0.0265
  806POPS   C3A 9127  12.770   7.997   8.227  0.0602 -0.0956 -0.0273
  806POPS   C4A 9128  12.896   7.940   8.518 -0.2025 -0.1315 -0.0552
  806POPS   C1B 9129  12.528   8.074   7.608  0.1665  0.0170 -0.2426
  806POPS   C2B 9130  12.374   8.066   7.931 -0.2898 -0.2311 -0.0277
  806POPS   C3B 9131  12.172   7.670   8.176  0.2655 -0.0543 -0.0424
  806POPS   C4B 9132  12.249   7.425   8.584  0.0674  0.3773  0.1473
  807POPS   CNO 9133   0.344   7.295   6.611  0.0755  0.1230 -0.0335
  807POPS   PO4 9134   0.057   7.057   6.496 -0.1666 -0.1609  0.0599
  807POPS   GL1 9135  -0.114   7.207   6.783  0.2191  0.0407  0.2137
  807POPS   GL2 9136  -0.252   7.466   6.723 -0.0895 -0.1410  0.1341
  807POPS   C1A 9137  -0.232   7.041   7.166  0.0816  0.0994  0.0197
  807POPS   D2A 9138  -0.404   6.937   7.417 -0.3139 -0.0840 -0.1982
  807POPS   C3A 9139  -0.225   7.033   7.790 -0.0761  0.2672  0.3309
  807POPS   C4A 9140  -0.087   7.188   8.141 -0.2302  0.0236 -0.0712
  807POPS   C1B 9141  -0.314   7.558   7.128  0.0992 -0.0064 -0.1815
  807POPS   C2B 9142  -0.372   7.451   7.484  0.2069  0.0047  0.1015
  807POPS   C3B 9143  -0.174   7.574   7.849  0.2753  0.0055  0.0352
  807POPS   C4B 9144   0.158   7.643   8.126  0.0782 -0.0820  0.2795
  808POPS   CNO 9145   8.710  11.610   6.419  0.2070  0.2060 -0.0739
  808POPS   PO4 9146   9.097  11.657   6.648  0.0268 -0.1128  0.1320
  808POPS   GL1 9147   8.915  11.822   6.978  0.1001 -0.0295  0.1663
  808POPS   GL2 9148   8.644  12.055   6.963 -0.1456 -0.0150 -0.1047
  808POPS   C1A 9149   8.903  11.869   7.514 -0.0516  0.0740  0.1474
  808POPS   D2A 9150   8.826  12.036   7.895 -0.0558 -0.1460  0.0166
  808POPS   C3A 9151   8.842  12.072   8.243  0.0248  0.1123 -0.0731
  808POPS   C4A 9152   9.028  12.006   8.575 -0.0344 -0.0047 -0.1064
  808POPS   C1B 9153   8.985  12.272   7.185 -0.1890  0.2703 -0.1892
  808POPS   C2B 9154   9.155  12.372   7.606  0.0679 -0.2052  0.3074
  808POPS   C3B 9155   9.038  12.550   8.099  0.1624  0.2969  0.0463
  808POPS   C4B 9156   8.898  12.536   8.511  0.0881 -0.1358  0.0687
  809YOPS   CNO 9157   3.583  15.630   5.881 -0.2495  0.1877  0.0735
  809YOPS   PO4 9158   3.972  15.671   5.732 -0.1538  0.2519 -0.0174
  809YOPS   GL1 9159   4.152  15.742   6.143 -0.1298 -0.1006  0.0078
  809YOPS   GL2 9160   3.878  15.668   6.344  0.1966 -0.1313 -0.2843
  809YOPS   C1A 9161   4.451  15.650   6.433 -0.3313 -0.0920 -0.1998
  809YOPS   D2A 9162   4.439  15.610   6.787  0.1361 -0.1934 -0.0329
  809YOPS   C3A 9163   4.383  15.447   7.116 -0.2929  0.1441  0.0936
  809YOPS   C4A 9164   4.397  15.597   7.518  0.1552  0.0031  0.2938
  809YOPS   C1B 9165   3.868  15.702   6.790 -0.0472  0.4198  0.3587
  809YOPS   C2B 9166   3.893  15.730   7.298 -0.1975  0.0390 -0.2783
  809YOPS   D3B 9167   4.000  15.931   7.705 -0.1397 -0.1011 -0.0528
  809YOPS   C4B 9168   3.822  16.205   7.891  0.4985  0.2001  0.1918
  810YOPS   CNO 9169   4.694   5.495   6.049  0.0514  0.1986 -0.0338
  810YOPS   PO4 9170   4.984   5.515   6.390  0.1795 -0.1360  0.0269
  810YOPS   GL1 9171   5.073   5.613   6.778 -0.3772  0.2138  0.0726
  810YOPS   GL2 9172   4.982   5.911   6.939  0.0357  0.2336 -0.2375
  810YOPS   C1A 9173   5.276   5.570   7.194  0.1261  0.3048 -0.1023
  810YOPS   D2A 9174   5.449   5.587   7.555 -0.1332 -0.1014  0.2812
  810YOPS   C3A 9175   5.661   5.638   7.873 -0.0926  0.2897 -0.2272
  810YOPS   C4A 9176   5.626   5.995   8.171  0.3298 -0.0022 -0.0115
  810YOPS   C1B 9177   5.228   6.022   7.318 -0.3250  0.2166  0.1443
  810YOPS   C2B 9178   5.385   6.035   7.745 -0.2597  0.2343 -0.1284
  810YOPS   D3B 9179   5.102   6.107   8.109  0.0195 -0.2919  0.4503
  810YOPS   C4B 9180   4.742   5.927   8.174  0.0906  0.2115 -0.0239
  811YOPS   CNO 9181   7.265  10.986   6.590  0.2401  0.0718 -0.1089
  811YOPS   PO4 9182   6.919  10.824   6.398 -0.0614 -0.0904  0.3305
  811YOPS   GL1 9183   6.804  10.975   6.866  0.0765  0.0430  0.1778
  811YOPS   GL2 9184   7.044  11.216   7.019 -0.0470 -0.0244  0.1937
  811YOPS   C1A 9185   6.756  10.697   7.086 -0.1790  0.2823 -0.2865
  811YOPS   D2A 9186   6.775  10.560   7.469  0.1669  0.1987 -0.1224
  811YOPS   C3A 9187   6.792  10.540   7.948  0.0132  0.1579  0.2086
  811YOPS   C4A 9188   6.695  10.293   8.307 -0.2810 -0.0153  0.0228
  811YOPS   C1B 9189   6.881  11.043   7.438 -0.2467 -0.0170  0.0085
  811YOPS   C2B 9190   6.762  11.013   7.882 -0.1702  0.2385  0.0156
  811YOPS   D3B 9191   6.773  10.912   8.268  0.0575  0.4678 -0.1493
  811YOPS   C4B 9192   6.784  11.203   8.637  0.0319  0.0881  0.1240
  812YOPS   CNO 9193  12.688   5.346   6.035 -0.2742  0.1544 -0.1347
  812YOPS   PO4 9194  12.782   5.719   6.178 -0.0410  0.2462 -0.2022
  812YOPS   GL1 9195  12.449   5.573   6.522  0.4201 -0.0910  0.2224
  812YOPS   GL2 9196  12.406   5.305   6.427 -0.0292  0.0915 -0.1597
  812YOPS   C1A 9197  12.134   5.649   6.868 -0.0897  0.1789 -0.1765
  812YOPS   D2A 9198  11.649   5.776   7.028 -0.0319  0.2598  0.0413
  812YOPS   C3A 9199  11.546   5.645   7.503  0.1771  0.0446 -0.1037
  812YOPS   C4A 9200  11.381   5.250   7.514  0.1290 -0.1121  0.0745
  812YOPS   C1B 9201  12.427   5.230   6.867  0.0902 -0.0973 -0.1100
  812YOPS   C2B 9202  12.329   5.138   7.309 -0.0948 -0.1662  0.3800
  812YOPS   D3B 9203  12.349   5.324   7.719  0.1477  0.2681  0.0216
  812YOPS   C4B 9204  12.200   5.151   8.098  0.2806  0.4021  0.0277
  813YOPS   CNO 9205   6.606  14.251   5.834  0.1289 -0.1613 -0.1439
  813YOPS   PO4 9206   7.038  14.255   5.921  0.4084  0.0682  0.1720
  813YOPS   GL1 9207   7.133  14.305   6.305 -0.0041  0.2784 -0.2557
  813YOPS   GL2 9208   7.391  14.026   6.441 -0.2452 -0.2998  0.0632
  813YOPS   C1A 9209   7.032  14.260   6.765 -0.0928 -0.1608  0.1532
  813YOPS   D2A 9210   6.988  14.446   7.153 -0.2036 -0.1961 -0.0089
  813YOPS   C3A 9211   6.639  14.599   7.398  0.1135  0.0374 -0.2486
  813YOPS   C4A 9212   6.485  14.515   7.763  0.1409  0.1047 -0.1562
  813YOPS   C1B 9213   7.646  14.212   6.809 -0.2864 -0.0542  0.0915
  813YOPS   C2B 9214   7.688  14.274   7.259 -0.1294 -0.2319  0.2636
  813YOPS   D3B 9215   7.623  14.378   7.746  0.1932  0.2199  0.1934
  813YOPS   C4B 9216   7.805  14.107   8.072 -0.2366 -0.3155  0.1704
  814YOPS   CNO 9217   5.798  10.834   6.105 -0.0798  0.0763  0.0587
  814YOPS   PO4 9218   5.889  10.429   6.404 -0.0678 -0.0117 -0.0381
  814YOPS   GL1 9219   6.002  10.166   6.789 -0.1800 -0.1575  0.1722
  814YOPS   GL2 9220   5.760  10.116   6.931  0.0121  0.0645  0.1191
  814YOPS   C1A 9221   6.114  10.261   7.220 -0.2526 -0.0548 -0.0196
  814YOPS   D2A 9222   5.941  10.119   7.643 -0.0444  0.0083  0.1781
  814YOPS   C3A 9223   5.981  10.034   8.105 -0.0664  0.1266 -0.2063
  814YOPS   C4A 9224   6.182  10.269   8.449 -0.0832  0.0571 -0.1446
  814YOPS   C1B 9225   5.561  10.066   7.326  0.0780 -0.2376  0.3723
  814YOPS   C2B 9226   5.431  10.131   7.722 -0.0807  0.1302 -0.2053
  814YOPS   D3B 9227   5.408  10.221   8.077 -0.2325  0.1917 -0.3757
  814YOPS   C4B 9228   5.234   9.996   8.418  0.1094 -0.3308  0.0997
  815YOPS   CNO 9229  17.847  11.999   6.175  0.0750 -0.0450 -0.1969
  815YOPS   PO4 9230  17.663  11.796   6.530  0.0078 -0.0152  0.2088
  815YOPS   GL1 9231  17.753  11.921   6.927 -0.1447  0.1751 -0.0645
  815YOPS   GL2 9232  18.180  11.913   6.895 -0.0173 -0.0889  0.1306
  815YOPS   C1A 9233  17.660  12.208   7.228 -0.0371 -0.3343 -0.3101
  815YOPS   D2A 9234  17.675  12.596   7.292  0.2338  0.1560  0.1170
  815YOPS   C3A 9235  17.527  13.009   7.505  0.2416 -0.2826 -0.1220
  815YOPS   C4A 9236  17.345  13.113   7.896  0.1359 -0.0480 -0.1022
  815YOPS   C1B 9237  18.217  11.979   7.384  0.1515 -0.2631  0.3071
  815YOPS   C2B 9238  18.249  12.228   7.842  0.0130 -0.0648  0.0818
  815YOPS   D3B 9239  18.350  12.404   8.335 -0.1561 -0.0501  0.1200
  815YOPS   C4B 9240  18.650  12.556   8.551 -0.2520 -0.2283 -0.0186
  816YOPS   CNO 9241  11.882   5.728   6.363  0.1831 -0.2535 -0.2777
  816YOPS   PO4 9242  12.044   6.147   6.393 -0.1611  0.1185  0.1250
  816YOPS   GL1 9243  12.118   6.187   6.805  0.0889  0.4305 -0.2567
  816YOPS   GL2 9244  11.821   6.212   6.947 -0.2839 -0.2066 -0.0012
  816YOPS   C1A 9245  12.223   6.033   7.178  0.1173  0.3836  0.1282
  816YOPS   D2A 9246  12.062   5.716   7.447 -0.0422  0.1774  0.1761
  816YOPS   C3A 9247  11.959   5.582   7.900  0.1535 -0.1212  0.1762
  816YOPS   C4A 9248  11.694   5.796   8.326 -0.2192 -0.0043 -0.3413
  816YOPS   C1B 9249  11.487   6.409   7.166  0.0346 -0.1861  0.3130
  816YOPS   C2B 9250  11.336   6.456   7.543  0.1140  0.1938 -0.2199
  816YOPS   D3B 9251  11.287   6.670   7.910 -0.1119 -0.0956 -0.2293
  816YOPS   C4B 9252  11.620   6.940   8.067 -0.1545 -0.0800  0.3418
  817YOPS   CNO 9253  11.063   5.197   5.895 -0.0906  0.0116  0.0432
  817YOPS   PO4 9254  10.794   5.539   5.961 -0.1421 -0.0058  0.0971
  817YOPS   GL1 9255  10.791   5.250   6.330 -0.0519 -0.0870  0.2736
  817YOPS   GL2 9256  10.541   5.096   6.252 -0.0818 -0.3055  0.1263
  817YOPS   C1A 9257  10.870   5.153   6.763 -0.0094 -0.1998  0.2077
  817YOPS   D2A 9258  10.847   5.168   7.161 -0.1809  0.1483 -0.0791
  817YOPS   C3A 9259  10.921   4.932   7.479 -0.1716  0.1577 -0.1238
  817YOPS   C4A 9260  10.935   5.163   7.870  0.2405  0.1587 -0.1370
  817YOPS   C1B 9261  10.533   4.773   6.570 -0.0371 -0.0540 -0.2076
  817YOPS   C2B 9262  10.738   4.672   6.987  0.2411 -0.1836 -0.1877
  817YOPS   D3B 9263  10.491   4.633   7.401 -0.1132  0.2417 -0.0163
  817YOPS   C4B 9264  10.527   4.904   7.871 -0.0017 -0.1894 -0.4972
  818YOPS   CNO 9265   6.216  14.562   5.888 -0.2276 -0.0663 -0.2402
  818YOPS   PO4 9266   6.086  14.181   6.177 -0.1110 -0.1598 -0.1269
  818YOPS   GL1 9267   6.103  13.943   6.485  0.0555  0.1947 -0.1988
  818YOPS   GL2 9268   6.437  13.969   6.554  0.0508  0.2158  0.4334
  818YOPS   C1A 9269   6.151  13.794   6.893  0.0920  0.0013  0.1154
  818YOPS   D2A 9270   6.259  13.810   7.212 -0.1794  0.1315  0.2909
  818YOPS   C3A 9271   6.373  13.662   7.544 -0.0811  0.1075 -0.2566
  818YOPS   C4A 9272   6.264  13.888   7.947 -0.3987  0.1841 -0.0691
  818YOPS   C1B 9273   6.573  14.176   6.922 -0.0200  0.0905  0.1458
  818YOPS   C2B 9274   6.641  14.123   7.331 -0.0801 -0.1448 -0.2336
  818YOPS   D3B 9275   6.780  14.007   7.802 -0.0947 -0.2874 -0.0241
  818YOPS   C4B 9276   6.720  14.232   8.114  0.2874 -0.2025  0.0785
  819YOPS   CNO 9277   2.308   2.147   6.167 -0.0618  0.2879 -0.1947
  819YOPS   PO4 9278   1.999   2.149   6.326 -0.2479 -0.0086 -0.1605
  819YOPS   GL1 9279   2.351   2.283   6.683  0.0358  0.0218  0.0700
  819YOPS   GL2 9280   2.209   2.380   6.913  0.0925 -0.0361 -0.0471
  819YOPS   C1A 9281   2.670   2.511   6.744 -0.1505 -0.0046 -0.2024
  819YOPS   D2A 9282   2.904   2.504   7.075 -0.3120 -0.1764 -0.2630
  819YOPS   C3A 9283   3.123   2.517   7.371  0.0183  0.0922  0.1155
  819YOPS   C4A 9284   2.982   2.348   7.736  0.2492  0.0132 -0.0030
  819YOPS   C1B 9285   2.339   2.456   7.310  0.0688 -0.0056 -0.1599
  819YOPS   C2B 9286   2.268   2.532   7.729  0.3183  0.1065  0.1474
  819YOPS   D3B 9287   2.118   2.481   8.175 -0.3774  0.0959  0.1175
  819YOPS   C4B 9288   1.872   2.731   8.320 -0.1212 -0.3387  0.0798
  820YOPS   CNO 9289   9.907   0.132   5.100  0.0472  0.1753  0.0899
  820YOPS   PO4 9290  10.185   0.305   5.384  0.0353 -0.1515  0.0798
  820YOPS   GL1 9291   9.890   0.289   5.748  0.1884 -0.0434 -0.0409
  820YOPS   GL2 9292   9.515   0.413   5.739 -0.0574  0.0047  0.0108
  820YOPS   C1A 9293   9.820   0.349   6.119  0.1297 -0.1951 -0.0698
  820YOPS   D2A 9294   9.870   0.359   6.525 -0.0951 -0.1973  0.1382
  820YOPS   C3A 9295  10.162   0.542   6.810 -0.0323  0.0601 -0.1472
  820YOPS   C4A 9296  10.103   0.374   7.152 -0.2436  0.1775  0.0923
  820YOPS   C1B 9297   9.344   0.420   6.207  0.0914 -0.1855 -0.2929
  820YOPS   C2B 9298   9.102   0.340   6.573 -0.1364  0.0920 -0.0571
  820YOPS   D3B 9299   8.829   0.298   6.940  0.1296  0.1652  0.0181
  820YOPS   C4B 9300   9.106   0.454   7.136 -0.1190  0.1544 -0.0491
  821YOPS   CNO 9301  17.498   8.097   6.241 -0.0308 -0.2751  0.0172
  821YOPS   PO4 9302  17.683   7.843   6.478 -0.4027 -0.2486  0.1465
  821YOPS   GL1 9303  17.485   7.875   6.812  0.1669 -0.1364 -0.2422
  821YOPS   GL2 9304  17.337   7.587   6.921 -0.0381  0.4130  0.1103
  821YOPS   C1A 9305  17.520   7.920   7.232 -0.1879  0.1477  0.1357
  821YOPS   D2A 9306  17.626   7.914   7.593  0.0778 -0.0689  0.3637
  821YOPS   C3A 9307  17.636   7.834   8.062 -0.0485 -0.2731  0.0502
  821YOPS   C4A 9308  17.529   8.033   8.369 -0.1742  0.1537  0.2252
  821YOPS   C1B 9309  17.428   7.275   7.296 -0.0820  0.1998  0.2098
  821YOPS   C2B 9310  17.428   7.320   7.704  0.0612  0.0936 -0.1165
  821YOPS   D3B 9311  17.640   7.283   8.026  0.0780 -0.2471 -0.0311
  821YOPS   C4B 9312  17.346   7.281   8.504  0.3182 -0.3041 -0.0241
  822YOPS   CNO 9313  18.179   2.581   6.397  0.1452 -0.1619 -0.0652
  822YOPS   PO4 9314  18.573   2.514   6.296 -0.0475  0.0883 -0.0045
  822YOPS   GL1 9315  18.467   2.371   6.771  0.0961  0.1276 -0.0848
  822YOPS   GL2 9316  18.729   2.385   6.844 -0.2256 -0.0500  0.1356
  822YOPS   C1A 9317  18.441   2.178   7.164  0.0506 -0.1373 -0.1121
  822YOPS   D2A 9318  18.254   2.168   7.609 -0.0651  0.0442  0.1190
  822YOPS   C3A 9319  18.246   2.025   8.014 -0.1498 -0.1891  0.1462
  822YOPS   C4A 9320  18.571   1.824   8.293 -0.0257  0.4165  0.1106
  822YOPS   C1B 9321  19.129   2.470   6.920 -0.0956  0.0084  0.0370
  822YOPS   C2B 9322  19.221   2.764   7.166 -0.2578 -0.1078  0.0195
  822YOPS   D3B 9323  19.139   3.102   7.404  0.0814  0.1772 -0.0628
  822YOPS   C4B 9324  19.003   2.978   7.798 -0.2179 -0.1095 -0.3665
  823YOPS   CNO 9325  13.689  11.122   6.632 -0.1380  0.1478 -0.1750
  823YOPS   PO4 9326  13.370  11.342   6.434 -0.1158 -0.0469  0.0856
  823YOPS   GL1 9327  13.138  11.288   6.838 -0.0366 -0.1118 -0.1996
  823YOPS   GL2 9328  12.898  11.540   6.727  0.3288 -0.4360  0.1956
  823YOPS   C1A 9329  13.043  11.127   7.217  0.0815 -0.1985  0.1991
  823YOPS   D2A 9330  12.946  11.297   7.658  0.0740  0.2609 -0.1934
  823YOPS   C3A 9331  12.674  11.153   7.990 -0.0800  0.3129 -0.0260
  823YOPS   C4A 9332  12.760  11.207   8.395 -0.3676  0.0229  0.0925
  823YOPS   C1B 9333  12.880  11.623   7.159 -0.0279 -0.0144  0.1320
  823YOPS   C2B 9334  12.919  11.768   7.566  0.2383  0.1323 -0.3907
  823YOPS   D3B 9335  13.260  11.702   7.722 -0.2126 -0.0952  0.2924
  823YOPS   C4B 9336  13.410  11.614   7.228 -0.1132 -0.2982 -0.0694
  824YOPS   CNO 9337  17.882  14.722   6.530  0.2983  0.1693  0.2015
  824YOPS   PO4 9338  17.699  14.479   6.250 -0.2984 -0.0176 -0.0792
  824YOPS   GL1 9339  17.482  14.428   6.686  0.0909 -0.0142  0.1085
  824YOPS   GL2 9340  17.787  14.321   6.879  0.1608 -0.2537 -0.0727
  824YOPS   C1A 9341  17.265  14.485   7.057 -0.0478  0.1372  0.1803
  824YOPS   D2A 9342  16.892  14.599   7.357 -0.2507 -0.1655 -0.1350
  824YOPS   C3A 9343  16.773  14.640   7.677  0.1080  0.0358 -0.1255
  824YOPS   C4A 9344  16.955  14.852   8.127 -0.1383  0.0182 -0.1187
  824YOPS   C1B 9345  17.651  14.395   7.287 -0.1900 -0.1941  0.0819
  824YOPS   C2B 9346  17.417  14.460   7.591 -0.0036  0.0934 -0.2632
  824YOPS   D3B 9347  17.535  14.510   8.048 -0.0944 -0.3041  0.0203
  824YOPS   C4B 9348  17.459  14.266   8.328  0.0375 -0.1966  0.0759
  825YOPS   CNO 9349   0.180  18.151   6.047  0.0704 -0.1219 -0.0696
  825YOPS   PO4 9350  -0.083  17.986   6.383 -0.0036 -0.0654 -0.0813
  825YOPS   GL1 9351   0.026  17.965   6.863 -0.1380 -0.0381  0.1364
  825YOPS   GL2 9352  -0.237  18.099   6.917  0.0918 -0.1413 -0.1344
  825YOPS   C1A 9353   0.253  17.730   7.086  0.0542  0.0130  0.1908
  825YOPS   D2A 9354   0.252  17.624   7.521 -0.1281 -0.1403 -0.0209
  825YOPS   C3A 9355   0.189  17.526   7.874 -0.0265  0.0443 -0.0508
  825YOPS   C4A 9356  -0.206  17.689   8.080  0.1986 -0.1765  0.0287
  825YOPS   C1B 9357  -0.117  17.981   7.307 -0.0535  0.1154  0.1030
  825YOPS   C2B 9358  -0.206  17.834   7.641  0.2300  0.0924 -0.0066
  825YOPS   D3B 9359  -0.473  18.129   7.909 -0.3851  0.1882  0.0378
  825YOPS   C4B 9360  -0.317  18.382   8.208  0.1901  0.2879  0.2254
  826YOPS   CNO 9361   4.556   8.883   6.117  0.0584  0.1428 -0.1973
  826YOPS   PO4 9362   4.947   8.982   6.421 -0.1339  0.1460  0.0582
  826YOPS   GL1 9363   5.017   8.907   6.774 -0.0848  0.3558 -0.3354
  826YOPS   GL2 9364   4.695   8.787   6.860 -0.0282  0.1208 -0.2582
  826YOPS   C1A 9365   5.044   8.807   7.177 -0.2974  0.0293 -0.1289
  826YOPS   D2A 9366   4.965   8.770   7.609 -0.0407 -0.0463 -0.2716
  826YOPS   C3A 9367   5.231   8.685   8.018  0.0783 -0.0463  0.2810
  826YOPS   C4A 9368   5.624   8.848   8.071  0.0194  0.0910  0.4042
  826YOPS   C1B 9369   4.609   8.939   7.338  0.1861 -0.0974  0.1473
  826YOPS   C2B 9370   4.463   8.828   7.629 -0.0288 -0.0407  0.1099
  826YOPS   D3B 9371   4.069   8.762   7.884  0.1806 -0.0240 -0.1735
  826YOPS   C4B 9372   4.195   8.750   8.254  0.2693  0.4377  0.0325
  827YOPS   CNO 9373  13.852   8.644   6.785  0.1221 -0.0771  0.3459
  827YOPS   PO4 9374  14.289   8.665   6.700 -0.2033 -0.1883  0.1383
  827YOPS   GL1 9375  14.360   8.516   6.994 -0.2471 -0.3120  0.1250
  827YOPS   GL2 9376  14.105   8.488   7.229 -0.0103  0.0027 -0.2198
  827YOPS   C1A 9377  14.643   8.531   7.289  0.2354 -0.0690 -0.0982
  827YOPS   D2A 9378  14.616   8.591   7.679  0.0877 -0.2778  0.0270
  827YOPS   C3A 9379  14.729   8.495   8.076 -0.0006 -0.0690  0.0362
  827YOPS   C4A 9380  14.676   8.878   8.440  0.4093  0.0216 -0.1549
  827YOPS   C1B 9381  14.019   8.640   7.660  0.0399 -0.0699  0.0706
  827YOPS   C2B 9382  14.242   8.612   8.027  0.0881 -0.2377 -0.2734
  827YOPS   D3B 9383  14.220   8.908   8.333 -0.3204  0.2127  0.2480
  827YOPS   C4B 9384  14.216   8.976   8.802  0.0001  0.1030 -0.1836
  828YOPS   CNO 9385  12.534   8.520   6.502  0.1206 -0.0437  0.1899
  828YOPS   PO4 9386  12.888   8.499   6.859  0.2994  0.1136 -0.0952
  828YOPS   GL1 9387  12.642   8.589   7.157 -0.2121 -0.0540  0.1517
  828YOPS   GL2 9388  12.365   8.492   6.983  0.0036 -0.5729  0.4015
  828YOPS   C1A 9389  12.566   8.599   7.605  0.0522 -0.0789  0.0884
  828YOPS   D2A 9390  12.421   8.563   7.969  0.0681 -0.2488  0.1732
  828YOPS   C3A 9391  12.512   8.394   8.388  0.1086  0.0284 -0.2079
  828YOPS   C4A 9392  12.847   8.441   8.546  0.0551  0.1874  0.0992
  828YOPS   C1B 9393  12.194   8.326   7.362 -0.0775 -0.1278 -0.1595
  828YOPS   C2B 9394  11.996   8.373   7.781 -0.2172  0.0865 -0.0580
  828YOPS   D3B 9395  11.970   8.192   8.215 -0.1068  0.0666  0.0899
  828YOPS   C4B 9396  11.839   7.876   8.490  0.1019  0.2075 -0.0293
  829YOPS   CNO 9397   7.377   6.454   6.440  0.0381  0.0736 -0.0547
  829YOPS   PO4 9398   7.861   6.501   6.482  0.5332  0.3996 -0.2707
  829YOPS   GL1 9399   7.751   6.755   6.788  0.0914  0.0165  0.0348
  829YOPS   GL2 9400   7.374   6.932   6.687  0.3281 -0.1407 -0.2271
  829YOPS   C1A 9401   7.529   6.736   7.221 -0.1620  0.3670 -0.3279
  829YOPS   D2A 9402   7.181   6.552   7.410 -0.1350 -0.1930 -0.0427
  829YOPS   C3A 9403   6.946   6.280   7.664  0.0862 -0.0460 -0.2419
  829YOPS   C4A 9404   7.114   6.380   8.082 -0.1006 -0.0155  0.1628
  829YOPS   C1B 9405   7.550   7.157   7.055  0.0741 -0.0642  0.0104
  829YOPS   C2B 9406   7.667   7.200   7.403 -0.3519 -0.0463  0.0313
  829YOPS   D3B 9407   7.378   7.427   7.610  0.2048  0.0547 -0.0663
  829YOPS   C4B 9408   7.311   7.350   7.985 -0.0260  0.1149  0.0863
  830YOPS   CNO 9409  10.076   4.179   5.694 -0.3521  0.1063 -0.0915
  830YOPS   PO4 9410  10.139   4.396   6.102 -0.4324 -0.1793 -0.0248
  830YOPS   GL1 9411  10.624   4.315   6.247  0.0660 -0.3309  0.4663
  830YOPS   GL2 9412  10.779   4.076   6.239 -0.0449  0.2020 -0.3491
  830YOPS   C1A 9413  10.658   4.222   6.719 -0.2616  0.2435  0.2019
  830YOPS   D2A 9414  10.638   4.211   7.165 -0.1572  0.2292 -0.1366
  830YOPS   C3A 9415  10.635   4.099   7.574 -0.2218  0.3355 -0.1831
  830YOPS   C4A 9416  10.472   4.298   7.819 -0.0795 -0.0478 -0.0453
  830YOPS   C1B 9417  11.109   4.216   6.493  0.1489 -0.1249 -0.2629
  830YOPS   C2B 9418  11.160   4.403   6.921  0.1241 -0.2155  0.0788
  830YOPS   D3B 9419  11.125   4.446   7.275  0.0384  0.6550  0.0796
  830YOPS   C4B 9420  10.957   4.454   7.659 -0.0894 -0.0554 -0.1372
  831YOPS   CNO 9421   8.644   6.306   5.833 -0.0513 -0.1273 -0.1638
  831YOPS   PO4 9422   8.653   6.302   6.284 -0.2937  0.3665  0.1809
  831YOPS   GL1 9423   9.005   6.284   6.639 -0.1111  0.1600 -0.1656
  831YOPS   GL2 9424   9.294   6.384   6.633  0.0272  0.2406  0.1578
  831YOPS   C1A 9425   8.906   6.328   7.103  0.1858  0.1927 -0.1644
  831YOPS   D2A 9426   8.890   6.372   7.515 -0.3043  0.1304 -0.2526
  831YOPS   C3A 9427   8.938   6.055   7.848  0.1960 -0.0671 -0.3727
  831YOPS   C4A 9428   9.088   6.335   8.197 -0.1184 -0.2226  0.1552
  831YOPS   C1B 9429   9.397   6.350   7.003  0.1682  0.3331 -0.1497
  831YOPS   C2B 9430   9.440   6.418   7.478 -0.0455 -0.0874  0.3356
  831YOPS   D3B 9431   9.247   6.675   7.778 -0.0453 -0.0675 -0.1278
  831YOPS   C4B 9432   9.375   6.766   8.105  0.1454  0.2382 -0.0108
  832YOPS   CNO 9433  16.176   4.094   5.520  0.0490 -0.0442 -0.1594
  832YOPS   PO4 9434  16.231   3.740   5.890 -0.0006 -0.0158  0.0540
  832YOPS   GL1 9435  16.149   3.913   6.175 -0.1199  0.1055 -0.0441
  832YOPS   GL2 9436  16.544   3.845   6.309  0.1465  0.1276 -0.1113
  832YOPS   C1A 9437  16.108   4.197   6.429  0.2437 -0.2001 -0.5658
  832YOPS   D2A 9438  16.168   4.643   6.630  0.1816 -0.0017 -0.1824
  832YOPS   C3A 9439  16.241   5.059   6.754  0.2253 -0.0523 -0.0473
  832YOPS   C4A 9440  15.976   5.366   6.740  0.1740 -0.1538 -0.4459
  832YOPS   C1B 9441  16.526   3.932   6.707 -0.0716  0.1146 -0.0347
  832YOPS   C2B 9442  16.350   4.259   6.938  0.1718  0.0993 -0.0344
  832YOPS   D3B 9443  16.222   4.625   7.145 -0.1373 -0.2074  0.2402
  832YOPS   C4B 9444  16.048   4.671   7.601  0.2761  0.0161 -0.0437
  833YOPS   CNO 9445   5.190  10.480   6.113  0.2609 -0.2322  0.1331
  833YOPS   PO4 9446   4.855  10.515   6.473  0.0414  0.0472  0.2355
  833YOPS   GL1 9447   5.111  10.607   6.878 -0.2641  0.0840 -0.0549
  833YOPS   GL2 9448   4.909  10.889   7.101  0.0524  0.2947 -0.2850
  833YOPS   C1A 9449   5.293  10.609   7.307 -0.0018  0.1851  0.0428
  833YOPS   D2A 9450   5.325  10.666   7.801 -0.2928 -0.5354 -0.1497
  833YOPS   C3A 9451   5.475  10.891   8.167  0.0091 -0.0206  0.0863
  833YOPS   C4A 9452   5.463  11.329   8.143 -0.0708  0.0071 -0.4033
  833YOPS   C1B 9453   4.860  11.006   7.538  0.0391  0.1042 -0.0603
  833YOPS   C2B 9454   4.778  10.912   8.000  0.0014 -0.4072  0.2117
  833YOPS   D3B 9455   4.992  11.024   8.337  0.1363  0.2938 -0.0152
  833YOPS   C4B 9456   4.876  11.268   8.745  0.2336  0.4007  0.0278
  834YOPS   CNO 9457  18.165   7.912   6.466  0.0961 -0.3027  0.0538
  834YOPS   PO4 9458  18.163   8.220   6.503 -0.0728  0.2384  0.0773
  834YOPS   GL1 9459  18.334   8.409   6.892  0.0667  0.0466 -0.0536
  834YOPS   GL2 9460  18.045   8.584   7.015  0.1641 -0.1940 -0.2124
  834YOPS   C1A 9461  18.436   8.475   7.267 -0.1573  0.1930 -0.1149
  834YOPS   D2A 9462  18.268   8.513   7.695 -0.0293 -0.1592 -0.0291
  834YOPS   C3A 9463  18.042   8.605   8.035  0.5684  0.1875  0.2991
  834YOPS   C4A 9464  18.320   8.832   8.162  0.0256  0.1224 -0.0943
  834YOPS   C1B 9465  17.868   8.387   7.465  0.1189  0.1813  0.1267
  834YOPS   C2B 9466  17.977   8.129   7.907 -0.1341  0.2877  0.1086
  834YOPS   D3B 9467  18.027   8.120   8.308 -0.5451 -0.1141  0.2277
  834YOPS   C4B 9468  18.517   8.071   8.435 -0.1005 -0.2192 -0.0989
  835YOPS   CNO 9469  11.208  10.027   6.362 -0.1915  0.0872  0.1098
  835YOPS   PO4 9470  11.147  10.273   6.729 -0.0692  0.1306  0.0804
  835YOPS   GL1 9471  10.903  10.382   7.018 -0.3095 -0.1460  0.1618
  835YOPS   GL2 9472  10.841  10.146   7.078 -0.0800  0.0841 -0.3408
  835YOPS   C1A 9473  10.689  10.479   7.379  0.2475 -0.1550  0.1809
  835YOPS   D2A 9474  10.636  10.558   7.803 -0.0440 -0.2432 -0.1768
  835YOPS   C3A 9475  10.667  10.484   8.200  0.3669 -0.0449 -0.0902
  835YOPS   C4A 9476  10.905  10.297   8.559 -0.1308 -0.3500 -0.1951
  835YOPS   C1B 9477  10.516   9.986   7.428 -0.2158 -0.0863 -0.1600
  835YOPS   C2B 9478  10.519  10.053   7.935 -0.0501  0.0760  0.3722
  835YOPS   D3B 9479  10.367  10.065   8.371  0.1940 -0.0106 -0.1046
  835YOPS   C4B 9480  10.175  10.379   8.481  0.2072 -0.0729  0.0950
  836YOPS   CNO 9481   3.476   3.715   6.159  0.1088  0.0004 -0.0267
  836YOPS   PO4 9482   3.150   3.657   6.461  0.2248  0.0798  0.5454
  836YOPS   GL1 9483   2.944   3.607   6.889 -0.0121  0.0028  0.1012
  836YOPS   GL2 9484   2.798   3.873   6.928 -0.2416  0.1443 -0.2315
  836YOPS   C1A 9485   3.109   3.504   7.286  0.1854 -0.1289  0.2055
  836YOPS   D2A 9486   3.159   3.550   7.697  0.2910 -0.3236 -0.0130
  836YOPS   C3A 9487   3.371   3.539   8.099  0.1356  0.3402 -0.2122
  836YOPS   C4A 9488   3.601   3.891   8.202  0.2191  0.0039  0.0183
  836YOPS   C1B 9489   2.804   3.884   7.414 -0.1040 -0.0352 -0.0998
  836YOPS   C2B 9490   2.765   3.786   7.871 -0.1497  0.3003  0.0896
  836YOPS   D3B 9491   2.707   3.950   8.279 -0.2167  0.0885  0.3307
  836YOPS   C4B 9492   3.142   3.909   8.381 -0.1866 -0.0785  0.0173
  837YOPS   CNO 9493   7.779  12.089   6.291  0.1147 -0.0755 -0.0990
  837YOPS   PO4 9494   7.400  12.310   6.444  0.1594  0.1913  0.0672
  837YOPS   GL1 9495   7.428  12.590   6.887  0.1569 -0.2003 -0.1524
  837YOPS   GL2 9496   7.505  12.359   7.049  0.1501 -0.1248  0.0390
  837YOPS   C1A 9497   7.474  12.868   7.145  0.2663  0.1550  0.3299
  837YOPS   D2A 9498   7.474  12.886   7.577  0.0379  0.0352  0.0660
  837YOPS   C3A 9499   7.491  12.738   7.942 -0.4237 -0.1116 -0.0792
  837YOPS   C4A 9500   7.655  13.050   8.111  0.1045  0.3446  0.0814
  837YOPS   C1B 9501   7.667  12.363   7.554 -0.0954 -0.0317  0.1337
  837YOPS   C2B 9502   7.893  12.306   7.906  0.0776  0.0496 -0.1157
  837YOPS   D3B 9503   7.936  12.531   8.214 -0.2250  0.2339  0.0758
  837YOPS   C4B 9504   7.934  12.434   8.683  0.1112  0.0889 -0.1270
  838YOPS   CNO 9505  14.059  10.583   5.981 -0.1897  0.0705  0.1922
  838YOPS   PO4 9506  13.830  10.634   6.429 -0.0848 -0.0398  0.0506
  838YOPS   GL1 9507  13.743  10.666   6.908 -0.1504  0.2137  0.1878
  838YOPS   GL2 9508  13.417  10.845   6.989 -0.2324  0.3701  0.0154
  838YOPS   C1A 9509  13.697  10.600   7.333  0.3471 -0.3834  0.3017
  838YOPS   D2A 9510  13.587  10.659   7.809 -0.2087  0.1910  0.2587
  838YOPS   C3A 9511  13.492  10.555   8.213  0.0385 -0.0981 -0.0031
  838YOPS   C4A 9512  13.766  10.769   8.589 -0.0430  0.1993  0.1557
  838YOPS   C1B 9513  13.477  11.034   7.418  0.0366  0.0377 -0.1169
  838YOPS   C2B 9514  13.491  11.249   7.754  0.1217  0.0600 -0.0071
  838YOPS   D3B 9515  13.141  11.365   8.111 -0.2035  0.2888  0.0580
  838YOPS   C4B 9516  12.853  11.609   8.036  0.0911  0.0229  0.0292
  839POPE   NH3 9517   7.134  17.132   5.411  0.1248 -0.2684 -0.1308
  839POPE   PO4 9518   7.192  16.757   5.608 -0.1546 -0.0150  0.0205
  839POPE   GL1 9519   7.297  17.076   5.857  0.0919  0.0855 -0.0482
  839POPE   GL2 9520   7.094  17.249   6.055  0.0303 -0.0012 -0.1409
  839POPE   C1A 9521   7.508  17.031   6.348 -0.1419  0.3359  0.0619
  839POPE   D2A 9522   7.562  17.084   6.731  0.2854  0.1678 -0.2147
  839POPE   C3A 9523   7.906  16.778   6.990  0.3079 -0.0565 -0.1487
  839POPE   C4A 9524   8.021  16.543   7.289 -0.0446 -0.2548  0.0329
  839POPE   C1B 9525   7.230  17.390   6.491  0.2569  0.0874 -0.0533
  839POPE   C2B 9526   7.307  17.535   6.861  0.2089  0.0953 -0.0834
  839POPE   C3B 9527   7.256  17.542   7.301 -0.1371 -0.1714  0.0520
  839POPE   C4B 9528   7.335  17.776   7.681 -0.1024  0.2422  0.0653
  840POPE   NH3 9529   8.547   5.088   6.029  0.1127 -0.1944  0.0564
  840POPE   PO4 9530   8.985   4.988   6.038  0.0115  0.2112 -0.1414
  840POPE   GL1 9531   9.207   5.007   6.486  0.2920 -0.0377  0.2109
  840POPE   GL2 9532   9.345   4.823   6.657 -0.0590  0.4372  0.0511
  840POPE   C1A 9533   8.925   5.006   6.906  0.1726 -0.0742  0.1671
  840POPE   D2A 9534   8.727   4.881   7.305 -0.0304 -0.0330  0.0869
  840POPE   C3A 9535   8.828   5.045   7.683 -0.0506  0.0782 -0.1500
  840POPE   C4A 9536   8.771   5.188   8.073 -0.1551  0.0502 -0.0484
  840POPE   C1B 9537   9.296   4.620   7.057 -0.0555  0.0129 -0.0227
  840POPE   C2B 9538   9.173   4.633   7.513 -0.0105  0.1471  0.0007
  840POPE   C3B 9539   9.138   4.565   7.899  0.1520  0.0690  0.2491
  840POPE   C4B 9540   8.701   4.657   8.073 -0.2120 -0.0413 -0.0633
  841POPE   NH3 9541  10.942  11.452   6.533  0.2775 -0.0944  0.1931
  841POPE   PO4 9542  11.254  11.653   6.815  0.0090 -0.0128  0.4480
  841POPE   GL1 9543  11.538  11.588   7.097  0.0520 -0.2318  0.0686
  841POPE   GL2 9544  11.870  11.439   6.919  0.1334 -0.0895  0.2158
  841POPE   C1A 9545  11.512  11.720   7.517  0.0006  0.0721  0.1310
  841POPE   D2A 9546  11.610  11.938   7.917 -0.0531 -0.2108  0.1510
  841POPE   C3A 9547  11.907  12.061   8.086 -0.1148 -0.1224 -0.0303
  841POPE   C4A 9548  12.167  12.361   8.350  0.2810 -0.3069 -0.3567
  841POPE   C1B 9549  11.985  11.404   7.345 -0.1446  0.4123 -0.1677
  841POPE   C2B 9550  11.781  11.297   7.703  0.2704  0.0281  0.3068
  841POPE   C3B 9551  11.841  11.538   8.020 -0.0427  0.0683  0.2884
  841POPE   C4B 9552  11.914  11.459   8.395 -0.0880 -0.1477 -0.0412
  842POPE   NH3 9553  14.622   9.804   6.302  0.0356 -0.0422  0.3523
  842POPE   PO4 9554  14.646   9.504   6.695 -0.0797 -0.0291 -0.2698
  842POPE   GL1 9555  14.585   9.472   7.118  0.5196  0.0877  0.1968
  842POPE   GL2 9556  14.224   9.458   7.153 -0.0447  0.0714  0.0936
  842POPE   C1A 9557  14.704   9.192   7.549 -0.1783  0.0723 -0.2606
  842POPE   D2A 9558  14.627   9.049   7.943 -0.0542 -0.3247  0.2199
  842POPE   C3A 9559  14.833   9.302   8.257  0.0941  0.1763 -0.1505
  842POPE   C4A 9560  15.090   9.658   8.502 -0.2009 -0.3689 -0.1338
  842POPE   C1B 9561  14.244   9.683   7.548  0.1578  0.0315  0.1108
  842POPE   C2B 9562  14.052   9.798   7.899 -0.1548  0.0389 -0.1492
  842POPE   C3B 9563  14.056   9.856   8.291  0.1597  0.3143 -0.1807
  842POPE   C4B 9564  13.961   9.864   8.754  0.1925  0.0652 -0.1754
  843POPE   NH3 9565  17.658  14.025   6.488 -0.2827  0.4667 -0.1644
  843POPE   PO4 9566  17.466  13.562   6.425  0.1151 -0.0768  0.0454
  843POPE   GL1 9567  17.542  13.615   6.841  0.1927 -0.2992 -0.0030
  843POPE   GL2 9568  17.723  13.832   6.925  0.1178  0.1149 -0.1456
  843POPE   C1A 9569  17.494  13.490   7.301 -0.4539 -0.3829 -0.0630
  843POPE   D2A 9570  17.623  13.523   7.686 -0.1169  0.0221  0.0139
  843POPE   C3A 9571  17.401  13.751   8.049 -0.4482  0.0527 -0.0803
  843POPE   C4A 9572  17.066  13.825   8.311 -0.1542 -0.1487 -0.1387
  843POPE   C1B 9573  17.828  13.959   7.341 -0.2697 -0.0014 -0.0766
  843POPE   C2B 9574  17.896  14.214   7.720  0.0512 -0.0534  0.0936
  843POPE   C3B 9575  18.044  14.379   8.072  0.1645 -0.0358  0.0909
  843POPE   C4B 9576  17.838  14.583   8.450 -0.0694 -0.0706 -0.0350
  844POPE   NH3 9577  10.680   2.809   5.860 -0.0266  0.1542 -0.0215
  844POPE   PO4 9578  10.317   2.944   5.622  0.4444 -0.0434 -0.0785
  844POPE   GL1 9579  10.350   3.122   6.056  0.4992 -0.0183  0.1545
  844POPE   GL2 9580  10.649   3.174   6.219 -0.2082  0.2963  0.4048
  844POPE   C1A 9581  10.285   3.001   6.513  0.0181  0.2193 -0.1100
  844POPE   D2A 9582  10.353   2.858   7.003 -0.2121 -0.4512  0.0577
  844POPE   C3A 9583  10.135   2.727   7.417 -0.0315  0.1304  0.0005
  844POPE   C4A 9584  10.212   2.511   7.803  0.2664 -0.0921 -0.0645
  844POPE   C1B 9585  10.838   3.169   6.623  0.0148  0.0399 -0.1525
  844POPE   C2B 9586  10.872   3.105   7.011 -0.0879  0.1428  0.0414
  844POPE   C3B 9587  10.801   2.752   7.247  0.0497  0.1272 -0.2519
  844POPE   C4B 9588  10.946   2.573   7.738  0.0834 -0.1490  0.0419
  845POPE   NH3 9589  11.804   8.582   6.830 -0.1050 -0.3000 -0.5029
  845POPE   PO4 9590  11.497   8.333   6.712 -0.1457  0.0518 -0.3258
  845POPE   GL1 9591  11.388   8.279   7.191  0.3533  0.0248  0.1374
  845POPE   GL2 9592  11.723   8.454   7.283  0.1302  0.0831 -0.0863
  845POPE   C1A 9593  11.096   8.209   7.583 -0.0874 -0.3646  0.0372
  845POPE   D2A 9594  10.897   8.183   7.949  0.0786 -0.2911  0.1005
  845POPE   C3A 9595  11.076   8.384   8.329  0.4184 -0.1273  0.0824
  845POPE   C4A 9596  11.030   8.731   8.698  0.0213 -0.1773  0.0781
  845POPE   C1B 9597  11.600   8.311   7.600 -0.3240 -0.0499  0.1803
  845POPE   C2B 9598  11.469   8.295   8.022 -0.1016 -0.0725 -0.0034
  845POPE   C3B 9599  11.567   8.295   8.432  0.0231 -0.3864  0.0279
  845POPE   C4B 9600  11.402   8.357   8.822  0.2349 -0.1411  0.0193
  846POPE   NH3 9601   2.740  10.168   6.381 -0.1260  0.0002 -0.0718
  846POPE   PO4 9602   2.252   9.958   6.358  0.1848 -0.2631 -0.0201
  846POPE   GL1 9603   2.366   9.884   6.871  0.0081 -0.1352 -0.0073
  846POPE   GL2 9604   2.536  10.062   7.009 -0.1010 -0.2881  0.2345
  846POPE   C1A 9605   2.506   9.816   7.378  0.1634  0.0930  0.0340
  846POPE   D2A 9606   2.681   9.896   7.698 -0.1078  0.0518  0.0862
  846POPE   C3A 9607   2.647   9.790   8.101  0.0048  0.1541 -0.0992
  846POPE   C4A 9608   2.626   9.739   8.503 -0.3702  0.0426 -0.1454
  846POPE   C1B 9609   2.495  10.428   7.330  0.0651  0.1712  0.1593
  846POPE   C2B 9610   2.564  10.698   7.614  0.2323 -0.2838 -0.0563
  846POPE   C3B 9611   2.777  10.998   7.598  0.0627 -0.2514  0.1513
  846POPE   C4B 9612   3.146  11.190   7.529 -0.4714  0.1629  0.0638
  847POPE   NH3 9613  11.848   8.137   6.365 -0.1411 -0.1200  0.2056
  847POPE   PO4 9614  12.131   8.246   6.621  0.0661  0.2440  0.2318
  847POPE   GL1 9615  11.984   8.093   7.011 -0.1494  0.0738  0.0790
  847POPE   GL2 9616  12.258   7.822   7.176  0.0387 -0.0569 -0.1476
  847POPE   C1A 9617  11.875   7.928   7.448 -0.0113 -0.1690 -0.1290
  847POPE   D2A 9618  11.938   7.877   7.819 -0.0092  0.1484  0.2114
  847POPE   C3A 9619  11.613   7.861   8.079 -0.1598 -0.0196 -0.0218
  847POPE   C4A 9620  11.240   7.874   8.182  0.0488  0.0897 -0.0549
  847POPE   C1B 9621  12.302   7.519   7.583  0.0787  0.0431 -0.0673
  847POPE   C2B 9622  12.405   7.296   7.856  0.0301  0.0069 -0.0865
  847POPE   C3B 9623  12.514   7.061   8.168 -0.1225 -0.1199  0.1885
  847POPE   C4B 9624  12.698   6.756   8.250  0.0813 -0.0204  0.0300
  848POPE   NH3 9625  17.882   3.445   6.422 -0.3893  0.2997  0.0569
  848POPE   PO4 9626  18.364   3.523   6.356 -0.2524  0.2233  0.0446
  848POPE   GL1 9627  18.226   3.194   6.631 -0.1952 -0.1862 -0.2625
  848POPE   GL2 9628  18.289   2.949   6.711 -0.3124  0.3150 -0.2107
  848POPE   C1A 9629  18.517   3.285   7.043 -0.2029 -0.0509  0.2146
  848POPE   D2A 9630  18.559   3.196   7.403  0.0292 -0.1034 -0.2650
  848POPE   C3A 9631  18.461   2.963   7.914 -0.0667  0.1872 -0.0661
  848POPE   C4A 9632  18.692   2.947   8.211 -0.0861  0.3345 -0.1399
  848POPE   C1B 9633  18.117   3.040   7.156  0.0536 -0.1521 -0.1320
  848POPE   C2B 9634  18.030   3.147   7.631  0.4053 -0.1118 -0.1555
  848POPE   C3B 9635  18.139   3.372   7.919 -0.1896 -0.2212 -0.0756
  848POPE   C4B 9636  17.827   3.461   8.197 -0.0876  0.0647 -0.1821
  849POPE   NH3 9637  10.693   6.270   6.446 -0.0945 -0.4687  0.0511
  849POPE   PO4 9638  11.084   6.620   6.510 -0.0072  0.0826  0.0331
  849POPE   GL1 9639  10.977   6.522   6.964 -0.0329  0.2897 -0.0353
  849POPE   GL2 9640  10.669   6.860   6.967  0.2876 -0.0430  0.1534
  849POPE   C1A 9641  10.904   6.580   7.381 -0.1688 -0.0321  0.1317
  849POPE   D2A 9642  10.737   6.733   7.734  0.0249  0.0793 -0.0026
  849POPE   C3A 9643  10.352   6.469   7.840 -0.1861 -0.3629  0.1056
  849POPE   C4A 9644  10.139   6.368   8.149  0.0766 -0.0640 -0.2075
  849POPE   C1B 9645  10.705   7.068   7.337  0.2136  0.2014 -0.2659
  849POPE   C2B 9646  10.716   7.305   7.752  0.0989  0.2400  0.2002
  849POPE   C3B 9647  10.902   7.403   8.152  0.1704  0.1058  0.1801
  849POPE   C4B 9648  11.134   7.110   8.422  0.1366 -0.1611 -0.1649
  850POPE   NH3 9649   0.633   5.386   6.267 -0.2739 -0.0030 -0.1234
  850POPE   PO4 9650   0.923   5.787   6.403  0.0971 -0.0305  0.0024
  850POPE   GL1 9651   0.842   5.822   6.935  0.2098  0.0770  0.0376
  850POPE   GL2 9652   1.049   5.802   7.241  0.2380  0.0321 -0.3675
  850POPE   C1A 9653   0.658   5.503   7.184 -0.0458  0.2499 -0.1632
  850POPE   D2A 9654   0.233   5.597   7.434 -0.3196  0.1342  0.2478
  850POPE   C3A 9655   0.161   5.157   7.623  0.1605 -0.1957 -0.1001
  850POPE   C4A 9656   0.092   4.904   7.966 -0.0333  0.0876  0.3449
  850POPE   C1B 9657   0.752   5.715   7.655 -0.0708 -0.2346  0.3339
  850POPE   C2B 9658   0.874   5.600   7.965  0.1616 -0.2138  0.1286
  850POPE   C3B 9659   0.649   5.545   8.397 -0.3639 -0.3243  0.3710
  850POPE   C4B 9660   0.612   5.573   8.804 -0.1521 -0.1703  0.0690
  851POPE   NH3 9661   9.616   4.466   6.177 -0.0520  0.1200  0.2588
  851POPE   PO4 9662   9.605   4.966   6.215 -0.0867 -0.0079 -0.3684
  851POPE   GL1 9663   9.897   4.812   6.457 -0.0589  0.2231  0.1607
  851POPE   GL2 9664   9.750   4.554   6.694 -0.0882  0.2076  0.1298
  851POPE   C1A 9665  10.095   4.944   6.840  0.0853 -0.1020 -0.2536
  851POPE   D2A 9666  10.295   5.077   7.192 -0.0967 -0.1148  0.2814
  851POPE   C3A 9667  10.102   4.973   7.585 -0.1238 -0.0215 -0.1432
  851POPE   C4A 9668   9.784   4.953   7.906 -0.1250  0.0652  0.2321
  851POPE   C1B 9669   9.829   4.036   6.645 -0.2838 -0.1620 -0.2323
  851POPE   C2B 9670   9.518   3.691   6.842  0.1054  0.1744 -0.1760
  851POPE   C3B 9671   9.383   3.344   7.104  0.2186 -0.0103  0.4325
  851POPE   C4B 9672   9.178   3.151   7.399 -0.1917 -0.2659  0.0096
  852POPE   NH3 9673  15.686   3.788   6.131 -0.2585 -0.1439  0.1099
  852POPE   PO4 9674  15.405   3.522   5.957 -0.0421 -0.0813 -0.2281
  852POPE   GL1 9675  15.078   3.407   6.295 -0.1292  0.3783 -0.2894
  852POPE   GL2 9676  15.226   3.186   6.466  0.0922  0.1537  0.0971
  852POPE   C1A 9677  14.731   3.421   6.586 -0.1870  0.0524 -0.2355
  852POPE   D2A 9678  14.693   3.118   6.916 -0.1676 -0.1256 -0.3901
  852POPE   C3A 9679  14.290   3.097   7.197  0.0656 -0.1454  0.1734
  852POPE   C4A 9680  14.264   3.290   7.641  0.0309 -0.0391 -0.2860
  852POPE   C1B 9681  15.125   2.890   6.764 -0.0912 -0.1669 -0.2206
  852POPE   C2B 9682  15.063   2.734   7.107  0.1253  0.0138 -0.1498
  852POPE   C3B 9683  14.988   2.560   7.481 -0.2101 -0.1547 -0.1195
  852POPE   C4B 9684  15.358   2.388   7.685 -0.1050 -0.2289  0.0201
  853POPE   NH3 9685   9.191  10.283   7.067 -0.1197  0.0243  0.1719
  853POPE   PO4 9686   9.036  10.730   6.788 -0.2556  0.2752 -0.1307
  853POPE   GL1 9687   8.938  11.065   7.133  0.2625  0.0833 -0.1535
  853POPE   GL2 9688   9.175  11.233   7.148 -0.0324  0.0103  0.3795
  853POPE   C1A 9689   8.780  11.003   7.588  0.1216  0.0780 -0.1816
  853POPE   D2A 9690   8.845  10.703   7.847 -0.1367 -0.0300 -0.0730
  853POPE   C3A 9691   8.849  10.776   8.290 -0.0622 -0.3419 -0.2774
  853POPE   C4A 9692   8.567  10.884   8.593  0.2509  0.1880  0.1125
  853POPE   C1B 9693   9.166  11.441   7.606  0.1347 -0.0608 -0.0710
  853POPE   C2B 9694   9.088  11.642   7.995  0.0028 -0.1389  0.0877
  853POPE   C3B 9695   9.322  11.625   8.294  0.1236 -0.1503 -0.1180
  853POPE   C4B 9696   9.727  11.721   8.344  0.2459  0.4507 -0.1365
  854POPE   NH3 9697   3.062   5.235   6.671  0.1590  0.1182  0.5377
  854POPE   PO4 9698   2.782   4.864   6.591  0.1627 -0.1464  0.2448
  854POPE   GL1 9699   2.897   4.859   6.999 -0.0820  0.0199 -0.1797
  854POPE   GL2 9700   3.194   4.738   7.181  0.0800  0.2312 -0.2236
  854POPE   C1A 9701   2.560   5.061   7.317 -0.2442  0.0521  0.0639
  854POPE   D2A 9702   2.363   5.134   7.833 -0.2455 -0.3338  0.2868
  854POPE   C3A 9703   2.585   5.247   8.192 -0.0465 -0.0924 -0.1851
  854POPE   C4A 9704   2.899   5.064   8.426  0.2807  0.2367  0.0743
  854POPE   C1B 9705   3.523   4.928   7.514  0.0379 -0.1641  0.2103
  854POPE   C2B 9706   3.535   5.016   7.855  0.0538  0.3665  0.1112
  854POPE   C3B 9707   3.438   5.275   8.201  0.3121 -0.1223  0.0442
  854POPE   C4B 9708   3.329   5.390   8.584  0.2188 -0.2270  0.1808
  855POPE   NH3 9709   6.278  11.861   6.133  0.1026 -0.2427 -0.4413
  855POPE   PO4 9710   6.559  11.686   6.465 -0.1192  0.0096 -0.1595
  855POPE   GL1 9711   6.729  11.665   6.892  0.1014 -0.1118  0.1519
  855POPE   GL2 9712   6.752  11.984   6.874 -0.0479 -0.0607  0.2053
  855POPE   C1A 9713   6.873  11.601   7.265  0.0672  0.2461 -0.0532
  855POPE   D2A 9714   7.094  11.502   7.543  0.1009 -0.1667 -0.2323
  855POPE   C3A 9715   6.849  11.548   7.863 -0.2545 -0.1081 -0.1117
  855POPE   C4A 9716   6.853  11.571   8.310  0.1519  0.1861 -0.0943
  855POPE   C1B 9717   6.850  12.133   7.367 -0.0937 -0.0544 -0.0468
  855POPE   C2B 9718   6.824  12.038   7.863 -0.0703  0.2519  0.0745
  855POPE   C3B 9719   7.012  12.033   8.277 -0.0227 -0.0555 -0.3461
  855POPE   C4B 9720   6.806  12.030   8.664 -0.0872  0.1638  0.0612
  856POPE   NH3 9721  11.336  11.979   6.401  0.0649  0.1878  0.0062
  856POPE   PO4 9722  11.251  12.436   6.445  0.1328  0.2226 -0.2642
  856POPE   GL1 9723  11.250  12.236   6.815 -0.0113 -0.0738 -0.3882
  856POPE   GL2 9724  11.018  12.315   7.034 -0.0393  0.4046  0.1967
  856POPE   C1A 9725  11.522  12.242   7.267 -0.0997 -0.2549  0.1949
  856POPE   D2A 9726  11.738  12.315   7.627  0.0974 -0.0679 -0.3018
  856POPE   C3A 9727  11.842  12.597   8.001 -0.3225  0.2454  0.2403
  856POPE   C4A 9728  11.798  12.787   8.414  0.2869 -0.0269 -0.2344
  856POPE   C1B 9729  10.963  12.399   7.441 -0.0594 -0.2554 -0.1469
  856POPE   C2B 9730  11.214  12.408   7.790  0.3485 -0.1373 -0.1904
  856POPE   C3B 9731  11.445  12.366   8.171 -0.0781 -0.3074  0.0956
  856POPE   C4B 9732  11.693  12.213   8.534  0.0673 -0.0776  0.1407
  857POPE   NH3 9733  10.766  13.521   6.018 -0.0169  0.1515  0.1444
  857POPE   PO4 9734  10.940  13.395   6.335  0.3665  0.0056  0.0684
  857POPE   GL1 9735  10.897  13.359   6.767 -0.0675 -0.1546 -0.0912
  857POPE   GL2 9736  11.018  13.060   6.784  0.1848 -0.1225 -0.0894
  857POPE   C1A 9737  10.936  13.295   7.227 -0.3991  0.1333 -0.0912
  857POPE   D2A 9738  11.110  13.170   7.493 -0.1707  0.0760 -0.1334
  857POPE   C3A 9739  11.322  13.326   7.931  0.0998 -0.1437  0.1517
  857POPE   C4A 9740  11.387  13.578   8.166 -0.1140  0.1158 -0.0860
  857POPE   C1B 9741  10.980  12.793   7.122 -0.3914 -0.0478 -0.0266
  857POPE   C2B 9742  10.764  12.850   7.530 -0.0694 -0.0668 -0.1696
  857POPE   C3B 9743  10.888  12.898   7.875  0.3644  0.1372  0.1069
  857POPE   C4B 9744  10.966  13.107   8.165 -0.0342  0.0281 -0.0664
  858POPE   NH3 9745   7.795  12.088   6.795  0.0131 -0.0358  0.1303
  858POPE   PO4 9746   8.174  12.110   6.763 -0.3062  0.1066 -0.3561
  858POPE   GL1 9747   8.191  12.156   7.197  0.0995  0.2943 -0.0437
  858POPE   GL2 9748   7.891  12.010   7.266 -0.1108  0.0215 -0.1075
  858POPE   C1A 9749   8.468  12.102   7.481  0.1551  0.0321 -0.0923
  858POPE   D2A 9750   8.370  12.204   7.873 -0.1718 -0.0693 -0.2469
  858POPE   C3A 9751   8.433  12.491   8.159 -0.0738  0.1603  0.0657
  858POPE   C4A 9752   8.326  12.689   8.478 -0.1050 -0.3447  0.0338
  858POPE   C1B 9753   8.006  11.930   7.642 -0.2163  0.2028  0.0659
  858POPE   C2B 9754   7.846  11.842   8.093 -0.0041  0.2229 -0.0689
  858POPE   C3B 9755   7.864  11.672   8.539  0.0228 -0.2132  0.2388
  858POPE   C4B 9756   7.733  11.805   8.809 -0.0103  0.0485  0.3670
  859POPE   NH3 9757  17.259  13.088   6.493  0.3271  0.1341  0.0974
  859POPE   PO4 9758  16.766  13.119   6.331 -0.0419 -0.0240  0.1929
  859POPE   GL1 9759  16.615  13.505   6.587 -0.0100  0.1943  0.3925
  859POPE   GL2 9760  16.936  13.413   6.695 -0.0703  0.1817  0.0291
  859POPE   C1A 9761  16.353  13.547   6.895 -0.1724  0.1331 -0.2263
  859POPE   D2A 9762  15.950  13.552   7.076  0.1914  0.1874 -0.0575
  859POPE   C3A 9763  15.685  13.410   6.927  0.0592  0.0916 -0.1683
  859POPE   C4A 9764  15.427  13.319   6.723 -0.4702 -0.0191 -0.0486
  859POPE   C1B 9765  17.058  13.411   7.118  0.0140  0.0517 -0.2227
  859POPE   C2B 9766  17.045  13.408   7.598 -0.1053 -0.2220  0.0041
  859POPE   C3B 9767  16.985  13.563   7.909  0.0686 -0.0716 -0.2870
  859POPE   C4B 9768  16.676  13.805   7.815  0.0876  0.0923 -0.0101
  860POPE   NH3 9769  16.753   9.416   6.225  0.1035 -0.0912 -0.1308
  860POPE   PO4 9770  17.125   9.638   6.365 -0.1763  0.2181  0.3599
  860POPE   GL1 9771  17.058   9.611   6.637  0.0609 -0.2842 -0.4228
  860POPE   GL2 9772  17.062   9.931   6.807  0.1800  0.1117  0.0943
  860POPE   C1A 9773  16.917   9.474   7.046 -0.1609  0.0521  0.0143
  860POPE   D2A 9774  16.637   9.106   7.184 -0.2124  0.0682 -0.0488
  860POPE   C3A 9775  16.260   9.067   7.249  0.0120  0.1175 -0.0209
  860POPE   C4A 9776  15.845   9.092   7.327  0.1527 -0.1126  0.0793
  860POPE   C1B 9777  17.317   9.897   7.228 -0.0393  0.0762  0.4427
  860POPE   C2B 9778  17.331   9.978   7.634  0.1088  0.1231  0.0817
  860POPE   C3B 9779  17.624   9.939   7.846 -0.2485 -0.0820  0.0177
  860POPE   C4B 9780  17.967   9.738   7.819 -0.0577  0.3769 -0.0701
  861POPE   NH3 9781  13.834  15.926   5.847 -0.1015  0.2505 -0.1774
  861POPE   PO4 9782  13.639  16.262   5.544 -0.0518  0.0519 -0.1036
  861POPE   GL1 9783  13.684  16.376   5.992  0.1501 -0.0186  0.1813
  861POPE   GL2 9784  13.671  16.644   6.078  0.1402  0.1075 -0.0413
  861POPE   C1A 9785  13.341  16.408   6.279 -0.0453 -0.0654 -0.2954
  861POPE   D2A 9786  13.353  16.351   6.698  0.0770  0.3225 -0.0874
  861POPE   C3A 9787  13.620  16.146   6.937 -0.0013  0.1811  0.2039
  861POPE   C4A 9788  13.783  16.314   7.282 -0.0414 -0.1745  0.2243
  861POPE   C1B 9789  13.662  16.841   6.450 -0.1240  0.3036 -0.2121
  861POPE   C2B 9790  13.511  16.750   6.892 -0.1685 -0.4615  0.2327
  861POPE   C3B 9791  13.385  16.576   7.181  0.0835 -0.1224 -0.0754
  861POPE   C4B 9792  13.003  16.470   7.448  0.1058 -0.0166 -0.1167
  862POPE   NH3 9793  17.283   2.537   6.347  0.1551 -0.0680 -0.1359
  862POPE   PO4 9794  17.003   2.865   6.333 -0.0502 -0.1162  0.2679
  862POPE   GL1 9795  16.968   2.978   6.762  0.0063 -0.1476 -0.1512
  862POPE   GL2 9796  17.254   3.019   6.823 -0.0677  0.2504 -0.1398
  862POPE   C1A 9797  16.877   3.167   7.119 -0.4485  0.2246  0.2355
  862POPE   D2A 9798  16.948   3.330   7.605  0.0750  0.1140  0.0610
  862POPE   C3A 9799  16.889   3.734   7.805  0.0185  0.1654 -0.0619
  862POPE   C4A 9800  16.619   3.925   7.940  0.0317 -0.0326  0.1573
  862POPE   C1B 9801  17.333   3.155   7.279  0.0155  0.0625 -0.0624
  862POPE   C2B 9802  17.461   3.323   7.712  0.1943  0.0113 -0.0783
  862POPE   C3B 9803  17.250   3.448   8.072  0.3065  0.0308 -0.3580
  862POPE   C4B 9804  16.906   3.394   8.265  0.0694  0.0444  0.2545
  863POPE   NH3 9805   5.068  14.910   5.756  0.3117  0.0253 -0.3339
  863POPE   PO4 9806   4.692  15.015   6.027  0.4423 -0.5965  0.0814
  863POPE   GL1 9807   4.590  15.206   6.349  0.0986  0.0233  0.0223
  863POPE   GL2 9808   4.300  15.088   6.477  0.0739  0.1044 -0.4383
  863POPE   C1A 9809   4.704  14.926   6.743  0.0324  0.2064 -0.0833
  863POPE   D2A 9810   4.590  15.017   7.116  0.3361  0.0736 -0.2065
  863POPE   C3A 9811   4.897  14.902   7.354 -0.1804 -0.2082  0.2045
  863POPE   C4A 9812   5.358  15.002   7.518  0.0197 -0.0922  0.1781
  863POPE   C1B 9813   4.140  15.178   6.820 -0.1089  0.0446  0.2279
  863POPE   C2B 9814   3.810  15.281   7.075  0.0650 -0.0635 -0.1677
  863POPE   C3B 9815   3.640  15.179   7.452 -0.1595  0.2389 -0.1698
  863POPE   C4B 9816   3.395  15.232   7.885  0.3176 -0.0872 -0.1784
  864POPE   NH3 9817  15.158  10.970   6.476  0.0635  0.0534 -0.0287
  864POPE   PO4 9818  14.794  11.166   6.537 -0.4544  0.0515 -0.1524
  864POPE   GL1 9819  14.711  11.069   6.964 -0.3980  0.3355 -0.0374
  864POPE   GL2 9820  15.007  11.123   7.057 -0.0890 -0.1429  0.0431
  864POPE   C1A 9821  14.609  11.029   7.370  0.0544  0.1393  0.1158
  864POPE   D2A 9822  14.719  11.168   7.788  0.0913  0.0239 -0.2070
  864POPE   C3A 9823  14.989  10.908   7.955  0.0868  0.0148  0.1978
  864POPE   C4A 9824  15.156  10.711   8.350 -0.0060  0.0597  0.2823
  864POPE   C1B 9825  15.105  11.115   7.502  0.0660  0.0594  0.2016
  864POPE   C2B 9826  15.204  11.325   7.952  0.0441  0.0566 -0.4271
  864POPE   C3B 9827  15.378  11.724   8.201  0.0704  0.2129  0.2462
  864POPE   C4B 9828  15.246  11.980   8.513 -0.2279  0.2205 -0.2089
  865POPE   NH3 9829   7.926  13.601   5.967 -0.4025 -0.1757 -0.0030
  865POPE   PO4 9830   8.310  13.552   5.918 -0.1940  0.0488 -0.0484
  865POPE   GL1 9831   8.257  13.746   6.390 -0.0590  0.0637 -0.1452
  865POPE   GL2 9832   8.025  13.863   6.468  0.3962  0.0058 -0.2991
  865POPE   C1A 9833   8.522  14.197   6.547 -0.2347 -0.1640  0.0675
  865POPE   D2A 9834   8.921  14.259   6.728  0.2942 -0.2831  0.2765
  865POPE   C3A 9835   9.172  14.285   7.156  0.1080 -0.0901  0.2240
  865POPE   C4A 9836   9.230  14.542   7.546 -0.1631  0.5907  0.0366
  865POPE   C1B 9837   8.205  14.141   6.891 -0.2915  0.0182  0.0137
  865POPE   C2B 9838   8.194  14.427   7.315  0.1254 -0.0431 -0.1360
  865POPE   C3B 9839   7.995  14.786   7.568 -0.2975  0.0011  0.1631
  865POPE   C4B 9840   8.097  15.082   7.831  0.0573  0.0356  0.2473
  866POPE   NH3 9841   9.247   3.687   5.753 -0.0409 -0.3782 -0.0161
  866POPE   PO4 9842   8.863   3.526   5.794  0.1986 -0.1317 -0.3604
  866POPE   GL1 9843   8.758   3.619   6.240 -0.0672  0.0949  0.0900
  866POPE   GL2 9844   9.086   3.591   6.277  0.0420  0.1021  0.2104
  866POPE   C1A 9845   8.616   3.475   6.582  0.0765  0.1668  0.0471
  866POPE   D2A 9846   8.275   3.561   6.799 -0.2345 -0.0495 -0.0416
  866POPE   C3A 9847   8.358   3.512   7.217 -0.3228 -0.1543 -0.0416
  866POPE   C4A 9848   8.138   3.545   7.593  0.0994 -0.1063 -0.0410
  866POPE   C1B 9849   9.093   3.544   6.713 -0.0202 -0.0621 -0.1971
  866POPE   C2B 9850   8.837   3.499   7.009  0.2679 -0.0139 -0.3452
  866POPE   C3B 9851   8.823   3.570   7.460 -0.0302 -0.1444 -0.2866
  866POPE   C4B 9852   8.746   3.596   7.873 -0.3152  0.1202  0.2794
  867POPE   NH3 9853  13.687  12.246   6.204 -0.1303  0.1209 -0.3398
  867POPE   PO4 9854  13.490  12.611   6.202 -0.0280 -0.3618  0.3547
  867POPE   GL1 9855  13.401  12.840   6.561  0.0280 -0.2649 -0.3600
  867POPE   GL2 9856  13.688  12.997   6.875 -0.0575  0.0921  0.1275
  867POPE   C1A 9857  12.931  13.026   6.748 -0.2396  0.0075 -0.1777
  867POPE   D2A 9858  12.546  12.862   6.941  0.1052 -0.0371  0.4211
  867POPE   C3A 9859  12.602  12.405   6.970  0.0955 -0.0714  0.0925
  867POPE   C4A 9860  12.708  12.049   6.929 -0.1040 -0.0084  0.2234
  867POPE   C1B 9861  13.727  13.293   7.237 -0.1042 -0.2859 -0.0954
  867POPE   C2B 9862  13.786  13.370   7.678 -0.0860 -0.0276  0.0161
  867POPE   C3B 9863  14.022  13.509   8.007  0.1087  0.1025 -0.1090
  867POPE   C4B 9864  14.345  13.827   8.250 -0.0152  0.0413 -0.0691
  868POPE   NH3 9865  11.521  10.458   6.363 -0.0927 -0.0839 -0.0280
  868POPE   PO4 9866  11.825  10.703   6.597  0.0784 -0.3910 -0.1021
  868POPE   GL1 9867  11.810  10.563   6.936  0.1305 -0.1075  0.0617
  868POPE   GL2 9868  11.477  10.604   7.007 -0.0736  0.1663  0.0888
  868POPE   C1A 9869  11.739  10.441   7.366 -0.3344  0.0263  0.5397
  868POPE   D2A 9870  12.046  10.469   7.780 -0.1494  0.0875  0.0680
  868POPE   C3A 9871  12.143  10.573   8.282 -0.0663  0.2085 -0.0695
  868POPE   C4A 9872  12.252  10.606   8.615 -0.0123  0.4448  0.0604
  868POPE   C1B 9873  11.153  10.788   7.238  0.1734 -0.0805 -0.0405
  868POPE   C2B 9874  10.991  10.881   7.672 -0.1010 -0.1112  0.4853
  868POPE   C3B 9875  10.918  10.895   8.100 -0.1756 -0.0884  0.0899
  868POPE   C4B 9876  11.087  10.886   8.525  0.1713 -0.0834  0.0245
  869YOPE   NH3 9877   9.672  15.830   5.739 -0.1837  0.2320  0.0464
  869YOPE   PO4 9878  10.034  15.557   5.808  0.2886 -0.1429  0.2846
  869YOPE   GL1 9879   9.998  15.247   6.146  0.2287 -0.2149 -0.0842
  869YOPE   GL2 9880   9.862  15.281   6.525 -0.4079 -0.0947  0.3378
  869YOPE   C1A 9881  10.318  15.374   6.517 -0.0962 -0.1037 -0.1673
  869YOPE   D2A 9882  10.648  15.530   6.624 -0.1577 -0.0299 -0.2605
  869YOPE   C3A 9883  10.712  15.650   7.138 -0.0540 -0.2042  0.2122
  869YOPE   C4A 9884  10.794  15.803   7.509 -0.1246  0.3140  0.0631
  869YOPE   C1B 9885  10.068  15.436   6.928  0.0390 -0.0175  0.0230
  869YOPE   C2B 9886  10.276  15.514   7.304  0.0250 -0.1485 -0.2700
  869YOPE   D3B 9887  10.254  15.678   7.624  0.0340  0.0338 -0.0740
  869YOPE   C4B 9888  10.049  15.901   7.914  0.1949  0.1768  0.2016
  870YOPE   NH3 9889   4.117   3.739   6.677  0.0085  0.1380 -0.1730
  870YOPE   PO4 9890   4.568   3.894   6.603  0.1290  0.0949 -0.1211
  870YOPE   GL1 9891   4.592   3.793   6.980  0.0390  0.0459  0.1289
  870YOPE   GL2 9892   4.356   3.593   7.085 -0.3456 -0.1926 -0.3304
  870YOPE   C1A 9893   4.625   3.798   7.418 -0.0703  0.0921 -0.0880
  870YOPE   D2A 9894   4.771   3.952   7.820 -0.1601  0.1530  0.2117
  870YOPE   C3A 9895   4.991   3.661   8.073  0.0676 -0.0569 -0.0596
  870YOPE   C4A 9896   5.321   3.559   8.136  0.1489  0.1716 -0.0986
  870YOPE   C1B 9897   4.159   3.408   7.482  0.1907 -0.0756 -0.0394
  870YOPE   C2B 9898   4.178   3.181   7.899 -0.0211  0.2903  0.0009
  870YOPE   D3B 9899   4.216   3.150   8.353  0.2136  0.0974  0.0396
  870YOPE   C4B 9900   3.999   3.346   8.805  0.0855 -0.2505  0.0676
  871YOPE   NH3 9901   6.982   7.099   5.917  0.0484  0.2614 -0.2168
  871YOPE   PO4 9902   6.806   7.307   6.229  0.2460 -0.1809  0.3089
  871YOPE   GL1 9903   7.022   7.364   6.688  0.2202 -0.0402  0.0553
  871YOPE   GL2 9904   7.217   7.366   6.843  0.2591  0.0267 -0.0301
  871YOPE   C1A 9905   6.781   7.330   7.111 -0.0002  0.0778  0.4490
  871YOPE   D2A 9906   6.869   7.454   7.532 -0.2511 -0.0749  0.4853
  871YOPE   C3A 9907   6.812   7.229   7.798 -0.1180 -0.1360 -0.0024
  871YOPE   C4A 9908   6.713   7.171   8.133 -0.2145  0.0948  0.0679
  871YOPE   C1B 9909   7.223   7.649   7.214 -0.2879 -0.1230  0.2243
  871YOPE   C2B 9910   7.395   7.920   7.485 -0.0034  0.1716 -0.2932
  871YOPE   D3B 9911   7.389   7.907   7.942 -0.1044 -0.0346  0.1564
  871YOPE   C4B 9912   7.423   8.120   8.340 -0.0059  0.1770 -0.2364
  872YOPE   NH3 9913   2.579   7.296   6.780 -0.1230 -0.0843 -0.2962
  872YOPE   PO4 9914   2.375   6.884   7.069 -0.0041  0.2757 -0.1005
  872YOPE   GL1 9915   2.701   7.129   7.228  0.0847 -0.0121 -0.2187
  872YOPE   GL2 9916   2.895   6.937   7.434 -0.0843  0.0974 -0.1362
  872YOPE   C1A 9917   2.840   7.467   7.549  0.0372  0.2863 -0.0554
  872YOPE   D2A 9918   3.015   7.838   7.897  0.0218  0.0803 -0.1853
  872YOPE   C3A 9919   3.217   7.635   8.175 -0.2536 -0.1487 -0.2248
  872YOPE   C4A 9920   3.573   7.357   8.306  0.3284  0.0866 -0.2369
  872YOPE   C1B 9921   2.615   7.035   7.729  0.1024  0.0612 -0.0248
  872YOPE   C2B 9922   2.258   7.252   7.992 -0.0991  0.1711  0.0357
  872YOPE   D3B 9923   1.813   7.400   8.160  0.0639 -0.1267  0.0874
  872YOPE   C4B 9924   1.498   7.330   8.433  0.1008  0.0095 -0.0882
  873YOPE   NH3 9925  12.222   5.250   5.972  0.1250 -0.2402 -0.2234
  873YOPE   PO4 9926  11.757   4.971   5.935 -0.0873 -0.4073 -0.0316
  873YOPE   GL1 9927  11.416   5.053   6.243 -0.0356  0.2302  0.1391
  873YOPE   GL2 9928  11.433   5.363   6.270 -0.1433 -0.0975 -0.2519
  873YOPE   C1A 9929  11.336   4.843   6.626  0.0419 -0.0503  0.0180
  873YOPE   D2A 9930  11.265   4.956   7.041 -0.1310  0.1141 -0.1086
  873YOPE   C3A 9931  11.476   4.755   7.445  0.2294  0.0035  0.1917
  873YOPE   C4A 9932  11.344   4.869   7.851  0.1233 -0.1761 -0.0238
  873YOPE   C1B 9933  11.320   5.399   6.752  0.0910 -0.0079  0.0137
  873YOPE   C2B 9934  11.237   5.477   7.104 -0.0197  0.3304  0.3071
  873YOPE   D3B 9935  11.022   5.523   7.518  0.1903 -0.3520 -0.0725
  873YOPE   C4B 9936  11.046   5.676   7.976 -0.3168 -0.2243  0.0011
  874YOPE   NH3 9937  14.004  14.841   5.885  0.1260 -0.0549  0.2376
  874YOPE   PO4 9938  13.746  14.501   6.107  0.0569 -0.0316 -0.1653
  874YOPE   GL1 9939  14.019  14.684   6.454  0.0615  0.0801  0.2381
  874YOPE   GL2 9940  14.207  14.929   6.305 -0.2658 -0.3144  0.2726
  874YOPE   C1A 9941  14.285  14.618   6.722 -0.1860  0.0761 -0.0756
  874YOPE   D2A 9942  14.536  14.728   7.036 -0.3528 -0.0954  0.0302
  874YOPE   C3A 9943  14.721  14.495   7.304  0.0439 -0.1979 -0.1231
  874YOPE   C4A 9944  14.822  14.387   7.748  0.1210  0.0231 -0.1919
  874YOPE   C1B 9945  14.170  15.094   6.683 -0.1284  0.0169 -0.1817
  874YOPE   C2B 9946  13.804  15.180   6.902 -0.1104 -0.0993 -0.0492
  874YOPE   D3B 9947  13.833  15.308   7.324 -0.2333 -0.2829  0.0025
  874YOPE   C4B 9948  13.590  15.086   7.623  0.1310  0.0247 -0.1678
  875YOPE   NH3 9949  16.969  15.531   6.156 -0.0021 -0.0303  0.0099
  875YOPE   PO4 9950  17.307  15.364   6.328 -0.0187 -0.1510 -0.3561
  875YOPE   GL1 9951  17.093  15.460   6.678  0.1224  0.0148  0.2961
  875YOPE   GL2 9952  16.813  15.428   6.666 -0.2495  0.4321 -0.1244
  875YOPE   C1A 9953  17.168  15.449   7.030 -0.0392  0.0614 -0.2920
  875YOPE   D2A 9954  17.216  15.434   7.443  0.1455 -0.0798  0.0565
  875YOPE   C3A 9955  17.176  15.664   7.715  0.1680  0.3912  0.2986
  875YOPE   C4A 9956  17.272  16.021   7.945 -0.1533 -0.0986  0.0762
  875YOPE   C1B 9957  16.607  15.666   6.887  0.2056 -0.1814 -0.0870
  875YOPE   C2B 9958  16.384  15.670   7.324 -0.2148 -0.0234 -0.0892
  875YOPE   D3B 9959  16.082  15.762   7.578 -0.2339  0.0818  0.0047
  875YOPE   C4B 9960  16.006  16.011   7.932 -0.0726  0.1881 -0.1861
  876YOPE   NH3 9961   4.993   6.692   6.349  0.1434 -0.3710  0.0137
  876YOPE   PO4 9962   4.937   7.190   6.270 -0.0551 -0.4376 -0.0745
  876YOPE   GL1 9963   4.933   7.058   6.669  0.0054  0.1423 -0.1228
  876YOPE   GL2 9964   5.081   7.252   6.822 -0.3451 -0.3564 -0.2481
  876YOPE   C1A 9965   4.796   7.005   7.115  0.0911 -0.0939 -0.6963
  876YOPE   D2A 9966   4.647   6.920   7.530 -0.1666 -0.0127  0.2359
  876YOPE   C3A 9967   4.710   6.780   7.952  0.0286  0.1132 -0.0182
  876YOPE   C4A 9968   4.784   6.538   8.287  0.0475 -0.3968 -0.0337
  876YOPE   C1B 9969   5.219   7.356   7.196 -0.0116  0.1300 -0.1317
  876YOPE   C2B 9970   5.069   7.212   7.568 -0.3249 -0.3559  0.0287
  876YOPE   D3B 9971   5.069   7.118   7.890 -0.3003 -0.0624 -0.2122
  876YOPE   C4B 9972   5.203   6.961   8.274  0.1053 -0.0427  0.1406
  877YOPE   NH3 9973   2.333   7.824   6.847 -0.0373 -0.1580  0.0352
  877YOPE   PO4 9974   2.167   7.613   6.610  0.1359  0.0406  0.0141
  877YOPE   GL1 9975   2.101   7.418   7.090  0.1055 -0.0376  0.0577
  877YOPE   GL2 9976   2.436   7.567   7.227 -0.0581  0.0512  0.0474
  877YOPE   C1A 9977   1.928   7.276   7.475 -0.0299 -0.0733 -0.0560
  877YOPE   D2A 9978   1.626   7.230   7.747  0.0624 -0.0917 -0.0277
  877YOPE   C3A 9979   1.569   6.977   8.061 -0.1777 -0.2077  0.0975
  877YOPE   C4A 9980   1.526   6.659   8.426 -0.1622  0.4281  0.0559
  877YOPE   C1B 9981   2.303   7.574   7.556  0.2835 -0.0323  0.1952
  877YOPE   C2B 9982   2.027   7.692   7.810 -0.0605 -0.0308  0.0865
  877YOPE   D3B 9983   1.916   7.931   8.138 -0.0259  0.0459  0.0736
  877YOPE   C4B 9984   1.747   7.867   8.536 -0.4336 -0.0029 -0.1273
  878YOPE   NH3 9985   1.234   6.669   6.391 -0.2045 -0.0350 -0.0946
  878YOPE   PO4 9986   1.475   6.469   6.836  0.1963 -0.0080 -0.0703
  878YOPE   GL1 9987   1.120   6.570   6.929 -0.0617  0.2060  0.0063
  878YOPE   GL2 9988   1.147   6.320   7.165 -0.0149  0.0690  0.1453
  878YOPE   C1A 9989   0.878   6.726   7.209  0.0299  0.1540 -0.2240
  878YOPE   D2A 9990   0.777   6.526   7.536 -0.1916  0.0281 -0.0102
  878YOPE   C3A 9991   0.636   6.620   7.858 -0.1844 -0.1998 -0.1514
  878YOPE   C4A 9992   0.618   6.796   8.233 -0.1355 -0.0541 -0.1700
  878YOPE   C1B 9993   1.182   6.200   7.553 -0.0506  0.1018  0.0638
  878YOPE   C2B 9994   0.820   6.189   7.874  0.0458 -0.0535 -0.0826
  878YOPE   D3B 9995   0.473   6.302   8.212  0.2213  0.2030  0.0445
  878YOPE   C4B 9996   0.169   6.405   8.557  0.4101  0.2784 -0.1564
  879YOPE   NH3 9997   2.829   9.274   6.609  0.0663  0.2898  0.0196
  879YOPE   PO4 9998   2.814   9.683   6.654 -0.1782 -0.0478 -0.0081
  879YOPE   GL1 9999   2.915   9.688   7.062 -0.0177  0.0693 -0.0499
  879YOPE   GL210000   2.733   9.440   7.132 -0.1569 -0.0600  0.0553
  879YOPE   C1A10001   3.087   9.713   7.395  0.2969  0.0785 -0.3931
  879YOPE   D2A10002   3.408   9.888   7.665 -0.1483  0.1535  0.0653
  879YOPE   C3A10003   3.131   9.954   8.037 -0.4647 -0.4164 -0.0819
  879YOPE   C4A10004   3.129   9.806   8.473  0.2496  0.0054 -0.0931
  879YOPE   C1B10005   2.316   9.369   7.296  0.3384 -0.2728  0.2980
  879YOPE   C2B10006   2.287   9.543   7.727 -0.1115  0.0012  0.2053
  879YOPE   D3B10007   2.185   9.612   8.156  0.3603 -0.1003 -0.2839
  879YOPE   C4B10008   2.161   9.698   8.610 -0.1073 -0.2727 -0.0258
  880YOPE   NH310009   9.290   5.529   6.176  0.3342  0.2927 -0.1688
  880YOPE   PO410010   8.954   5.915   6.085 -0.2758  0.2183 -0.1200
  880YOPE   GL110011   9.167   5.813   6.516  0.0197 -0.1252  0.2021
  880YOPE   GL210012   8.999   5.514   6.666 -0.2672 -0.0563 -0.0580
  880YOPE   C1A10013   9.192   5.876   6.940  0.2837 -0.0156  0.1752
  880YOPE   D2A10014   9.171   5.920   7.332 -0.0103 -0.0387  0.3031
  880YOPE   C3A10015   9.430   5.960   7.732 -0.2591  0.0222  0.1141
  880YOPE   C4A10016   9.424   5.968   8.177  0.0009 -0.3068  0.1509
  880YOPE   C1B10017   9.218   5.434   7.107  0.1741  0.1643  0.1910
  880YOPE   C2B10018   9.223   5.097   7.356 -0.3357 -0.1826  0.0709
  880YOPE   D3B10019   9.322   5.067   7.793 -0.1374  0.0184 -0.2532
  880YOPE   C4B10020   9.322   4.867   8.269 -0.2247  0.2792  0.0577
  881YOPE   NH310021  17.708   8.375   6.676  0.1747 -0.0849  0.1002
  881YOPE   PO410022  17.653   8.797   6.654 -0.1881  0.0705 -0.1256
  881YOPE   GL110023  17.333   8.642   6.933  0.1305 -0.0658  0.0391
  881YOPE   GL210024  17.505   8.448   7.119 -0.0407 -0.4422  0.4071
  881YOPE   C1A10025  17.020   8.733   7.168  0.1218 -0.1585 -0.0527
  881YOPE   D2A10026  16.930   8.855   7.619  0.0645 -0.1328  0.1276
  881YOPE   C3A10027  16.976   8.485   7.956  0.2297  0.2311 -0.2818
  881YOPE   C4A10028  17.038   8.550   8.400 -0.0877  0.2323 -0.3237
  881YOPE   C1B10029  17.430   8.391   7.596 -0.0709  0.1281  0.0327
  881YOPE   C2B10030  17.462   8.397   8.049 -0.0517 -0.0531 -0.0626
  881YOPE   D3B10031  17.589   8.605   8.423 -0.0118 -0.0250 -0.0300
  881YOPE   C4B10032  17.950   8.625   8.553 -0.0508  0.2105 -0.0127
  882YOPE   NH310033  14.286  18.122   5.588  0.1186  0.0032  0.2096
  882YOPE   PO410034  13.973  17.891   5.445  0.0686 -0.1785  0.0297
  882YOPE   GL110035  13.874  17.754   5.823 -0.1370 -0.0618  0.1192
  882YOPE   GL210036  14.205  17.739   5.990 -0.1321 -0.2773  0.1450
  882YOPE   C1A10037  13.790  17.404   6.053  0.0392  0.0227 -0.0257
  882YOPE   D2A10038  13.467  17.237   6.380  0.1078 -0.0786  0.1639
  882YOPE   C3A10039  13.430  17.268   6.795  0.1941 -0.0651 -0.3618
  882YOPE   C4A10040  13.469  17.526   7.195 -0.1413  0.0905 -0.1197
  882YOPE   C1B10041  14.365  17.544   6.403  0.0715 -0.2029  0.0900
  882YOPE   C2B10042  14.490  17.430   6.731 -0.0900 -0.1313 -0.1655
  882YOPE   D3B10043  14.520  17.428   7.103 -0.3523 -0.0833  0.1610
  882YOPE   C4B10044  14.717  17.526   7.507 -0.2091  0.0986  0.1512
  883YOPE   NH310045  10.673   3.418   5.709 -0.0109  0.0009  0.0344
  883YOPE   PO410046  11.101   3.165   5.874 -0.0259  0.0174 -0.0481
  883YOPE   GL110047  11.156   3.019   6.251  0.2219 -0.2315  0.1280
  883YOPE   GL210048  11.391   3.238   6.316  0.0199 -0.0482 -0.1348
  883YOPE   C1A10049  11.300   2.921   6.701 -0.0643  0.0755  0.2546
  883YOPE   D2A10050  11.330   2.899   7.065  0.0888 -0.4280 -0.0232
  883YOPE   C3A10051  11.306   2.607   7.411 -0.1370  0.1969  0.1977
  883YOPE   C4A10052  11.092   2.141   7.443  0.3155  0.2077  0.2985
  883YOPE   C1B10053  11.477   3.499   6.571  0.0341  0.2457 -0.3034
  883YOPE   C2B10054  11.369   3.415   7.046 -0.0654 -0.1642  0.1951
  883YOPE   D3B10055  11.287   3.344   7.427  0.1071  0.1528 -0.3630
  883YOPE   C4B10056  10.920   3.160   7.515  0.1616  0.0922 -0.0377
  884YOPE   NH310057   6.346  14.954   6.242  0.1615 -0.2453  0.0408
  884YOPE   PO410058   5.935  14.688   6.314  0.0988  0.0390 -0.2190
  884YOPE   GL110059   6.059  14.735   6.594  0.0665  0.0464  0.1725
  884YOPE   GL210060   6.162  14.427   6.676  0.0613 -0.1646  0.0347
  884YOPE   C1A10061   6.215  14.834   6.956  0.0097 -0.0380  0.0903
  884YOPE   D2A10062   6.359  14.958   7.282 -0.0989  0.0013 -0.0321
  884YOPE   C3A10063   6.599  15.368   7.345 -0.2206 -0.0749 -0.1580
  884YOPE   C4A10064   6.757  15.786   7.595 -0.1377  0.0153  0.2650
  884YOPE   C1B10065   6.146  14.295   7.133 -0.1521  0.0927  0.0905
  884YOPE   C2B10066   6.180  14.198   7.527  0.1688 -0.0197 -0.1018
  884YOPE   D3B10067   6.043  14.352   7.922 -0.1116 -0.2804 -0.0613
  884YOPE   C4B10068   5.903  14.272   8.361  0.1036 -0.0066  0.0330
  885YOPE   NH310069   8.245  10.337   6.831 -0.0075 -0.1242  0.3682
  885YOPE   PO410070   8.691  10.266   6.905  0.2199 -0.1318  0.4811
  885YOPE   GL110071   8.626  10.482   7.268  0.2300 -0.2445  0.2262
  885YOPE   GL210072   8.830  10.514   7.361  0.1402 -0.1068 -0.1215
  885YOPE   C1A10073   8.380  10.534   7.640 -0.1676 -0.0672 -0.0817
  885YOPE   D2A10074   8.138  10.632   7.999 -0.1701 -0.1356  0.1673
  885YOPE   C3A10075   8.148  10.724   8.372 -0.1206  0.1259 -0.2498
  885YOPE   C4A10076   7.930  11.039   8.629  0.3285  0.1483  0.0155
  885YOPE   C1B10077   9.105  10.297   7.714  0.0630  0.4834 -0.0839
  885YOPE   C2B10078   9.168  10.312   8.178  0.0271 -0.0143 -0.2522
  885YOPE   D3B10079   9.158  10.047   8.495 -0.1062 -0.1882 -0.0642
  885YOPE   C4B10080   8.844   9.681   8.700 -0.1048 -0.0248  0.1148
  886YOPE   NH310081   2.820   1.041   6.234 -0.0215  0.2529  0.4066
  886YOPE   PO410082   2.458   0.907   6.176 -0.1606 -0.0393  0.0999
  886YOPE   GL110083   2.418   1.041   6.661  0.1481  0.1319  0.3023
  886YOPE   GL210084   2.599   1.209   6.697 -0.0897 -0.1642  0.1731
  886YOPE   C1A10085   2.405   0.928   7.071  0.0516 -0.3123  0.1431
  886YOPE   D2A10086   2.719   0.714   7.302  0.1199  0.0548  0.1320
  886YOPE   C3A10087   2.722   0.937   7.805 -0.0317 -0.2451 -0.0911
  886YOPE   C4A10088   2.709   0.966   8.232  0.2760 -0.0516  0.1153
  886YOPE   C1B10089   2.876   1.184   7.049 -0.1326  0.0438  0.0844
  886YOPE   C2B10090   3.010   1.193   7.450  0.1614 -0.0016  0.3293
  886YOPE   D3B10091   3.066   1.314   7.813  0.0300  0.2608  0.1048
  886YOPE   C4B10092   3.315   1.524   8.049  0.0394 -0.0897  0.0923
  887YOPE   NH310093   0.724   2.790   6.152  0.0673  0.2140 -0.1230
  887YOPE   PO410094   1.004   2.987   6.383  0.0684  0.0810 -0.0942
  887YOPE   GL110095   1.144   2.899   6.741  0.3272 -0.2225 -0.0668
  887YOPE   GL210096   1.008   3.184   6.903 -0.0603 -0.0431 -0.1494
  887YOPE   C1A10097   1.444   2.960   7.195 -0.0927  0.0883  0.1071
  887YOPE   D2A10098   1.333   2.799   7.603  0.1218  0.1607  0.2356
  887YOPE   C3A10099   1.299   2.943   7.934  0.2851  0.0182  0.1353
  887YOPE   C4A10100   1.636   3.145   8.077 -0.2615 -0.0655 -0.5590
  887YOPE   C1B10101   0.801   3.487   7.073  0.0150 -0.0020 -0.1050
  887YOPE   C2B10102   0.630   3.556   7.445  0.0877  0.0534 -0.1613
  887YOPE   D3B10103   0.465   3.420   7.919  0.0603  0.1469 -0.0023
  887YOPE   C4B10104   0.346   3.411   8.307  0.1517 -0.1092 -0.0328
  888YOPE   NH310105  11.440   0.314   5.436 -0.2549  0.0115  0.0503
  888YOPE   PO410106  11.096   0.087   5.549 -0.2123 -0.1173  0.0076
  888YOPE   GL110107  10.934   0.000   6.019 -0.1812  0.3802  0.1777
  888YOPE   GL210108  10.563  -0.039   6.100 -0.0037 -0.2910 -0.1499
  888YOPE   C1A10109  11.024   0.182   6.416  0.2369 -0.0971 -0.1117
  888YOPE   D2A10110  11.061   0.040   6.833  0.0321  0.0634  0.1677
  888YOPE   C3A10111  11.192   0.237   7.111 -0.0852  0.0748  0.2486
  888YOPE   C4A10112  11.291   0.247   7.500 -0.0766 -0.0926  0.1271
  888YOPE   C1B10113  10.660  -0.171   6.501  0.0560  0.1806 -0.1551
  888YOPE   C2B10114  10.701  -0.284   6.986 -0.4519 -0.0925 -0.0999
  888YOPE   D3B10115  11.055  -0.520   7.305 -0.0691  0.0608 -0.3772
  888YOPE   C4B10116  11.464  -0.626   7.597  0.0436  0.2923  0.1874
  889YOPE   NH310117   3.764   1.057   6.226  0.2702 -0.0987  0.1273
  889YOPE   PO410118   3.725   1.525   6.084  0.2277 -0.3906 -0.0073
  889YOPE   GL110119   3.565   1.433   6.540 -0.0624  0.1084  0.2038
  889YOPE   GL210120   3.742   1.609   6.755  0.1637  0.0895 -0.1358
  889YOPE   C1A10121   3.253   1.531   6.782  0.0641 -0.2703 -0.1322
  889YOPE   D2A10122   3.182   1.593   7.227 -0.0925  0.0123 -0.1642
  889YOPE   C3A10123   3.440   1.479   7.412  0.1801  0.2584 -0.1338
  889YOPE   C4A10124   3.617   1.306   7.751  0.1025 -0.3485  0.1005
  889YOPE   C1B10125   3.826   1.638   7.170 -0.0061 -0.0563  0.0684
  889YOPE   C2B10126   3.983   1.660   7.562 -0.1403  0.2141  0.2915
  889YOPE   D3B10127   4.092   1.262   7.921  0.0956  0.0169 -0.3167
  889YOPE   C4B10128   4.150   0.933   8.186 -0.1135 -0.0223  0.1337
  890YOPE   NH310129   6.711  13.107   6.652  0.0529 -0.1722 -0.2215
  890YOPE   PO410130   6.574  12.656   6.666  0.0400 -0.0392 -0.0284
  890YOPE   GL110131   6.498  12.795   7.071  0.1433  0.0437  0.2760
  890YOPE   GL210132   6.633  13.139   7.147 -0.3578 -0.2064 -0.0340
  890YOPE   C1A10133   6.585  12.802   7.518 -0.0092 -0.2202  0.0925
  890YOPE   D2A10134   6.668  12.793   7.970  0.1017 -0.2818 -0.0361
  890YOPE   C3A10135   7.074  12.965   7.954  0.0009  0.0408  0.2633
  890YOPE   C4A10136   7.218  13.058   8.307  0.0270 -0.1445  0.0810
  890YOPE   C1B10137   6.368  13.196   7.355 -0.0413 -0.3639  0.0334
  890YOPE   C2B10138   6.122  13.180   7.786 -0.1039  0.0579  0.0791
  890YOPE   D3B10139   5.869  13.106   8.191  0.1592  0.1032  0.0470
  890YOPE   C4B10140   5.677  12.751   8.416 -0.2393 -0.0377 -0.0528
  891YOPE   NH310141  16.951  16.969   6.247 -0.1216  0.1032 -0.1252
  891YOPE   PO410142  16.599  17.240   6.180 -0.2174  0.1238 -0.0122
  891YOPE   GL110143  16.376  17.511   6.388  0.2379  0.1700  0.0363
  891YOPE   GL210144  16.066  17.583   6.460  0.0198 -0.2397  0.2075
  891YOPE   C1A10145  16.353  17.715   6.890 -0.0042 -0.1024  0.0774
  891YOPE   D2A10146  16.372  17.793   7.255  0.3144  0.0749  0.0837
  891YOPE   C3A10147  16.652  18.095   7.439  0.1263 -0.2539  0.0020
  891YOPE   C4A10148  16.880  18.351   7.157 -0.1228  0.1081  0.1308
  891YOPE   C1B10149  16.032  17.347   6.764  0.1704  0.0254  0.0230
  891YOPE   C2B10150  15.823  17.169   7.157  0.0251  0.0154  0.2603
  891YOPE   D3B10151  15.793  16.954   7.541 -0.0761 -0.0493  0.2567
  891YOPE   C4B10152  15.716  16.795   7.931  0.0041  0.0225 -0.0632
  892YOPE   NH310153  15.882   3.333   5.950  0.1763  0.0178 -0.1084
  892YOPE   PO410154  15.814   3.400   6.410 -0.0611  0.0162  0.0038
  892YOPE   GL110155  16.049   3.691   6.585  0.1391 -0.0034 -0.1952
  892YOPE   GL210156  15.817   3.862   6.596 -0.2314 -0.0172 -0.2124
  892YOPE   C1A10157  16.167   3.764   7.001  0.0081  0.1116 -0.0610
  892YOPE   D2A10158  16.093   3.729   7.443  0.2190 -0.0055 -0.2163
  892YOPE   C3A10159  16.329   3.461   7.861 -0.3283 -0.1850 -0.2190
  892YOPE   C4A10160  16.617   3.232   7.903 -0.3611  0.0653  0.2106
  892YOPE   C1B10161  15.716   3.867   6.974  0.0839 -0.1748  0.1088
  892YOPE   C2B10162  15.595   3.919   7.434  0.0206 -0.0185 -0.0188
  892YOPE   D3B10163  15.610   3.847   7.828  0.1274  0.0770  0.0781
  892YOPE   C4B10164  15.449   3.684   8.193 -0.4996  0.1956  0.1120
  893YOPE   NH310165   1.825  10.316   6.355 -0.1285 -0.0471 -0.1334
  893YOPE   PO410166   1.452  10.246   6.550 -0.2425  0.0662  0.1072
  893YOPE   GL110167   1.458  10.438   6.874 -0.1266  0.3073  0.1957
  893YOPE   GL210168   1.649  10.598   6.836 -0.2060  0.1207  0.0121
  893YOPE   C1A10169   1.292  10.478   7.266 -0.1827  0.1314  0.0286
  893YOPE   D2A10170   1.600  10.532   7.669  0.1039  0.1580 -0.0514
  893YOPE   C3A10171   1.701  10.829   8.003  0.0463  0.1888 -0.1038
  893YOPE   C4A10172   1.724  10.962   8.412  0.1961 -0.1949 -0.1621
  893YOPE   C1B10173   1.676  10.849   7.166  0.0634  0.2139  0.0600
  893YOPE   C2B10174   1.830  11.164   7.449  0.0405  0.1652 -0.3740
  893YOPE   D3B10175   2.002  11.235   7.808  0.4499  0.2311 -0.2627
  893YOPE   C4B10176   2.000  11.559   8.142 -0.1503  0.2342  0.3103
  894YOPE   NH310177   8.567  10.729   6.859 -0.0520 -0.3463 -0.1350
  894YOPE   PO410178   8.300  10.803   6.607 -0.2611 -0.3067 -0.1584
  894YOPE   GL110179   8.114  10.715   7.087  0.3138 -0.1556 -0.0947
  894YOPE   GL210180   7.883  10.958   7.319 -0.0273 -0.3366  0.2724
  894YOPE   C1A10181   8.332  11.005   7.481  0.0560  0.2779 -0.1694
  894YOPE   D2A10182   8.231  11.141   7.819  0.1270  0.0974 -0.2064
  894YOPE   C3A10183   8.571  11.117   8.068  0.4209 -0.1322  0.4708
  894YOPE   C4A10184   8.784  11.298   8.385 -0.1297 -0.0421  0.0066
  894YOPE   C1B10185   7.798  10.946   7.768 -0.1555  0.0113 -0.2914
  894YOPE   C2B10186   7.628  11.045   8.167 -0.0508 -0.1089  0.0409
  894YOPE   D3B10187   7.513  11.489   8.240 -0.0728  0.3895 -0.3041
  894YOPE   C4B10188   7.330  11.700   8.038  0.0100 -0.2831 -0.2270
  895YOPE   NH310189  12.353   0.149   5.553 -0.1461  0.0199 -0.1290
  895YOPE   PO410190  11.995   0.131   5.350 -0.1634 -0.0643 -0.3892
  895YOPE   GL110191  11.892   0.157   5.818  0.0575 -0.1253  0.1271
  895YOPE   GL210192  12.006  -0.027   6.015 -0.0193  0.1913  0.1197
  895YOPE   C1A10193  11.633   0.437   6.149  0.0942 -0.1123  0.0661
  895YOPE   D2A10194  11.289   0.617   6.387 -0.0421  0.0639  0.0035
  895YOPE   C3A10195  11.335   0.524   6.808  0.0754  0.0010 -0.0728
  895YOPE   C4A10196  11.334   0.673   7.257  0.0050 -0.1746 -0.1836
  895YOPE   C1B10197  12.069  -0.206   6.403 -0.0919 -0.0433  0.2676
  895YOPE   C2B10198  11.898  -0.451   6.758  0.0391  0.3020  0.2672
  895YOPE   D3B10199  11.786  -0.655   7.148 -0.1446  0.0630  0.1526
  895YOPE   C4B10200  11.769  -0.986   7.453  0.0493 -0.0213  0.0197
  896YOPE   NH310201  17.049  17.665   6.193 -0.1264  0.3899 -0.0244
  896YOPE   PO410202  17.347  17.325   6.199  0.1456  0.0368 -0.1959
  896YOPE   GL110203  17.402  17.637   6.598  0.0647  0.0410 -0.1585
  896YOPE   GL210204  17.631  17.848   6.655  0.3619 -0.1041 -0.0574
  896YOPE   C1A10205  17.225  17.527   7.020  0.1076  0.3718  0.0735
  896YOPE   D2A10206  16.854  17.514   7.242 -0.0623  0.1516  0.3199
  896YOPE   C3A10207  16.873  17.240   7.763 -0.3380 -0.1483 -0.2221
  896YOPE   C4A10208  16.677  16.875   7.925  0.1202 -0.1626 -0.2865
  896YOPE   C1B10209  17.572  17.825   7.083 -0.0338  0.1175 -0.0146
  896YOPE   C2B10210  17.506  17.842   7.621  0.0242  0.0132  0.3874
  896YOPE   D3B10211  17.217  18.132   7.962 -0.0488  0.2407 -0.2189
  896YOPE   C4B10212  16.987  18.222   8.296 -0.0555  0.1269  0.0626
  897YOPE   NH310213   4.635   5.182   6.594  0.0416  0.2830  0.2519
  897YOPE   PO410214   4.758   4.788   6.541  0.0603 -0.2776 -0.0540
  897YOPE   GL110215   5.009   4.684   6.828 -0.2513 -0.0372  0.2803
  897YOPE   GL210216   4.887   4.436   6.852 -0.2665 -0.0900 -0.1225
  897YOPE   C1A10217   5.124   4.714   7.248 -0.2061  0.3876 -0.1857
  897YOPE   D2A10218   5.239   4.470   7.620 -0.0704 -0.0006 -0.2062
  897YOPE   C3A10219   5.239   4.520   8.020 -0.0938  0.1377  0.0440
  897YOPE   C4A10220   5.545   4.632   8.319  0.1386  0.1246  0.1816
  897YOPE   C1B10221   4.874   4.155   7.157  0.1309 -0.0248 -0.0288
  897YOPE   C2B10222   5.116   3.971   7.497 -0.0261  0.0773  0.1078
  897YOPE   D3B10223   5.329   3.974   7.806 -0.1114 -0.0634  0.0082
  897YOPE   C4B10224   5.454   4.079   8.251  0.2183  0.0137 -0.0541
  898YOPE   NH310225   7.183   5.988   6.262  0.1689  0.2886 -0.0425
  898YOPE   PO410226   7.144   5.570   6.077  0.3239  0.0029 -0.1204
  898YOPE   GL110227   7.225   5.513   6.573 -0.1380 -0.1027 -0.0776
  898YOPE   GL210228   7.410   5.794   6.725  0.0705 -0.1753  0.0354
  898YOPE   C1A10229   7.099   5.443   6.888 -0.0086 -0.0133 -0.2214
  898YOPE   D2A10230   7.204   5.240   7.204 -0.1334 -0.1589 -0.2414
  898YOPE   C3A10231   7.202   5.171   7.603 -0.0589 -0.1389 -0.3435
  898YOPE   C4A10232   7.433   4.944   7.954 -0.1215 -0.1453 -0.2115
  898YOPE   C1B10233   7.521   5.676   7.030 -0.0178  0.2584 -0.0294
  898YOPE   C2B10234   7.626   5.460   7.356 -0.0152 -0.1736  0.0355
  898YOPE   D3B10235   7.934   5.336   7.660  0.1366  0.1084 -0.2016
  898YOPE   C4B10236   8.360   5.192   7.774  0.0439  0.1245  0.0121
  899YOPE   NH310237  14.746  11.950   6.496  0.0178  0.2446  0.0815
  899YOPE   PO410238  14.987  12.306   6.291  0.1118 -0.2686  0.0365
  899YOPE   GL110239  14.942  12.384   6.729  0.3946  0.4529  0.2811
  899YOPE   GL210240  15.014  12.062   6.912  0.1354  0.1363 -0.1019
  899YOPE   C1A10241  14.930  12.557   7.110  0.1209  0.2681 -0.0078
  899YOPE   D2A10242  14.966  12.774   7.502 -0.1899 -0.0216 -0.0051
  899YOPE   C3A10243  14.875  12.674   7.899  0.0514  0.2271 -0.4127
  899YOPE   C4A10244  14.593  12.556   8.175 -0.2346 -0.1573  0.3960
  899YOPE   C1B10245  14.797  12.137   7.313 -0.0752 -0.4997  0.1547
  899YOPE   C2B10246  14.677  12.225   7.705 -0.1137 -0.0588 -0.1377
  899YOPE   D3B10247  14.395  12.143   8.159  0.0230 -0.2104  0.1567
  899YOPE   C4B10248  14.184  12.238   8.553 -0.0420 -0.1638 -0.0243
  900YOPE   NH310249   6.431   5.383   6.254  0.0121  0.0018  0.0984
  900YOPE   PO410250   6.457   4.914   6.367 -0.0177 -0.0129 -0.4956
  900YOPE   GL110251   6.457   4.699   6.693 -0.0247  0.0814 -0.0211
  900YOPE   GL210252   6.498   4.307   6.596 -0.0737  0.1215 -0.1495
  900YOPE   C1A10253   6.429   4.520   7.096 -0.0298 -0.1392  0.0468
  900YOPE   D2A10254   6.615   4.449   7.550  0.1333  0.1040  0.0322
  900YOPE   C3A10255   6.720   4.545   7.893  0.0354 -0.0848 -0.0001
  900YOPE   C4A10256   6.800   4.614   8.301 -0.2158 -0.0483  0.0549
  900YOPE   C1B10257   6.538   4.067   6.978  0.1151  0.3168 -0.0992
  900YOPE   C2B10258   6.680   3.951   7.439 -0.3923  0.3015  0.0701
  900YOPE   D3B10259   6.975   4.152   7.755  0.1362  0.2416  0.0484
  900YOPE   C4B10260   7.437   4.052   7.898 -0.2757 -0.0125  0.0879
  901YOPE   NH310261   5.499   5.467   6.482  0.2286  0.1308 -0.0684
  901YOPE   PO410262   5.572   4.976   6.250  0.1588 -0.1338 -0.2630
  901YOPE   GL110263   5.586   4.865   6.668  0.0735  0.0138 -0.0068
  901YOPE   GL210264   5.602   5.189   6.889 -0.2307  0.2590  0.1425
  901YOPE   C1A10265   5.621   4.792   7.167 -0.0145  0.2878  0.1234
  901YOPE   D2A10266   5.646   4.929   7.582  0.1690  0.2613  0.0144
  901YOPE   C3A10267   5.915   4.847   7.957 -0.0178 -0.1928  0.1919
  901YOPE   C4A10268   6.021   4.666   8.344 -0.0544 -0.1290 -0.1522
  901YOPE   C1B10269   5.739   5.303   7.327  0.0059  0.1430 -0.0431
  901YOPE   C2B10270   6.061   5.275   7.686 -0.1170 -0.4467  0.0924
  901YOPE   D3B10271   6.030   5.353   8.098  0.0081  0.0436  0.1162
  901YOPE   C4B10272   5.854   5.611   8.408  0.2283 -0.1331  0.1847
  902YOPE   NH310273   8.732   2.178   5.461  0.0233  0.0324 -0.0483
  902YOPE   PO410274   9.137   2.052   5.418  0.0723  0.1713  0.2062
  902YOPE   GL110275   8.825   1.817   5.701 -0.2018  0.1078 -0.0458
  902YOPE   GL210276   8.867   1.475   5.735  0.0008  0.0542 -0.0848
  902YOPE   C1A10277   8.708   1.754   6.136 -0.0714  0.0354 -0.3852
  902YOPE   D2A10278   8.688   1.838   6.518  0.1319  0.1567 -0.0499
  902YOPE   C3A10279   8.780   2.266   6.537 -0.4271  0.0707 -0.2545
  902YOPE   C4A10280   9.009   2.640   6.227  0.2532 -0.1994 -0.0590
  902YOPE   C1B10281   9.019   1.331   6.134 -0.3248 -0.0134 -0.1188
  902YOPE   C2B10282   9.295   0.999   6.210  0.0568 -0.4771  0.0879
  902YOPE   D3B10283   9.508   0.729   6.567 -0.2739 -0.2067 -0.1885
  902YOPE   C4B10284   9.578   0.448   6.939 -0.1317  0.0071  0.1913
  903YOPE   NH310285   5.673  15.108   6.298  0.1150 -0.2997  0.1598
  903YOPE   PO410286   5.449  15.226   5.928  0.2747 -0.1204 -0.0214
  903YOPE   GL110287   5.342  15.537   6.288  0.1435 -0.1128  0.1378
  903YOPE   GL210288   5.453  15.563   6.490 -0.0623  0.1027 -0.3362
  903YOPE   C1A10289   4.952  15.475   6.675  0.0526 -0.0036  0.1913
  903YOPE   D2A10290   4.914  15.645   7.111 -0.3430 -0.0964  0.2193
  903YOPE   C3A10291   4.854  15.369   7.485  0.2523 -0.1391  0.1202
  903YOPE   C4A10292   5.040  15.263   7.866  0.0621 -0.2687 -0.4973
  903YOPE   C1B10293   5.504  15.705   6.890 -0.0580  0.2577  0.1664
  903YOPE   C2B10294   5.448  15.852   7.258 -0.0436  0.3198 -0.1018
  903YOPE   D3B10295   5.489  16.034   7.662 -0.2772 -0.1680 -0.0586
  903YOPE   C4B10296   5.436  16.365   7.977 -0.2435  0.3004  0.3426
  904YOPE   NH310297   2.026   1.659   6.147  0.2594  0.0455 -0.4774
  904YOPE   PO410298   2.474   1.399   6.280  0.4650 -0.0404  0.1105
  904YOPE   GL110299   2.156   1.452   6.601  0.0576 -0.0468 -0.0292
  904YOPE   GL210300   2.180   1.759   6.648 -0.0713  0.0528  0.1975
  904YOPE   C1A10301   2.265   1.451   7.025 -0.0900  0.1538 -0.0835
  904YOPE   D2A10302   2.428   1.213   7.476 -0.0252 -0.0091 -0.0571
  904YOPE   C3A10303   2.581   1.452   7.879  0.1753 -0.2308  0.3285
  904YOPE   C4A10304   2.667   1.468   8.290  0.1212 -0.3242 -0.0551
  904YOPE   C1B10305   2.306   1.945   7.083  0.0291 -0.2791  0.1698
  904YOPE   C2B10306   2.258   1.699   7.488 -0.1703  0.1526 -0.2527
  904YOPE   D3B10307   1.999   1.523   7.785 -0.4133  0.3286  0.0517
  904YOPE   C4B10308   1.592   1.679   8.003 -0.1589  0.3268 -0.1191
  905YOPE   NH310309   9.826   2.967   5.449  0.1127  0.1811 -0.1919
  905YOPE   PO410310   9.877   3.139   5.937 -0.0350  0.0377 -0.1225
  905YOPE   GL110311   9.840   3.108   6.389  0.0320  0.1672 -0.1058
  905YOPE   GL210312   9.489   3.245   6.566 -0.1425 -0.1857  0.1046
  905YOPE   C1A10313   9.786   2.809   6.765  0.0668  0.2674 -0.2354
  905YOPE   D2A10314   9.427   2.778   7.035 -0.1548  0.0179  0.0061
  905YOPE   C3A10315   9.290   2.381   7.251  0.0721  0.0692  0.4484
  905YOPE   C4A10316   9.317   2.166   7.667  0.1422  0.1727 -0.5319
  905YOPE   C1B10317   9.358   2.858   6.527 -0.0177  0.2166 -0.1587
  905YOPE   C2B10318   9.204   2.442   6.746  0.1232  0.0412  0.0330
  905YOPE   D3B10319   8.974   2.148   6.963  0.3186 -0.0175 -0.1284
  905YOPE   C4B10320   9.124   1.833   7.329 -0.0394 -0.1977 -0.2864
  906YOPE   NH310321  17.861  16.647   6.494  0.3674  0.1578  0.2082
  906YOPE   PO410322  17.885  16.181   6.332  0.1022 -0.0390  0.1953
  906YOPE   GL110323  17.906  16.130   6.711  0.2353  0.0563  0.0618
  906YOPE   GL210324  18.050  16.388   6.873 -0.0377  0.1988  0.2048
  906YOPE   C1A10325  17.919  15.953   7.108  0.0785 -0.0547  0.1852
  906YOPE   D2A10326  18.118  15.644   7.410 -0.0895 -0.1214 -0.2917
  906YOPE   C3A10327  18.215  15.683   7.760  0.1228  0.0534  0.0421
  906YOPE   C4A10328  18.218  15.772   8.185 -0.2832  0.0028 -0.1765
  906YOPE   C1B10329  18.265  16.266   7.224 -0.1800  0.0082 -0.1028
  906YOPE   C2B10330  18.108  16.093   7.554  0.1453 -0.3325  0.1275
  906YOPE   D3B10331  18.139  16.239   7.905 -0.2381  0.1080 -0.0615
  906YOPE   C4B10332  18.082  16.600   8.127  0.1749  0.1879 -0.1594
  907YOPE   NH310333   5.461   2.962   6.488  0.2033 -0.1430  0.2993
  907YOPE   PO410334   5.061   3.123   6.628 -0.0206  0.2401  0.2632
  907YOPE   GL110335   4.963   3.080   7.076  0.0561  0.0280  0.0309
  907YOPE   GL210336   5.069   2.831   7.244  0.4678 -0.2588 -0.0962
  907YOPE   C1A10337   4.593   3.186   7.307  0.0968 -0.2720  0.1420
  907YOPE   D2A10338   4.679   3.398   7.742  0.1460 -0.0256  0.0949
  907YOPE   C3A10339   4.549   3.479   8.139  0.0464  0.1301  0.0984
  907YOPE   C4A10340   4.542   3.904   8.292 -0.1954 -0.0137 -0.3040
  907YOPE   C1B10341   5.006   2.974   7.608 -0.1018 -0.3456 -0.1092
  907YOPE   C2B10342   4.916   3.034   8.031 -0.0429  0.2123 -0.2928
  907YOPE   D3B10343   4.944   3.274   8.423  0.1267 -0.2995 -0.1258
  907YOPE   C4B10344   4.520   3.452   8.644 -0.1448  0.2124  0.0539
  908YOPE   NH310345  12.713  17.153   5.795 -0.1387 -0.0756 -0.1356
  908YOPE   PO410346  12.486  17.460   5.789 -0.0240  0.0436  0.0721
  908YOPE   GL110347  12.615  17.362   6.269 -0.1754  0.0987  0.1794
  908YOPE   GL210348  12.892  17.195   6.307  0.0211 -0.0544 -0.2806
  908YOPE   C1A10349  12.643  17.263   6.725  0.0120  0.0002  0.1248
  908YOPE   D2A10350  12.769  17.447   7.126 -0.0693  0.1605 -0.0124
  908YOPE   C3A10351  12.574  17.456   7.554 -0.0941 -0.0189  0.1158
  908YOPE   C4A10352  12.180  17.596   7.573  0.2955 -0.1322 -0.0573
  908YOPE   C1B10353  13.052  17.548   6.474 -0.0942 -0.3052  0.0164
  908YOPE   C2B10354  13.156  17.725   6.845  0.2778 -0.0177  0.1676
  908YOPE   D3B10355  13.100  17.769   7.371 -0.1490 -0.0968  0.0812
  908YOPE   C4B10356  13.227  17.833   7.776  0.0208  0.0533 -0.1176
  909YOPE   NH310357  13.351   2.831   5.561  0.0026  0.1548 -0.3143
  909YOPE   PO410358  12.961   3.002   5.817  0.0321 -0.0035  0.1589
  909YOPE   GL110359  13.115   2.989   6.151  0.1324 -0.5350  0.0668
  909YOPE   GL210360  13.016   3.264   6.266 -0.0620 -0.0670  0.3626
  909YOPE   C1A10361  13.066   2.816   6.539  0.3007 -0.2216  0.1087
  909YOPE   D2A10362  13.117   2.725   6.947  0.1347 -0.1567 -0.0934
  909YOPE   C3A10363  13.109   2.784   7.306  0.0462 -0.2214 -0.1186
  909YOPE   C4A10364  13.279   2.859   7.767  0.0165  0.0654 -0.1834
  909YOPE   C1B10365  13.163   3.280   6.656  0.1424 -0.1289  0.1910
  909YOPE   C2B10366  13.063   3.199   7.057 -0.2194 -0.0650 -0.0874
  909YOPE   D3B10367  13.029   3.283   7.477  0.0585  0.2353  0.2995
  909YOPE   C4B10368  13.105   3.352   7.933 -0.0260 -0.2735  0.5467
  910YOPE   NH310369  16.887  11.823   6.650 -0.2383  0.2048  0.1343
  910YOPE   PO410370  16.884  12.217   6.402 -0.1751  0.0268 -0.0003
  910YOPE   GL110371  17.064  12.238   6.845  0.0285  0.2003 -0.0560
  910YOPE   GL210372  17.251  12.004   6.923 -0.1547 -0.2273  0.1661
  910YOPE   C1A10373  17.228  12.450   7.296 -0.0951  0.1808  0.0326
  910YOPE   D2A10374  17.255  12.625   7.685 -0.1620 -0.0055  0.2354
  910YOPE   C3A10375  17.605  12.692   7.952  0.1757  0.0976 -0.1989
  910YOPE   C4A10376  17.944  12.608   8.093 -0.0323  0.1586 -0.0023
  910YOPE   C1B10377  16.993  12.003   7.306 -0.0308  0.0265  0.0433
  910YOPE   C2B10378  16.933  11.990   7.786  0.0071  0.0643  0.5040
  910YOPE   D3B10379  17.212  12.281   8.025 -0.2195  0.0305 -0.0092
  910YOPE   C4B10380  17.484  12.352   8.296 -0.1020 -0.1753  0.0983
  911YOPE   NH310381  17.132  10.611   6.660  0.0066  0.0421  0.1420
  911YOPE   PO410382  16.760  10.442   6.580  0.0007 -0.0479  0.2641
  911YOPE   GL110383  16.608  10.174   6.992  0.0715  0.1537  0.2951
  911YOPE   GL210384  16.512   9.911   6.940 -0.3578  0.0646 -0.3645
  911YOPE   C1A10385  16.868   9.962   7.413 -0.1347  0.0165  0.0310
  911YOPE   D2A10386  16.861   9.970   7.887  0.2111  0.0373  0.1773
  911YOPE   C3A10387  17.193   9.896   8.098  0.1260  0.1493  0.1327
  911YOPE   C4A10388  17.438  10.143   8.363 -0.0473 -0.0768  0.2238
  911YOPE   C1B10389  16.370   9.709   7.408  0.2278  0.0309 -0.3887
  911YOPE   C2B10390  16.405   9.694   7.874 -0.0180 -0.0342  0.0979
  911YOPE   D3B10391  16.389   9.518   8.224  0.2554  0.1006 -0.0339
  911YOPE   C4B10392  16.152   9.494   8.620 -0.1567  0.0133 -0.0498
  912YOPE   NH310393   1.823  15.880   6.216 -0.1285  0.1405  0.0718
  912YOPE   PO410394   1.359  15.845   6.189 -0.0388  0.0213  0.2957
  912YOPE   GL110395   1.523  15.755   6.667  0.2336 -0.3193 -0.0301
  912YOPE   GL210396   1.782  15.699   6.803  0.3003 -0.1298 -0.0547
  912YOPE   C1A10397   1.262  15.444   6.903  0.3053 -0.1466  0.3024
  912YOPE   D2A10398   0.934  15.154   6.825  0.1076 -0.0322  0.0477
  912YOPE   C3A10399   1.197  14.845   6.687 -0.0292  0.3186  0.2220
  912YOPE   C4A10400   1.482  14.613   6.895  0.2785  0.4141  0.0193
  912YOPE   C1B10401   1.871  15.400   7.061  0.0120 -0.0678 -0.1641
  912YOPE   C2B10402   2.040  15.109   7.254 -0.2656 -0.0064 -0.1983
  912YOPE   D3B10403   2.055  14.970   7.579 -0.0531 -0.0832  0.2339
  912YOPE   C4B10404   2.208  14.568   7.769 -0.3701 -0.0998  0.1940
  913YOPE   NH310405  12.217   0.635   5.440 -0.1513 -0.0265  0.3486
  913YOPE   PO410406  11.791   0.615   5.573  0.0108 -0.0027 -0.1447
  913YOPE   GL110407  12.048   0.918   5.855  0.0809  0.2522  0.0655
  913YOPE   GL210408  12.400   1.051   5.955 -0.0048  0.1385  0.0989
  913YOPE   C1A10409  11.840   1.013   6.197  0.0422 -0.1831 -0.1931
  913YOPE   D2A10410  11.568   1.017   6.625 -0.3470  0.1177 -0.2858
  913YOPE   C3A10411  11.503   1.081   7.062 -0.0003  0.1522 -0.1020
  913YOPE   C4A10412  11.275   1.199   7.410  0.1614 -0.0615  0.0149
  913YOPE   C1B10413  12.389   0.919   6.375  0.4365  0.4231 -0.0662
  913YOPE   C2B10414  12.122   1.078   6.703  0.1209  0.2537  0.1525
  913YOPE   D3B10415  11.962   1.177   7.039 -0.1879  0.0248 -0.1186
  913YOPE   C4B10416  11.828   1.367   7.298 -0.0202  0.1549 -0.0660
  914YOPE   NH310417   2.844  15.075   6.009 -0.0684 -0.0196 -0.0763
  914YOPE   PO410418   2.903  14.741   6.117  0.0838  0.3379  0.2746
  914YOPE   GL110419   2.691  14.891   6.483 -0.0747 -0.0982  0.0276
  914YOPE   GL210420   2.664  14.631   6.661 -0.1808 -0.0969 -0.0083
  914YOPE   C1A10421   2.878  15.270   6.673 -0.0508  0.0046 -0.3211
  914YOPE   D2A10422   2.848  15.622   6.935 -0.0284  0.1774 -0.1434
  914YOPE   C3A10423   2.890  15.605   7.340  0.0003  0.1123 -0.4225
  914YOPE   C4A10424   2.686  15.671   7.682 -0.0499  0.0409  0.0034
  914YOPE   C1B10425   2.797  14.624   7.033  0.0709 -0.1371 -0.1106
  914YOPE   C2B10426   2.975  14.445   7.245 -0.0020 -0.1868 -0.0540
  914YOPE   D3B10427   3.083  14.314   7.693 -0.3539 -0.0244  0.2886
  914YOPE   C4B10428   2.939  14.427   8.145  0.1684  0.1400  0.3971
  915YOPE   NH310429  11.758  13.548   6.099 -0.1634 -0.0540 -0.1229
  915YOPE   PO410430  11.909  13.955   5.849  0.0972 -0.1387  0.1634
  915YOPE   GL110431  11.988  14.108   6.234  0.0694 -0.0020  0.1372
  915YOPE   GL210432  11.918  13.802   6.534  0.3552 -0.1524  0.0674
  915YOPE   C1A10433  11.744  14.402   6.524  0.2216  0.0678 -0.4057
  915YOPE   D2A10434  11.676  14.451   6.912 -0.0807 -0.1074 -0.1470
  915YOPE   C3A10435  12.016  14.568   7.198  0.1986  0.2400 -0.0325
  915YOPE   C4A10436  12.417  14.824   7.203  0.1362  0.2076 -0.1857
  915YOPE   C1B10437  11.946  13.556   6.936 -0.2059 -0.1426 -0.0392
  915YOPE   C2B10438  12.132  13.404   7.360 -0.0531 -0.1546 -0.1617
  915YOPE   D3B10439  12.308  13.293   7.727 -0.2946 -0.0715 -0.0252
  915YOPE   C4B10440  12.631  13.491   8.098 -0.2730  0.4138 -0.1324
  916YOPE   NH310441  17.430  14.894   6.342  0.1378 -0.0282  0.3748
  916YOPE   PO410442  16.965  14.949   6.374 -0.0972 -0.1698 -0.3350
  916YOPE   GL110443  17.186  14.943   6.814  0.0271 -0.2279  0.0239
  916YOPE   GL210444  17.557  15.110   6.771 -0.2004  0.0713 -0.2458
  916YOPE   C1A10445  17.306  14.960   7.203  0.0681 -0.2094 -0.3740
  916YOPE   D2A10446  17.268  14.905   7.685  0.2363  0.3444 -0.1649
  916YOPE   C3A10447  17.275  15.239   8.051  0.2293  0.0871 -0.1070
  916YOPE   C4A10448  17.338  15.603   8.227  0.0724  0.1716 -0.0099
  916YOPE   C1B10449  17.746  14.821   7.033  0.0033  0.1886 -0.0763
  916YOPE   C2B10450  17.803  14.851   7.443  0.0473 -0.0190 -0.0039
  916YOPE   D3B10451  17.851  14.742   7.696  0.2628 -0.4050  0.1199
  916YOPE   C4B10452  17.861  14.958   8.025 -0.2009 -0.2868  0.2679
  917YOPE   NH310453   9.083   2.970   5.642 -0.4091 -0.0152  0.2724
  917YOPE   PO410454   8.795   2.783   5.389 -0.0101 -0.3164 -0.0180
  917YOPE   GL110455   8.723   2.627   5.777 -0.0786  0.2806  0.0969
  917YOPE   GL210456   8.672   2.934   5.901 -0.2095  0.0014 -0.3071
  917YOPE   C1A10457   8.556   2.222   6.104 -0.0101 -0.1049 -0.1560
  917YOPE   D2A10458   8.253   2.227   6.588  0.0235  0.1886  0.1188
  917YOPE   C3A10459   8.398   2.106   6.818  0.0344  0.1712 -0.1525
  917YOPE   C4A10460   8.628   1.961   7.265 -0.0917  0.2401  0.3981
  917YOPE   C1B10461   8.465   3.140   6.234  0.2986 -0.1468 -0.0275
  917YOPE   C2B10462   8.181   3.558   6.334  0.1137  0.2400 -0.2397
  917YOPE   D3B10463   8.084   3.941   6.537 -0.1177 -0.0800  0.1111
  917YOPE   C4B10464   7.871   4.329   6.503 -0.1240 -0.2601  0.2621
  918YOPE   NH310465   1.469   5.303   6.452 -0.0168 -0.1011  0.1390
  918YOPE   PO410466   1.361   4.868   6.480 -0.2523 -0.1128  0.0039
  918YOPE   GL110467   1.408   4.775   7.009  0.3761 -0.1373 -0.1152
  918YOPE   GL210468   1.550   4.434   7.131 -0.1634  0.2694  0.0146
  918YOPE   C1A10469   1.381   4.863   7.427  0.0061 -0.1627  0.0960
  918YOPE   D2A10470   1.503   4.947   7.890 -0.0438  0.2670  0.0612
  918YOPE   C3A10471   1.186   5.247   8.051 -0.2473  0.0831 -0.0455
  918YOPE   C4A10472   1.155   5.597   8.465  0.0111  0.3353  0.3064
  918YOPE   C1B10473   1.471   4.429   7.629  0.1763 -0.2487  0.0828
  918YOPE   C2B10474   1.622   4.475   8.022  0.1477  0.0386 -0.0891
  918YOPE   D3B10475   1.634   4.753   8.356  0.1502  0.2690 -0.1971
  918YOPE   C4B10476   1.410   5.152   8.474 -0.0135  0.2285 -0.0336
  919YOPE   NH310477   4.574   0.839   6.165 -0.1228 -0.0575 -0.0664
  919YOPE   PO410478   4.415   1.087   6.335  0.1111  0.1285 -0.3356
  919YOPE   GL110479   4.578   0.926   6.698 -0.1141  0.0800 -0.0864
  919YOPE   GL210480   4.558   0.628   6.657 -0.1021  0.0295  0.4642
  919YOPE   C1A10481   4.965   0.866   6.927  0.1353  0.0102  0.1012
  919YOPE   D2A10482   5.077   0.926   7.345 -0.1750 -0.2451  0.0876
  919YOPE   C3A10483   4.898   0.738   7.623  0.2870 -0.4513 -0.1518
  919YOPE   C4A10484   4.446   0.698   7.861 -0.1184  0.1980  0.3991
  919YOPE   C1B10485   4.603   0.184   6.929 -0.0960  0.1402 -0.1786
  919YOPE   C2B10486   4.463   0.100   7.349 -0.3181 -0.2320  0.1126
  919YOPE   D3B10487   4.677   0.167   7.726 -0.2011 -0.0833 -0.1163
  919YOPE   C4B10488   4.899   0.395   7.949  0.2113 -0.3617 -0.0009
  920YOPE   NH310489   3.696  11.679   6.586  0.0092  0.3714 -0.0068
  920YOPE   PO410490   3.992  11.358   6.644  0.2322  0.0017 -0.0373
  920YOPE   GL110491   4.238  11.214   6.954  0.1789 -0.0875  0.0702
  920YOPE   GL210492   4.518  11.235   7.095 -0.0580  0.1108 -0.3104
  920YOPE   C1A10493   4.157  11.050   7.366  0.0106  0.1337 -0.1652
  920YOPE   D2A10494   3.998  11.033   7.842 -0.0114  0.0097 -0.0211
  920YOPE   C3A10495   4.313  11.006   8.139  0.0378 -0.1281  0.2200
  920YOPE   C4A10496   4.423  11.049   8.513  0.0739 -0.0575 -0.0223
  920YOPE   C1B10497   4.590  11.459   7.416 -0.2150  0.0656  0.1197
  920YOPE   C2B10498   4.582  11.369   7.768  0.2547  0.3826 -0.3195
  920YOPE   D3B10499   4.608  11.424   8.155  0.0842 -0.2464 -0.1773
  920YOPE   C4B10500   5.070  11.592   8.308 -0.0221 -0.1008  0.0086
  921YOPE   NH310501   3.471   7.668   6.497 -0.0889  0.1733 -0.1742
  921YOPE   PO410502   3.469   8.110   6.611  0.1539 -0.2119  0.2533
  921YOPE   GL110503   3.304   8.039   7.041 -0.1148 -0.0749 -0.1407
  921YOPE   GL210504   3.245   8.227   7.367 -0.0605 -0.0798 -0.2106
  921YOPE   C1A10505   3.241   7.734   7.330 -0.0732  0.0970 -0.0158
  921YOPE   D2A10506   3.370   7.462   7.671 -0.0938 -0.0903 -0.0031
  921YOPE   C3A10507   3.056   7.216   7.981 -0.2636 -0.3764  0.2213
  921YOPE   C4A10508   2.725   7.461   8.246  0.3162 -0.1806 -0.0823
  921YOPE   C1B10509   3.215   8.303   7.867 -0.3363  0.0067  0.0211
  921YOPE   C2B10510   3.232   8.570   8.259  0.1515  0.1037 -0.3038
  921YOPE   D3B10511   3.248   8.874   8.443  0.3446  0.1339  0.0344
  921YOPE   C4B10512   3.437   9.208   8.661 -0.0699 -0.0045  0.2370
  922YOPE   NH310513  17.574   9.756   6.622 -0.0371  0.0245 -0.1486
  922YOPE   PO410514  17.947   9.489   6.560  0.0125  0.3115 -0.0879
  922YOPE   GL110515  17.923   9.613   6.928  0.2522  0.2339  0.0640
  922YOPE   GL210516  17.653   9.499   7.090  0.0826 -0.0123  0.1880
  922YOPE   C1A10517  18.220   9.838   7.205 -0.0554 -0.1599  0.3342
  922YOPE   D2A10518  18.552  10.016   7.515 -0.1739 -0.0771 -0.1482
  922YOPE   C3A10519  18.495   9.988   7.959  0.1014 -0.1370  0.1360
  922YOPE   C4A10520  18.368   9.709   8.341  0.0646  0.3573  0.1336
  922YOPE   C1B10521  17.750   9.814   7.371 -0.2258  0.4613  0.3415
  922YOPE   C2B10522  17.949  10.208   7.613  0.1870 -0.0906 -0.1536
  922YOPE   D3B10523  17.956  10.267   8.002 -0.1356 -0.1227 -0.1624
  922YOPE   C4B10524  17.820   9.842   8.326  0.0538 -0.2323  0.0484
  923YOPE   NH310525   5.457   3.824   6.451  0.1126 -0.1541 -0.1180
  923YOPE   PO410526   5.501   4.285   6.609  0.1271  0.0308 -0.1201
  923YOPE   GL110527   5.453   3.952   6.949 -0.2021  0.2643  0.0862
  923YOPE   GL210528   5.455   4.301   7.103  0.2600  0.2491 -0.1579
  923YOPE   C1A10529   5.615   3.899   7.409  0.1225 -0.0297 -0.0612
  923YOPE   D2A10530   5.795   3.787   7.836 -0.0606  0.4072 -0.0186
  923YOPE   C3A10531   6.078   3.470   7.981  0.2528  0.0166 -0.4369
  923YOPE   C4A10532   5.848   3.219   8.218 -0.3063  0.3005 -0.4577
  923YOPE   C1B10533   5.723   4.423   7.526 -0.1243  0.3996  0.3729
  923YOPE   C2B10534   5.722   4.326   7.925 -0.2351  0.0351  0.1755
  923YOPE   D3B10535   5.965   4.097   8.201  0.1858  0.1238 -0.1519
  923YOPE   C4B10536   6.261   3.861   8.355 -0.0804 -0.1874  0.2801
  924YOPE   NH310537  15.325   4.026   5.788 -0.1789  0.2462 -0.0034
  924YOPE   PO410538  15.508   4.353   6.044 -0.1537  0.0397 -0.0543
  924YOPE   GL110539  15.618   4.256   6.462  0.0174 -0.1990  0.0624
  924YOPE   GL210540  15.409   4.194   6.736  0.0012  0.2223 -0.1697
  924YOPE   C1A10541  15.860   4.318   6.878  0.1244  0.0648 -0.4604
  924YOPE   D2A10542  15.983   4.225   7.417  0.1682  0.1660 -0.0330
  924YOPE   C3A10543  16.164   4.037   7.797  0.3240 -0.0237 -0.0441
  924YOPE   C4A10544  16.013   3.857   8.146  0.1201  0.1526  0.2577
  924YOPE   C1B10545  15.485   4.345   7.205 -0.1021  0.3298  0.2298
  924YOPE   C2B10546  15.525   4.382   7.718 -0.2885 -0.0077  0.0882
  924YOPE   D3B10547  15.735   4.396   7.979 -0.0811  0.0745 -0.1922
  924YOPE   C4B10548  16.099   4.298   8.209  0.3272 -0.1349 -0.1070
  925YOPE   NH310549   0.437  13.468   6.269 -0.0507 -0.2435 -0.0163
  925YOPE   PO410550   0.299  13.859   6.416  0.0314 -0.0062  0.0901
  925YOPE   GL110551   0.357  13.679   6.796 -0.2517 -0.1050 -0.1935
  925YOPE   GL210552   0.438  13.942   6.976 -0.0053 -0.0384  0.0403
  925YOPE   C1A10553   0.335  13.552   7.301  0.0193 -0.0273 -0.1687
  925YOPE   D2A10554   0.521  13.763   7.671  0.2108 -0.1883 -0.2072
  925YOPE   C3A10555   0.703  13.376   7.949  0.2535  0.0577  0.0043
  925YOPE   C4A10556   1.014  13.342   8.329  0.1896 -0.1061 -0.2980
  925YOPE   C1B10557   0.076  14.156   7.063 -0.1720  0.1983  0.1366
  925YOPE   C2B10558   0.079  13.982   7.445  0.1453 -0.0027  0.4018
  925YOPE   D3B10559   0.169  14.024   7.928 -0.0354  0.1365 -0.0172
  925YOPE   C4B10560   0.067  14.131   8.371  0.0228  0.2615 -0.1908
  926YOPE   NH310561   2.526  13.443   6.390 -0.0629  0.1104 -0.1233
  926YOPE   PO410562   2.446  13.812   6.348 -0.4168 -0.2675 -0.3002
  926YOPE   GL110563   2.532  13.726   6.802 -0.4062  0.0142 -0.2336
  926YOPE   GL210564   2.750  13.583   6.796  0.1113 -0.2077  0.0124
  926YOPE   C1A10565   2.463  13.639   7.266 -0.1738  0.0836  0.1413
  926YOPE   D2A10566   2.605  13.587   7.628  0.0323  0.2734 -0.2818
  926YOPE   C3A10567   2.858  13.452   8.034  0.0650 -0.0232  0.0756
  926YOPE   C4A10568   3.097  13.648   8.190 -0.0816 -0.1249  0.2215
  926YOPE   C1B10569   2.947  13.464   7.086  0.0071  0.0731  0.0192
  926YOPE   C2B10570   3.051  13.023   7.144 -0.1873  0.1630 -0.1640
  926YOPE   D3B10571   3.200  12.720   7.414  0.1885  0.0493 -0.2231
  926YOPE   C4B10572   3.212  12.462   7.831  0.2294 -0.1975 -0.0266
  927YOPE   NH310573   6.088  12.636   6.607 -0.1095  0.2556  0.2084
  927YOPE   PO410574   5.673  12.601   6.725  0.0987  0.1927 -0.0077
  927YOPE   GL110575   5.864  12.448   7.063 -0.1756  0.1547  0.0362
  927YOPE   GL210576   5.881  12.037   7.019  0.0110 -0.1838 -0.1324
  927YOPE   C1A10577   5.727  12.376   7.487  0.3267  0.0702 -0.1740
  927YOPE   D2A10578   5.654  12.188   7.797 -0.3254 -0.1644 -0.1331
  927YOPE   C3A10579   5.823  12.316   8.195 -0.1726 -0.3342 -0.0431
  927YOPE   C4A10580   6.084  12.075   8.326 -0.0293 -0.1260 -0.0465
  927YOPE   C1B10581   5.953  11.899   7.424 -0.0231  0.0386 -0.0709
  927YOPE   C2B10582   5.942  11.799   7.843 -0.0119 -0.3088 -0.1214
  927YOPE   D3B10583   5.992  11.570   8.170 -0.1056  0.0794 -0.0648
  927YOPE   C4B10584   5.805  11.561   8.554  0.3560  0.2779 -0.1414
  928YOPE   NH310585   0.673   9.718   6.649  0.0014  0.0269  0.0213
  928YOPE   PO410586   1.023   9.473   6.610 -0.0066 -0.0385 -0.0545
  928YOPE   GL110587   0.877   9.401   7.020 -0.2161 -0.1993  0.0088
  928YOPE   GL210588   0.592   9.261   7.088 -0.1575 -0.1643  0.2485
  928YOPE   C1A10589   0.799   9.411   7.505  0.0984  0.0773  0.0952
  928YOPE   D2A10590   0.770   9.361   7.961 -0.1886 -0.0262  0.0847
  928YOPE   C3A10591   0.686   9.662   8.271 -0.1303  0.0305 -0.0652
  928YOPE   C4A10592   0.478  10.058   8.429  0.0355 -0.0960 -0.1187
  928YOPE   C1B10593   0.459   9.619   7.211  0.1027  0.0876  0.2583
  928YOPE   C2B10594   0.340   9.540   7.654 -0.1490  0.2210  0.2143
  928YOPE   D3B10595   0.298   9.358   7.968  0.2552 -0.1984  0.2883
  928YOPE   C4B10596   0.416   9.197   8.299  0.2293 -0.1905  0.0936
  929YOPE   NH310597   1.220  16.264   6.475 -0.1128  0.0451  0.2209
  929YOPE   PO410598   1.269  16.714   6.377 -0.0604  0.2104 -0.1058
  929YOPE   GL110599   1.141  16.716   6.771  0.0546 -0.0428 -0.0104
  929YOPE   GL210600   0.989  16.386   6.900 -0.2057 -0.0298  0.1146
  929YOPE   C1A10601   1.341  16.880   7.128 -0.0449  0.1901  0.1290
  929YOPE   D2A10602   1.376  16.733   7.504  0.1536  0.1409  0.2204
  929YOPE   C3A10603   1.427  16.325   7.682 -0.0374  0.2702  0.0517
  929YOPE   C4A10604   1.753  15.964   7.857  0.1110 -0.1329  0.2564
  929YOPE   C1B10605   1.108  16.292   7.287  0.0842 -0.1247 -0.0762
  929YOPE   C2B10606   0.967  16.156   7.706 -0.2828  0.1462 -0.3596
  929YOPE   D3B10607   1.207  16.093   8.076  0.2249  0.3889  0.0208
  929YOPE   C4B10608   1.299  15.757   8.271  0.2500 -0.0511 -0.2216
  930YOPE   NH310609  13.300   9.378   6.756 -0.2787  0.0077 -0.0018
  930YOPE   PO410610  13.631   9.146   6.550  0.1007 -0.1232 -0.1334
  930YOPE   GL110611  13.705   9.098   7.011 -0.0677  0.2401 -0.4576
  930YOPE   GL210612  13.651   8.837   7.202  0.1709  0.0259  0.2826
  930YOPE   C1A10613  13.705   9.328   7.311 -0.0939  0.0543 -0.0824
  930YOPE   D2A10614  13.585   9.471   7.792  0.2346 -0.2064 -0.0438
  930YOPE   C3A10615  13.138   9.749   7.842 -0.1672 -0.2939  0.0358
  930YOPE   C4A10616  12.810   9.801   8.070  0.2114 -0.2167 -0.0918
  930YOPE   C1B10617  13.620   8.909   7.550  0.0555 -0.1716  0.0351
  930YOPE   C2B10618  13.584   8.976   7.949  0.1987 -0.0118 -0.0066
  930YOPE   D3B10619  13.758   8.819   8.349  0.0152  0.2510 -0.1289
  930YOPE   C4B10620  13.817   8.527   8.751  0.0798 -0.0152  0.1191
  931YOPE   NH310621   0.951   1.078   6.302 -0.0058 -0.0899 -0.1866
  931YOPE   PO410622   0.577   0.860   6.130  0.1506  0.0865  0.4573
  931YOPE   GL110623   0.544   0.773   6.613 -0.3969 -0.0820 -0.0148
  931YOPE   GL210624   0.513   0.489   6.736  0.4086 -0.1449 -0.0849
  931YOPE   C1A10625   0.315   0.938   6.905  0.0131  0.3576 -0.0170
  931YOPE   D2A10626   0.051   0.985   7.280  0.0801  0.2041 -0.0205
  931YOPE   C3A10627   0.010   0.963   7.725 -0.0389 -0.0898  0.2498
  931YOPE   C4A10628  -0.068   0.974   8.073  0.0130 -0.1165  0.0262
  931YOPE   C1B10629   0.331   0.503   7.145 -0.1994 -0.1308 -0.0858
  931YOPE   C2B10630   0.219   0.493   7.562  0.1265 -0.3523  0.2641
  931YOPE   D3B10631   0.013   0.465   8.017  0.0775  0.0176  0.1186
  931YOPE   C4B10632   0.168   0.710   8.458 -0.1669 -0.3568  0.1603
  932YOPE   NH310633  13.370   8.385   6.864 -0.2221 -0.0735  0.2505
  932YOPE   PO410634  13.317   8.850   6.783 -0.0386  0.0474 -0.0689
  932YOPE   GL110635  13.155   9.001   7.160 -0.0907 -0.2651  0.2807
  932YOPE   GL210636  13.091   8.719   7.243 -0.0783 -0.0021 -0.0806
  932YOPE   C1A10637  13.151   9.205   7.596  0.2053 -0.0298 -0.0964
  932YOPE   D2A10638  13.096   9.231   8.032 -0.1634  0.1020 -0.0476
  932YOPE   C3A10639  12.709   9.329   8.274  0.0864  0.0231 -0.2398
  932YOPE   C4A10640  12.452   9.595   8.502 -0.0270  0.1845  0.1674
  932YOPE   C1B10641  13.131   8.651   7.670  0.1729  0.2474 -0.0216
  932YOPE   C2B10642  13.275   8.605   8.116  0.1580  0.3093  0.0875
  932YOPE   D3B10643  13.344   8.652   8.531  0.2526  0.2133 -0.2088
  932YOPE   C4B10644  13.271   8.825   8.946  0.0965 -0.2666  0.0776
  933YOPE   NH310645   4.722   2.693   6.449  0.1161 -0.2932  0.0710
  933YOPE   PO410646   4.314   2.851   6.617 -0.2050  0.2215  0.2096
  933YOPE   GL110647   4.628   2.767   6.918  0.1368 -0.1209 -0.2045
  933YOPE   GL210648   4.448   2.433   6.935  0.0879  0.1973 -0.2140
  933YOPE   C1A10649   4.594   2.711   7.280  0.0375  0.3038 -0.3462
  933YOPE   D2A10650   4.460   2.571   7.661 -0.1188 -0.0594  0.1593
  933YOPE   C3A10651   4.503   2.740   8.059  0.1934 -0.0354  0.0407
  933YOPE   C4A10652   4.321   2.546   8.382 -0.4354 -0.1195 -0.3190
  933YOPE   C1B10653   4.409   2.228   7.275  0.2400 -0.2346  0.3564
  933YOPE   C2B10654   4.472   2.097   7.562  0.0258  0.2186 -0.0653
  933YOPE   D3B10655   4.545   2.162   8.014 -0.2074  0.1569  0.1156
  933YOPE   C4B10656   4.657   2.100   8.347  0.2234  0.0859 -0.2489
  934YOPE   NH310657  15.202   9.532   6.691  0.0868 -0.1898 -0.0978
  934YOPE   PO410658  15.558   9.651   6.697 -0.3983 -0.2534  0.3390
  934YOPE   GL110659  15.343   9.782   7.090  0.1292 -0.2539 -0.0441
  934YOPE   GL210660  15.039   9.601   7.220  0.2711 -0.0138 -0.0309
  934YOPE   C1A10661  15.403   9.856   7.434  0.0204 -0.0604  0.0332
  934YOPE   D2A10662  15.367   9.792   7.900 -0.0105 -0.2345 -0.1370
  934YOPE   C3A10663  15.024   9.724   8.019  0.4118  0.0877 -0.3406
  934YOPE   C4A10664  14.711   9.924   8.221  0.1057  0.0447 -0.0808
  934YOPE   C1B10665  14.821   9.697   7.509 -0.0336 -0.0424 -0.0855
  934YOPE   C2B10666  14.579   9.557   7.896  0.3373 -0.1609 -0.0982
  934YOPE   D3B10667  14.355   9.468   8.306  0.2807  0.0896  0.0144
  934YOPE   C4B10668  14.384   9.415   8.643 -0.2363  0.1039 -0.2369
  935YOPE   NH310669  15.648   7.896   6.666 -0.0381  0.1793  0.2186
  935YOPE   PO410670  15.407   8.168   6.654  0.1055 -0.1276 -0.2617
  935YOPE   GL110671  15.465   8.191   7.081 -0.0077  0.0620 -0.0900
  935YOPE   GL210672  15.731   8.160   7.093  0.3131 -0.2240 -0.1602
  935YOPE   C1A10673  15.293   8.352   7.344  0.2462  0.2811 -0.2354
  935YOPE   D2A10674  15.242   8.425   7.770 -0.1529  0.0057 -0.1118
  935YOPE   C3A10675  15.567   8.485   8.113 -0.0984  0.0367 -0.1887
  935YOPE   C4A10676  15.605   8.724   8.531  0.1444  0.3166 -0.1448
  935YOPE   C1B10677  15.998   7.897   7.415  0.1136  0.0905 -0.0739
  935YOPE   C2B10678  16.058   7.843   7.805 -0.3279 -0.0609 -0.1979
  935YOPE   D3B10679  16.298   8.116   8.160 -0.0052  0.1790  0.0710
  935YOPE   C4B10680  16.637   8.158   8.269 -0.0945 -0.1367 -0.2205
  936YOPE   NH310681  17.734   1.712   6.473  0.0723  0.3058  0.1090
  936YOPE   PO410682  17.330   2.007   6.625  0.0578 -0.0782 -0.0459
  936YOPE   GL110683  17.175   1.973   6.976  0.1521 -0.0885  0.4035
  936YOPE   GL210684  17.046   1.681   6.996 -0.2730 -0.3017 -0.0511
  936YOPE   C1A10685  17.275   2.065   7.438  0.1284  0.0262  0.1473
  936YOPE   D2A10686  17.325   2.005   7.935  0.0660  0.1750  0.1211
  936YOPE   C3A10687  17.408   1.658   8.160 -0.0257  0.1093  0.3335
  936YOPE   C4A10688  17.283   1.500   8.550  0.1230 -0.0119  0.2939
  936YOPE   C1B10689  16.744   1.652   7.372 -0.0065 -0.2318  0.2209
  936YOPE   C2B10690  16.652   1.858   7.737 -0.2304  0.1126 -0.1809
  936YOPE   D3B10691  16.781   1.868   8.223  0.0218  0.0334  0.0393
  936YOPE   C4B10692  16.738   1.565   8.521  0.1590  0.1260 -0.0151
  937YOPE   NH310693  17.868   2.439   6.032  0.0821  0.2073 -0.0801
  937YOPE   PO410694  17.654   2.220   6.285  0.0126  0.0931  0.1245
  937YOPE   GL110695  17.727   2.376   6.594  0.0280 -0.3510  0.0783
  937YOPE   GL210696  17.674   2.274   6.852  0.1910 -0.0222  0.0935
  937YOPE   C1A10697  18.051   2.551   6.866  0.1287  0.0153  0.2048
  937YOPE   D2A10698  18.122   2.556   7.256  0.0290  0.0063  0.0367
  937YOPE   C3A10699  18.057   2.591   7.715  0.0190 -0.1636 -0.0505
  937YOPE   C4A10700  17.986   2.771   8.139 -0.0235  0.2617 -0.0640
  937YOPE   C1B10701  17.676   2.322   7.277  0.0402 -0.2906 -0.2444
  937YOPE   C2B10702  17.760   2.029   7.613 -0.2494  0.2894  0.4692
  937YOPE   D3B10703  17.827   1.745   7.875 -0.3283 -0.1490 -0.3063
  937YOPE   C4B10704  18.043   1.486   8.133  0.2039 -0.0007 -0.0106
  938YOPE   NH310705   6.295   9.200   6.261 -0.1992  0.0805  0.1754
  938YOPE   PO410706   6.716   9.364   6.341 -0.2541 -0.0184 -0.0134
  938YOPE   GL110707   6.801   9.392   6.744 -0.3231 -0.0324  0.1381
  938YOPE   GL210708   6.953   9.159   6.813  0.0055 -0.3164 -0.4353
  938YOPE   C1A10709   6.741   9.695   7.140  0.0047  0.0388 -0.0778
  938YOPE   D2A10710   6.763   9.700   7.542  0.0960  0.0445 -0.1004
  938YOPE   C3A10711   6.712   9.524   7.939  0.2730  0.1170  0.0544
  938YOPE   C4A10712   6.578   9.375   8.394  0.2901 -0.0201 -0.1293
  938YOPE   C1B10713   6.954   9.273   7.281  0.1330  0.2710 -0.1523
  938YOPE   C2B10714   7.122   9.309   7.688  0.0618  0.2137  0.1351
  938YOPE   D3B10715   7.362   9.421   8.138 -0.0844  0.0412  0.1395
  938YOPE   C4B10716   7.356   9.645   8.590  0.2558  0.0120 -0.0100
  939POPC   NC310717   9.303   8.840   6.410  0.0270 -0.2720  0.0333
  939POPC   PO410718   9.580   8.957   6.791  0.2145 -0.2361  0.0577
  939POPC   GL110719   9.196   8.817   7.032  0.1908  0.2106 -0.1475
  939POPC   GL210720   9.336   8.840   7.213  0.1614  0.2446  0.0969
  939POPC   C1A10721   8.808   8.532   7.095 -0.0800 -0.0827 -0.0930
  939POPC   D2A10722   8.777   8.207   7.219 -0.2130  0.1013  0.4254
  939POPC   C3A10723   9.043   8.118   7.628 -0.1257 -0.0747  0.1218
  939POPC   C4A10724   9.167   8.396   8.074 -0.0033  0.2375  0.0896
  939POPC   C1B10725   9.550   8.750   7.570  0.2796  0.0128 -0.0289
  939POPC   C2B10726   9.683   8.720   7.923  0.0929 -0.0020 -0.1858
  939POPC   C3B10727   9.691   8.854   8.348 -0.2280  0.2505  0.2491
  939POPC   C4B10728   9.855   9.100   8.631 -0.2232 -0.1096  0.0334
  940POPC   NC310729   2.155   3.795   6.479 -0.1025  0.1541 -0.3781
  940POPC   PO410730   1.723   4.088   6.513 -0.1677 -0.4648  0.0095
  940POPC   GL110731   1.878   3.928   6.899  0.0388  0.1272  0.3390
  940POPC   GL210732   1.935   3.600   6.866 -0.1455 -0.1469 -0.0899
  940POPC   C1A10733   2.000   4.161   7.312 -0.1414 -0.0305  0.1311
  940POPC   D2A10734   1.983   4.337   7.715  0.0099  0.1143 -0.0089
  940POPC   C3A10735   2.030   4.707   7.959 -0.3605 -0.3477  0.1802
  940POPC   C4A10736   2.129   4.927   8.267  0.2001  0.0267  0.2006
  940POPC   C1B10737   1.943   3.644   7.330 -0.0816 -0.2039 -0.0061
  940POPC   C2B10738   1.940   3.580   7.688  0.0068  0.0083 -0.0220
  940POPC   C3B10739   1.771   3.672   8.056  0.0596  0.1117  0.0063
  940POPC   C4B10740   1.928   3.499   8.416 -0.0726 -0.0579 -0.1855
  941POPC   NC310741  15.097   4.668   6.028  0.1955 -0.0162 -0.3077
  941POPC   PO410742  14.967   4.243   6.031 -0.1320  0.3368  0.2426
  941POPC   GL110743  14.960   4.335   6.365  0.2698  0.0304  0.1394
  941POPC   GL210744  15.180   4.540   6.490  0.3002 -0.3346 -0.0994
  941POPC   C1A10745  14.721   4.426   6.746  0.1250 -0.0175 -0.1325
  941POPC   D2A10746  14.400   4.610   7.100  0.2862  0.1775 -0.1267
  941POPC   C3A10747  14.428   4.519   7.567 -0.0338  0.0191  0.1141
  941POPC   C4A10748  14.028   4.728   7.768  0.0900 -0.1741  0.2285
  941POPC   C1B10749  15.183   4.610   6.935 -0.1555  0.0808 -0.1756
  941POPC   C2B10750  14.924   4.464   7.297 -0.1639 -0.0738  0.0224
  941POPC   C3B10751  14.916   4.292   7.599  0.2843  0.2456  0.0468
  941POPC   C4B10752  14.729   4.201   7.864 -0.0028  0.0939 -0.1142
  942POPC   NC310753   3.884   1.939   6.417  0.2102  0.0430 -0.1427
  942POPC   PO410754   3.737   2.293   6.348  0.2170  0.2050 -0.0837
  942POPC   GL110755   3.918   2.296   6.819  0.2379 -0.1356 -0.1655
  942POPC   GL210756   3.987   2.058   6.930  0.2075  0.1461 -0.1871
  942POPC   C1A10757   3.900   2.511   7.129  0.2515 -0.0142 -0.0333
  942POPC   D2A10758   3.588   2.712   7.386 -0.0192  0.0143  0.0778
  942POPC   C3A10759   3.484   2.665   7.801  0.0327 -0.2636 -0.0408
  942POPC   C4A10760   3.396   2.679   8.129  0.2140  0.0703 -0.2226
  942POPC   C1B10761   3.979   2.139   7.418 -0.1710  0.3330 -0.0957
  942POPC   C2B10762   3.957   2.163   7.813  0.2485 -0.0682  0.1860
  942POPC   C3B10763   3.765   2.343   8.102  0.2412 -0.0056 -0.0712
  942POPC   C4B10764   3.511   2.419   8.589  0.0109  0.1425 -0.0977
  943POPC   NC310765  11.812   1.822   5.420 -0.4415 -0.1629  0.3178
  943POPC   PO410766  11.636   1.397   5.620  0.1680 -0.2077 -0.2142
  943POPC   GL110767  12.034   1.403   5.878  0.2326  0.1142  0.2960
  943POPC   GL210768  12.180   1.628   5.843 -0.1660 -0.0979  0.1021
  943POPC   C1A10769  12.229   1.392   6.263  0.1445 -0.1013 -0.4697
  943POPC   D2A10770  12.293   1.717   6.637  0.3136  0.1498 -0.1059
  943POPC   C3A10771  12.259   1.566   7.065 -0.3596  0.1756  0.0249
  943POPC   C4A10772  12.151   1.703   7.362 -0.1451  0.0136 -0.0499
  943POPC   C1B10773  12.204   1.919   6.193 -0.0216 -0.1706 -0.3804
  943POPC   C2B10774  12.475   2.108   6.447 -0.2965  0.0857 -0.2210
  943POPC   C3B10775  12.585   2.410   6.782  0.1875  0.2095 -0.2063
  943POPC   C4B10776  12.674   2.432   7.170  0.2191  0.3906 -0.0382
  944POPC   NC310777   0.776   6.394   5.827 -0.0459 -0.0165 -0.1261
  944POPC   PO410778   0.845   6.340   6.232 -0.0985 -0.0156  0.0921
  944POPC   GL110779   0.752   6.457   6.624  0.2314 -0.2911  0.2340
  944POPC   GL210780   0.716   6.803   6.727  0.0498 -0.0220 -0.2092
  944POPC   C1A10781   0.610   6.284   7.000  0.0609  0.2708 -0.2789
  944POPC   D2A10782   0.518   6.146   7.289 -0.0207  0.0530  0.0914
  944POPC   C3A10783   0.372   6.183   7.755 -0.0362 -0.1772 -0.0160
  944POPC   C4A10784   0.367   5.798   8.000  0.0171  0.2985  0.2008
  944POPC   C1B10785   0.567   7.101   7.030 -0.0327  0.1536  0.4025
  944POPC   C2B10786   0.626   7.070   7.483  0.0807  0.0033  0.1546
  944POPC   C3B10787   0.878   7.077   7.766  0.1584  0.1116 -0.0124
  944POPC   C4B10788   1.112   6.954   8.255 -0.0809 -0.1294 -0.1069
  945POPC   NC310789   2.312  13.549   5.773 -0.1223 -0.0403 -0.3456
  945POPC   PO410790   2.248  13.203   6.106  0.2019 -0.2187  0.4563
  945POPC   GL110791   2.047  13.343   6.549 -0.2238  0.2043  0.0142
  945POPC   GL210792   1.816  13.111   6.767  0.0868  0.1611  0.2398
  945POPC   C1A10793   2.210  13.339   7.006  0.3253 -0.0817 -0.2574
  945POPC   D2A10794   2.225  13.261   7.485  0.0954 -0.0526 -0.0098
  945POPC   C3A10795   2.131  13.636   7.735 -0.0976  0.1987 -0.0150
  945POPC   C4A10796   1.894  13.707   8.123  0.3472 -0.3950 -0.3761
  945POPC   C1B10797   1.696  13.306   7.174  0.0081 -0.2457  0.2061
  945POPC   C2B10798   1.677  13.341   7.590 -0.2924  0.0997 -0.0252
  945POPC   C3B10799   1.878  13.246   7.971  0.1341 -0.0378 -0.2286
  945POPC   C4B10800   2.292  13.438   8.140 -0.2313 -0.0348 -0.0907
  946POPC   NC310801  12.368  15.373   5.635  0.1157 -0.1312 -0.2597
  946POPC   PO410802  12.070  15.303   5.460 -0.0397 -0.1051  0.2005
  946POPC   GL110803  11.947  15.538   5.929 -0.0268  0.1771 -0.0088
  946POPC   GL210804  11.915  15.893   6.059 -0.2099 -0.2011  0.0433
  946POPC   C1A10805  12.132  15.495   6.280 -0.0512  0.0514  0.0876
  946POPC   D2A10806  12.362  15.751   6.635 -0.2940 -0.1097  0.0299
  946POPC   C3A10807  12.712  15.898   6.730 -0.2272  0.0104  0.0546
  946POPC   C4A10808  13.144  15.855   6.820 -0.1139  0.2525 -0.1209
  946POPC   C1B10809  12.009  16.021   6.411 -0.0448 -0.1040 -0.0128
  946POPC   C2B10810  11.717  15.943   6.773  0.0313 -0.1251 -0.1332
  946POPC   C3B10811  11.419  15.970   6.993 -0.2606 -0.1573  0.0773
  946POPC   C4B10812  11.299  15.936   7.429 -0.1729  0.1475  0.4474
  947POPC   NC310813  11.665  17.602   5.556 -0.2538 -0.0698  0.1589
  947POPC   PO410814  11.613  18.015   5.570  0.1371  0.1931  0.3680
  947POPC   GL110815  11.673  17.808   5.992 -0.0347 -0.1411 -0.0346
  947POPC   GL210816  12.002  17.633   6.025  0.2222  0.0320 -0.0697
  947POPC   C1A10817  11.574  17.602   6.299 -0.0081 -0.0948  0.2355
  947POPC   D2A10818  11.271  17.310   6.327  0.0856  0.3935  0.2745
  947POPC   C3A10819  11.365  16.930   6.628  0.0430  0.0151 -0.1370
  947POPC   C4A10820  11.604  16.949   7.026 -0.0784  0.1277  0.1096
  947POPC   C1B10821  12.090  17.503   6.423 -0.1585  0.0153  0.3370
  947POPC   C2B10822  12.099  17.112   6.814 -0.0783  0.1512  0.0088
  947POPC   C3B10823  12.231  17.366   7.037  0.0367  0.1383  0.2151
  947POPC   C4B10824  12.366  17.764   7.137 -0.1262  0.1248  0.1958
  948POPC   NC310825  17.814  13.138   6.513  0.0335  0.2148  0.0717
  948POPC   PO410826  18.284  13.237   6.478  0.1362 -0.0360  0.1273
  948POPC   GL110827  18.149  13.291   6.913  0.0532  0.2110  0.0631
  948POPC   GL210828  18.154  13.610   7.033  0.0389  0.2501  0.0293
  948POPC   C1A10829  18.022  13.070   7.302 -0.1762  0.1561 -0.2487
  948POPC   D2A10830  18.096  13.079   7.670  0.1114  0.0652  0.0673
  948POPC   C3A10831  17.859  13.099   7.944 -0.0551  0.0182 -0.0214
  948POPC   C4A10832  17.645  13.275   8.289  0.1266 -0.0757  0.2663
  948POPC   C1B10833  18.067  13.536   7.464  0.2538  0.2436  0.1207
  948POPC   C2B10834  18.039  13.687   7.856  0.0061  0.0440 -0.1195
  948POPC   C3B10835  18.153  13.586   8.331  0.0182  0.0066 -0.1233
  948POPC   C4B10836  18.018  13.291   8.631  0.1998  0.5036 -0.2856
  949POPC   NC310837  17.930  17.522   6.411 -0.2013  0.0063 -0.0190
  949POPC   PO410838  18.105  17.143   6.531  0.0124 -0.0810  0.1531
  949POPC   GL110839  18.069  16.943   6.859 -0.0458  0.0610  0.3030
  949POPC   GL210840  18.340  17.215   7.066 -0.1613  0.3692 -0.0832
  949POPC   C1A10841  18.006  16.735   7.271  0.0496  0.1067  0.0634
  949POPC   D2A10842  17.988  16.752   7.685 -0.0512 -0.0265 -0.0832
  949POPC   C3A10843  17.578  16.922   7.863  0.1142 -0.0171  0.0949
  949POPC   C4A10844  17.190  16.950   8.071  0.0016 -0.2772  0.3370
  949POPC   C1B10845  18.360  17.058   7.441  0.0373  0.0468  0.2431
  949POPC   C2B10846  18.437  17.001   7.863 -0.0318  0.2093  0.0629
  949POPC   C3B10847  18.367  17.247   8.247 -0.3955  0.1658 -0.0360
  949POPC   C4B10848  18.435  17.732   8.365 -0.0147  0.2015 -0.1296
  950POPC   NC310849  17.729  11.290   6.512  0.2229  0.1250  0.2322
  950POPC   PO410850  17.338  11.036   6.524 -0.1300 -0.1151  0.0759
  950POPC   GL110851  17.368  11.075   6.915  0.0000  0.0134  0.0385
  950POPC   GL210852  17.185  10.907   7.065  0.2349  0.2277 -0.1644
  950POPC   C1A10853  17.635  11.303   7.182  0.0002  0.0379  0.0392
  950POPC   D2A10854  17.642  11.690   7.367  0.1675 -0.2058 -0.0198
  950POPC   C3A10855  17.885  11.832   7.732  0.1054  0.2109  0.0005
  950POPC   C4A10856  17.844  12.090   8.107  0.0965 -0.1562 -0.0232
  950POPC   C1B10857  17.312  10.979   7.475  0.1336 -0.0690 -0.1653
  950POPC   C2B10858  17.394  10.955   7.850  0.0761  0.2455 -0.3004
  950POPC   C3B10859  17.147  11.112   8.171  0.2126  0.1944 -0.0547
  950POPC   C4B10860  16.841  11.077   8.490 -0.0330 -0.0460  0.0087
  951POPC   NC310861  18.224  11.914   5.816  0.2476  0.1421  0.1818
  951POPC   PO410862  18.459  12.066   6.183 -0.1688 -0.1331 -0.2472
  951POPC   GL110863  18.444  12.191   6.575 -0.0764  0.1370  0.1068
  951POPC   GL210864  18.660  12.244   6.681  0.0744  0.0909 -0.0808
  951POPC   C1A10865  18.237  12.446   6.959 -0.1940  0.2028  0.2808
  951POPC   D2A10866  18.142  12.569   7.415  0.0077 -0.3714  0.3945
  951POPC   C3A10867  17.819  12.325   7.709  0.3036 -0.3392  0.0770
  951POPC   C4A10868  17.380  12.100   7.646  0.0901 -0.0312  0.0523
  951POPC   C1B10869  18.644  12.189   7.072  0.0479 -0.0370  0.4314
  951POPC   C2B10870  18.659  12.284   7.439  0.1769 -0.0991 -0.1152
  951POPC   C3B10871  18.588  12.582   7.853 -0.0698 -0.1106  0.1964
  951POPC   C4B10872  18.345  12.935   8.084  0.1004 -0.0195 -0.1100
  952POPC   NC310873  10.370   7.238   6.520 -0.0882  0.0971  0.0764
  952POPC   PO410874   9.887   7.270   6.434 -0.1049  0.4187  0.0591
  952POPC   GL110875   9.981   7.387   6.824  0.0869 -0.0410 -0.2116
  952POPC   GL210876  10.234   7.791   6.711 -0.0023 -0.2501 -0.3855
  952POPC   C1A10877  10.055   7.452   7.207  0.2404  0.1389 -0.1176
  952POPC   D2A10878  10.085   7.411   7.713 -0.1376  0.1302 -0.0009
  952POPC   C3A10879   9.955   7.333   8.110 -0.0029  0.3191  0.1408
  952POPC   C4A10880  10.130   7.124   8.488  0.0211  0.3040  0.1832
  952POPC   C1B10881  10.424   7.857   7.088 -0.1107  0.2581 -0.1354
  952POPC   C2B10882  10.471   7.635   7.449 -0.0447  0.0910  0.0023
  952POPC   C3B10883  10.482   7.746   7.893  0.0421  0.1443 -0.0898
  952POPC   C4B10884  10.369   7.473   8.154 -0.1875  0.0513  0.3325
  953POPC   NC310885   0.756   0.416   6.278  0.0302 -0.1877 -0.0421
  953POPC   PO410886   1.064   0.653   6.482  0.1657  0.0341  0.1729
  953POPC   GL110887   1.027   0.473   6.891 -0.2598  0.1014 -0.1740
  953POPC   GL210888   1.206   0.210   7.021  0.1255  0.0067 -0.0939
  953POPC   C1A10889   0.798   0.457   7.334  0.2559 -0.0547 -0.1036
  953POPC   D2A10890   0.747   0.403   7.768  0.0072 -0.0700 -0.0591
  953POPC   C3A10891   0.811  -0.133   7.794 -0.1245 -0.0563 -0.2934
  953POPC   C4A10892   0.661  -0.499   7.818  0.3162  0.1697 -0.1701
  953POPC   C1B10893   1.096   0.067   7.435 -0.0137 -0.0281  0.3572
  953POPC   C2B10894   1.191   0.160   7.819  0.2948  0.2198 -0.0028
  953POPC   C3B10895   0.999   0.004   8.197 -0.0637 -0.1290 -0.1512
  953POPC   C4B10896   0.559  -0.154   8.243 -0.2375  0.3492  0.0781
  954POPC   NC310897  13.204   0.587   5.580 -0.0852 -0.1878  0.2149
  954POPC   PO410898  12.751   0.498   5.595  0.1798 -0.6968 -0.1448
  954POPC   GL110899  12.785   0.598   5.996  0.1194 -0.1798  0.1387
  954POPC   GL210900  13.085   0.529   6.067  0.1301  0.0738 -0.1894
  954POPC   C1A10901  12.640   0.506   6.324  0.3727 -0.0737 -0.1477
  954POPC   D2A10902  12.508   0.435   6.721  0.2531  0.0063 -0.2418
  954POPC   C3A10903  12.789   0.457   7.065  0.1724 -0.2353  0.0444
  954POPC   C4A10904  12.998   0.713   7.359  0.1267 -0.0178 -0.2016
  954POPC   C1B10905  13.490   0.569   6.325 -0.1583  0.1255 -0.1712
  954POPC   C2B10906  13.575   0.484   6.772 -0.1376  0.1079 -0.3389
  954POPC   C3B10907  13.617   0.479   7.084  0.0907  0.1279  0.0385
  954POPC   C4B10908  13.456   0.358   7.553  0.0208 -0.2594 -0.0518
  955POPC   NC310909   0.982   1.748   6.031  0.1790  0.1179 -0.1839
  955POPC   PO410910   1.198   1.547   6.368  0.1581  0.0294 -0.0510
  955POPC   GL110911   1.028   1.464   6.731 -0.1824 -0.2193  0.0402
  955POPC   GL210912   1.001   1.061   6.795  0.1308 -0.0610  0.2506
  955POPC   C1A10913   0.647   1.403   6.897 -0.0024 -0.2717 -0.2605
  955POPC   D2A10914   0.420   1.373   7.336 -0.0938  0.1753 -0.0331
  955POPC   C3A10915   0.563   1.774   7.510 -0.0024  0.1464  0.1592
  955POPC   C4A10916   0.593   1.981   7.856  0.2440  0.2741  0.0850
  955POPC   C1B10917   0.789   0.882   7.098  0.0107 -0.2942 -0.3597
  955POPC   C2B10918   0.509   0.897   7.465  0.0217  0.1265  0.2720
  955POPC   C3B10919   0.431   0.735   7.881 -0.1726  0.0715  0.0084
  955POPC   C4B10920   0.462   0.316   8.194 -0.2174  0.1088  0.2113
  956POPC   NC310921  13.470  10.321   6.694 -0.0958 -0.2275 -0.0881
  956POPC   PO410922  13.853  10.146   6.738 -0.0054  0.0321  0.0338
  956POPC   GL110923  14.045   9.968   7.168  0.0820  0.3721 -0.1252
  956POPC   GL210924  14.373   9.972   7.056  0.0570 -0.1167 -0.1334
  956POPC   C1A10925  14.039  10.220   7.522 -0.0428 -0.4027  0.1005
  956POPC   D2A10926  13.988  10.386   7.983 -0.1884 -0.0569  0.0468
  956POPC   C3A10927  14.164  10.764   8.258 -0.2023  0.2196 -0.2228
  956POPC   C4A10928  14.397  11.082   8.578 -0.1515 -0.1092 -0.0092
  956POPC   C1B10929  14.532  10.088   7.400  0.1775 -0.2387 -0.1945
  956POPC   C2B10930  14.382  10.135   7.901  0.2528 -0.2983  0.0715
  956POPC   C3B10931  14.382  10.295   8.271 -0.1845 -0.0456  0.2610
  956POPC   C4B10932  14.081  10.338   8.518 -0.0477 -0.1451  0.3366
  957POPC   NC310933   2.633  16.517   5.947  0.0876 -0.0066 -0.0461
  957POPC   PO410934   2.534  16.917   6.024  0.2457 -0.3157  0.3494
  957POPC   GL110935   2.277  16.878   6.379 -0.0355  0.2044 -0.1498
  957POPC   GL210936   2.226  16.556   6.472 -0.0110  0.0037  0.2006
  957POPC   C1A10937   2.042  16.863   6.764  0.0803 -0.1962 -0.0805
  957POPC   D2A10938   1.814  16.900   7.125  0.0023 -0.0554 -0.0208
  957POPC   C3A10939   1.877  16.500   7.413 -0.1155  0.0571  0.0093
  957POPC   C4A10940   2.059  16.028   7.503 -0.0614  0.1011  0.4384
  957POPC   C1B10941   2.605  16.800   6.778  0.0482 -0.0740 -0.0311
  957POPC   C2B10942   2.726  17.079   7.001 -0.0613  0.3383 -0.0125
  957POPC   C3B10943   2.891  17.187   7.339 -0.2868 -0.1737  0.0514
  957POPC   C4B10944   2.919  16.991   7.670 -0.1777 -0.0747  0.3794
  958POPC   NC310945  17.510   4.239   5.812 -0.0033  0.0775 -0.0253
  958POPC   PO410946  17.909   4.202   5.865  0.0523  0.1689 -0.0214
  958POPC   GL110947  17.701   4.354   6.239  0.3752 -0.1779  0.2094
  958POPC   GL210948  17.456   4.258   6.323  0.1203 -0.1020 -0.0540
  958POPC   C1A10949  17.622   4.680   6.613  0.0258 -0.0188 -0.4809
  958POPC   D2A10950  17.833   4.567   7.027 -0.0218 -0.2203  0.0653
  958POPC   C3A10951  17.606   4.616   7.341  0.1112 -0.0602  0.0139
  958POPC   C4A10952  17.466   4.552   7.731 -0.2597  0.4265 -0.3469
  958POPC   C1B10953  17.405   4.270   6.796  0.0178 -0.0203 -0.0696
  958POPC   C2B10954  17.209   4.364   7.245 -0.1203 -0.4122 -0.0369
  958POPC   C3B10955  17.012   4.279   7.498 -0.1305  0.0127 -0.0491
  958POPC   C4B10956  17.020   4.220   7.962 -0.3503 -0.3582 -0.1629
  959POPC   NC310957   5.903   0.914   5.655  0.4778 -0.0364  0.0986
  959POPC   PO410958   5.821   0.534   5.836  0.1456  0.1148 -0.2852
  959POPC   GL110959   5.769   0.558   6.231 -0.1906 -0.0506 -0.0873
  959POPC   GL210960   6.117   0.730   6.213 -0.1600 -0.1381  0.2076
  959POPC   C1A10961   5.939   0.410   6.646 -0.0701  0.0029  0.0368
  959POPC   D2A10962   6.077   0.583   7.111 -0.1242 -0.1417  0.5292
  959POPC   C3A10963   6.381   0.440   7.259  0.2118 -0.1705 -0.2543
  959POPC   C4A10964   6.812   0.429   7.423 -0.1432 -0.1171 -0.1582
  959POPC   C1B10965   6.548   0.705   6.073 -0.2922  0.2569 -0.2237
  959POPC   C2B10966   7.015   0.924   5.894 -0.1407  0.0382  0.2750
  959POPC   C3B10967   7.417   1.043   5.970  0.0025  0.3170 -0.3610
  959POPC   C4B10968   7.569   0.899   6.422 -0.1387  0.3341  0.1058
  960POPC   NC310969  16.309  10.223   6.555 -0.0682  0.2961 -0.1952
  960POPC   PO410970  16.138   9.781   6.619  0.3692  0.3249 -0.0766
  960POPC   GL110971  16.060  10.121   6.963  0.1143 -0.1217  0.2939
  960POPC   GL210972  15.753  10.104   7.028 -0.2995  0.0230  0.1458
  960POPC   C1A10973  16.250  10.277   7.353  0.2338  0.0130 -0.3773
  960POPC   D2A10974  16.546  10.271   7.670 -0.1067 -0.0745  0.0704
  960POPC   C3A10975  16.361  10.265   7.963 -0.0586  0.0848  0.0653
  960POPC   C4A10976  16.515   9.998   8.267  0.0034 -0.3291 -0.0422
  960POPC   C1B10977  15.791  10.106   7.486 -0.3202 -0.2599 -0.0531
  960POPC   C2B10978  15.935  10.134   7.832 -0.1179 -0.1549  0.0507
  960POPC   C3B10979  15.945   9.880   8.243 -0.0352  0.0947  0.1803
  960POPC   C4B10980  15.696   9.784   8.520 -0.0130 -0.3343 -0.1783
  961POPC   NC310981  14.713   0.530   5.646  0.2248  0.0977  0.0680
  961POPC   PO410982  14.726   0.806   5.858 -0.2523  0.0462 -0.1988
  961POPC   GL110983  14.666   0.658   6.145  0.0892 -0.0812 -0.0523
  961POPC   GL210984  14.351   0.704   6.227  0.1163  0.2595 -0.1735
  961POPC   C1A10985  15.070   0.524   6.309 -0.0431 -0.0021  0.0146
  961POPC   D2A10986  15.254   0.155   6.518  0.2999  0.0908  0.1559
  961POPC   C3A10987  15.199  -0.108   6.907  0.1090  0.1043  0.1841
  961POPC   C4A10988  14.916  -0.296   7.158  0.1673  0.1225  0.2119
  961POPC   C1B10989  14.402   0.787   6.672  0.1402  0.5428 -0.0032
  961POPC   C2B10990  14.451   0.810   7.039  0.1704 -0.2991 -0.0685
  961POPC   C3B10991  14.508   0.558   7.360  0.1579 -0.0516  0.1076
  961POPC   C4B10992  14.458   0.331   7.751  0.0630 -0.0677  0.1779
  962POPC   NC310993   8.739  15.977   5.775 -0.1408  0.1567  0.0341
  962POPC   PO410994   8.920  16.450   5.726  0.0710 -0.0930 -0.2379
  962POPC   GL110995   8.968  16.710   6.145  0.1337  0.1733 -0.1303
  962POPC   GL210996   9.312  16.598   6.092 -0.0813  0.2247 -0.0587
  962POPC   C1A10997   8.989  16.486   6.581 -0.0853 -0.3139 -0.1913
  962POPC   D2A10998   9.078  16.335   7.007  0.1255  0.0164  0.1549
  962POPC   C3A10999   9.428  16.229   7.170 -0.1092 -0.1037  0.1642
  962POPC   C4A11000   9.688  16.523   7.444  0.0404 -0.1445  0.1236
  962POPC   C1B11001   9.393  16.829   6.415 -0.0187  0.0148 -0.0867
  962POPC   C2B11002   9.802  16.796   6.680 -0.1461  0.2090  0.0445
  962POPC   C3B11003  10.255  16.716   6.739  0.0305 -0.1432 -0.0624
  962POPC   C4B11004  10.514  17.005   6.923 -0.1368  0.0050 -0.1420
  963POPC   NC311005  10.425  15.828   5.752  0.3306  0.0966  0.1113
  963POPC   PO411006  10.157  16.149   5.855  0.1903  0.1300 -0.0457
  963POPC   GL111007  10.226  16.109   6.237  0.0654 -0.0984  0.2529
  963POPC   GL211008  10.133  15.726   6.304 -0.1414 -0.0944  0.0782
  963POPC   C1A11009  10.473  16.167   6.554 -0.0022  0.1589 -0.0480
  963POPC   D2A11010  10.859  15.982   6.740  0.0172  0.0760 -0.1171
  963POPC   C3A11011  10.976  16.205   7.156  0.4283 -0.3101 -0.2221
  963POPC   C4A11012  11.155  16.396   7.572 -0.0923  0.0846  0.0572
  963POPC   C1B11013  10.154  15.854   6.713  0.1500  0.0185 -0.0370
  963POPC   C2B11014  10.333  16.153   7.086  0.0614  0.2436 -0.2830
  963POPC   C3B11015  10.517  16.173   7.491 -0.4232  0.1619  0.1749
  963POPC   C4B11016  10.696  16.485   7.752 -0.0492 -0.0821 -0.1015
  964POPC   NC311017   4.634   0.001   5.863  0.2577  0.0764  0.0321
  964POPC   PO411018   4.830   0.430   5.935 -0.4711  0.5259  0.2153
  964POPC   GL111019   4.884   0.433   6.302 -0.0377 -0.1581  0.2002
  964POPC   GL211020   5.012   0.804   6.392  0.0031  0.2010 -0.3586
  964POPC   C1A11021   5.000   0.366   6.747  0.3024 -0.0619 -0.1411
  964POPC   D2A11022   5.338   0.312   6.963 -0.2480 -0.4210 -0.1568
  964POPC   C3A11023   5.479   0.508   7.244  0.1363 -0.0096 -0.2065
  964POPC   C4A11024   5.697   0.835   7.500  0.2839  0.1504  0.0479
  964POPC   C1B11025   5.372   0.830   6.555 -0.0617  0.3473 -0.0589
  964POPC   C2B11026   5.568   0.905   6.998  0.1209 -0.2701  0.0445
  964POPC   C3B11027   5.480   1.232   7.296 -0.3637  0.2276  0.0266
  964POPC   C4B11028   5.583   1.255   7.680 -0.1042  0.0843  0.2513
  965POPC   NC311029  10.603  10.792   6.148  0.0629  0.2472 -0.2489
  965POPC   PO411030  10.759  10.977   6.381  0.0189 -0.0020 -0.0591
  965POPC   GL111031  10.711  11.054   6.809 -0.0501  0.0597 -0.0515
  965POPC   GL211032  10.746  10.884   7.061  0.1826 -0.1845  0.0035
  965POPC   C1A11033  10.294  11.251   6.946 -0.1891  0.0990  0.1875
  965POPC   D2A11034   9.886  11.369   7.115  0.1707 -0.0954  0.3410
  965POPC   C3A11035  10.102  11.397   7.541  0.2642  0.1408 -0.1766
  965POPC   C4A11036  10.446  11.648   7.758  0.2528 -0.1316 -0.1342
  965POPC   C1B11037  10.533  11.039   7.476 -0.0439  0.1386 -0.1570
  965POPC   C2B11038  10.462  11.064   7.959  0.0183 -0.0056 -0.0255
  965POPC   C3B11039  10.425  10.985   8.367  0.0929 -0.0097 -0.3109
  965POPC   C4B11040  10.575  10.716   8.605 -0.0426 -0.0311  0.0714
  966POPC   NC311041  13.370   4.578   5.514  0.1280  0.0414 -0.0575
  966POPC   PO411042  13.522   4.687   5.881 -0.0511 -0.1833  0.2695
  966POPC   GL111043  13.443   4.667   6.318  0.1584  0.4443  0.0455
  966POPC   GL211044  13.287   4.960   6.531  0.0304  0.1832  0.0802
  966POPC   C1A11045  13.631   4.687   6.728 -0.4389  0.0442  0.1246
  966POPC   D2A11046  13.906   4.755   7.020  0.2977 -0.1423  0.1244
  966POPC   C3A11047  13.932   4.604   7.265  0.2778 -0.1988 -0.1469
  966POPC   C4A11048  13.801   4.285   7.544  0.1033 -0.0137 -0.1915
  966POPC   C1B11049  13.135   4.700   6.852  0.0508  0.1564  0.1306
  966POPC   C2B11050  13.017   4.634   7.338 -0.1067 -0.1194  0.1168
  966POPC   C3B11051  12.916   4.578   7.680  0.1165 -0.0450  0.0363
  966POPC   C4B11052  12.831   4.176   7.839  0.0931 -0.3138 -0.2331
  967POPC   NC311053  12.845   9.026   6.749 -0.0987 -0.0182  0.5370
  967POPC   PO411054  12.407   8.947   6.730 -0.0267  0.3512  0.3208
  967POPC   GL111055  12.539   9.195   7.070  0.0042  0.3317 -0.0262
  967POPC   GL211056  12.800   9.426   7.002  0.0291  0.0670 -0.1402
  967POPC   C1A11057  12.743   9.016   7.405  0.0967 -0.3048  0.1581
  967POPC   D2A11058  12.751   8.975   7.891 -0.3381 -0.0399 -0.0454
  967POPC   C3A11059  12.876   8.844   8.243  0.1642  0.2204 -0.1421
  967POPC   C4A11060  12.578   8.882   8.499 -0.0482  0.0253 -0.1283
  967POPC   C1B11061  12.808   9.542   7.435  0.3947  0.0605  0.3353
  967POPC   C2B11062  12.622   9.479   7.785  0.1411  0.2055  0.0415
  967POPC   C3B11063  12.311   9.624   7.994  0.1498 -0.1682 -0.1683
  967POPC   C4B11064  12.018   9.805   8.229 -0.3660  0.0158  0.0859
  968POPC   NC311065   5.670  14.431   5.882 -0.0549  0.0384  0.0241
  968POPC   PO411066   5.466  14.686   6.025 -0.4275  0.1078  0.2044
  968POPC   GL111067   5.435  14.689   6.521  0.0886  0.2669  0.1059
  968POPC   GL211068   5.667  14.604   6.852 -0.0217 -0.0611 -0.0498
  968POPC   C1A11069   5.181  14.834   6.889 -0.0377  0.4650  0.2419
  968POPC   D2A11070   5.245  15.288   7.112 -0.2475 -0.0037 -0.0189
  968POPC   C3A11071   5.342  15.493   7.558  0.0751 -0.0539 -0.0723
  968POPC   C4A11072   5.439  15.561   7.894 -0.0706 -0.0884 -0.2017
  968POPC   C1B11073   5.840  14.732   7.232  0.3095 -0.0455 -0.2047
  968POPC   C2B11074   6.059  14.751   7.569 -0.0704  0.1769  0.0126
  968POPC   C3B11075   6.379  15.056   7.794 -0.1104  0.1024  0.3459
  968POPC   C4B11076   6.400  15.495   7.794 -0.0914 -0.0340 -0.1880
  969POPC   NC311077  14.549   7.708   6.735  0.1780 -0.0902 -0.0082
  969POPC   PO411078  14.881   7.405   6.647  0.4674 -0.0428 -0.1201
  969POPC   GL111079  14.919   7.348   6.949 -0.0361 -0.1662 -0.0052
  969POPC   GL211080  14.908   6.987   6.995  0.0372 -0.0908 -0.0590
  969POPC   C1A11081  14.823   7.333   7.409 -0.2181  0.1294  0.0319
  969POPC   D2A11082  14.863   7.597   7.782  0.1843  0.0873 -0.0259
  969POPC   C3A11083  15.195   7.533   8.128  0.1065 -0.0234 -0.1919
  969POPC   C4A11084  15.373   7.675   8.456  0.2730 -0.3994  0.3394
  969POPC   C1B11085  14.869   6.882   7.442  0.0110  0.1407  0.0844
  969POPC   C2B11086  14.686   6.704   7.782 -0.1310 -0.4045 -0.1469
  969POPC   C3B11087  14.681   6.354   7.920  0.0770  0.0081  0.0940
  969POPC   C4B11088  14.649   6.174   8.350  0.1034  0.1815 -0.1956
  970POPC   NC311089   2.113   8.677   6.418  0.0961  0.1836  0.1788
  970POPC   PO411090   2.448   8.955   6.536 -0.2842  0.0486 -0.1619
  970POPC   GL111091   2.758   8.804   6.841  0.0936  0.0193  0.1978
  970POPC   GL211092   2.702   8.952   7.042 -0.1769 -0.1574 -0.0333
  970POPC   C1A11093   3.027   8.727   7.299  0.1170  0.1473 -0.0358
  970POPC   D2A11094   2.973   8.718   7.749  0.0001 -0.0677  0.0516
  970POPC   C3A11095   3.044   9.085   7.959 -0.1384  0.1246  0.2007
  970POPC   C4A11096   3.074   9.482   8.063  0.1330  0.1819  0.1429
  970POPC   C1B11097   2.561   8.962   7.391 -0.1720  0.2957 -0.2126
  970POPC   C2B11098   2.312   9.022   7.718 -0.1816 -0.0194 -0.1341
  970POPC   C3B11099   2.518   8.728   7.992 -0.2147 -0.1496 -0.2263
  970POPC   C4B11100   2.694   8.856   8.417 -0.0924 -0.1933 -0.1730
  971POPC   NC311101  15.993  16.993   5.764  0.1471  0.0002  0.3900
  971POPC   PO411102  16.018  16.634   5.982 -0.0107 -0.0538 -0.3471
  971POPC   GL111103  15.690  16.587   6.268  0.0018 -0.2159  0.1713
  971POPC   GL211104  15.596  16.883   6.266  0.2782  0.2866 -0.2745
  971POPC   C1A11105  15.568  16.452   6.749 -0.1537 -0.0084  0.4516
  971POPC   D2A11106  15.786  16.533   7.053 -0.0496 -0.0623 -0.0584
  971POPC   C3A11107  16.151  16.652   7.365 -0.0670 -0.0274 -0.0867
  971POPC   C4A11108  16.266  16.335   7.680  0.2030 -0.0485 -0.1512
  971POPC   C1B11109  15.752  16.887   6.689 -0.0601  0.3597 -0.2514
  971POPC   C2B11110  16.153  16.871   6.901  0.2695  0.1296  0.0524
  971POPC   C3B11111  16.521  16.606   7.006 -0.1046 -0.2353 -0.1018
  971POPC   C4B11112  16.670  16.590   7.509  0.1163  0.1344  0.1136
  972POPC   NC311113   5.324   9.227   6.603 -0.2487  0.4187  0.0306
  972POPC   PO411114   4.974   9.450   6.666 -0.0624 -0.2551  0.1212
  972POPC   GL111115   5.100   9.274   7.036 -0.1190  0.3716  0.1114
  972POPC   GL211116   5.450   9.102   7.153 -0.0166  0.1153  0.0812
  972POPC   C1A11117   5.006   9.215   7.444  0.1190  0.2002  0.2786
  972POPC   D2A11118   4.928   9.190   7.873  0.1740 -0.1393 -0.1855
  972POPC   C3A11119   4.933   9.111   8.313  0.1107 -0.0160  0.2081
  972POPC   C4A11120   5.014   8.659   8.547  0.1768  0.1374 -0.0215
  972POPC   C1B11121   5.553   9.549   7.344 -0.0470 -0.1591  0.2120
  972POPC   C2B11122   5.699   9.711   7.724  0.0417 -0.3177 -0.1193
  972POPC   C3B11123   5.555   9.727   8.067 -0.1429 -0.2165 -0.1211
  972POPC   C4B11124   5.392   9.334   8.270  0.0478 -0.1217  0.0124
  973POPC   NC311125   2.665   6.146   6.693  0.0426  0.0028 -0.0885
  973POPC   PO411126   3.094   6.028   6.753 -0.1816 -0.1999 -0.0329
  973POPC   GL111127   2.838   6.061   7.147 -0.2464 -0.0009 -0.2158
  973POPC   GL211128   2.531   5.951   7.209  0.1527  0.2074 -0.2062
  973POPC   C1A11129   2.771   6.072   7.608  0.0972  0.0262 -0.0994
  973POPC   D2A11130   2.852   6.188   7.968 -0.3052  0.3583 -0.2216
  973POPC   C3A11131   3.039   6.073   8.218 -0.0229  0.1332 -0.1689
  973POPC   C4A11132   3.021   6.003   8.685  0.0601 -0.1257  0.1610
  973POPC   C1B11133   2.330   6.041   7.527 -0.0036 -0.0139 -0.2700
  973POPC   C2B11134   2.259   6.275   7.983 -0.0430  0.1377 -0.1173
  973POPC   C3B11135   2.471   6.583   8.204 -0.4269  0.1005  0.0624
  973POPC   C4B11136   2.682   6.949   8.326 -0.4789  0.1078  0.0428
  974POPC   NC311137   8.185   8.614   6.633 -0.2065  0.0771  0.2334
  974POPC   PO411138   8.167   9.016   6.719 -0.0590 -0.1016 -0.2181
  974POPC   GL111139   8.243   9.043   7.066 -0.0151  0.1083  0.0804
  974POPC   GL211140   8.397   8.737   7.174 -0.1099 -0.0982 -0.0160
  974POPC   C1A11141   8.067   9.063   7.412  0.0005 -0.4167 -0.2102
  974POPC   D2A11142   8.135   9.001   7.857  0.0053 -0.2593  0.1534
  974POPC   C3A11143   8.278   8.607   8.073  0.1573 -0.2652  0.1241
  974POPC   C4A11144   8.197   8.386   8.488 -0.2279 -0.1423 -0.0725
  974POPC   C1B11145   8.591   8.943   7.491  0.0117  0.2082  0.1517
  974POPC   C2B11146   8.702   8.985   7.897 -0.0608 -0.0285  0.0527
  974POPC   C3B11147   8.728   8.724   8.242 -0.1272  0.2369 -0.1871
  974POPC   C4B11148   8.488   8.714   8.711 -0.1131 -0.1129  0.0593
  975POPC   NC311149   9.223   7.995   6.101 -0.0336 -0.1984 -0.0273
  975POPC   PO411150   9.369   8.023   6.396 -0.1062 -0.1141  0.0931
  975POPC   GL111151   9.542   7.964   6.825 -0.0618  0.3287  0.3322
  975POPC   GL211152   9.858   8.000   7.028  0.1271  0.2794  0.0965
  975POPC   C1A11153   9.550   7.633   7.238  0.1370  0.2116  0.4222
  975POPC   D2A11154   9.580   7.555   7.651 -0.0881 -0.0063 -0.3342
  975POPC   C3A11155   9.446   7.329   7.953 -0.3311 -0.0197 -0.2760
  975POPC   C4A11156   9.561   7.095   8.463  0.1314  0.1273 -0.0472
  975POPC   C1B11157  10.034   7.884   7.395 -0.2577  0.1034  0.1476
  975POPC   C2B11158   9.969   7.873   7.882 -0.0968  0.0905 -0.3111
  975POPC   C3B11159  10.156   8.043   8.239  0.0719 -0.2839  0.1020
  975POPC   C4B11160  10.113   8.537   8.383 -0.1619  0.2624 -0.2207
  976POPC   NC311161  13.914  12.996   6.328 -0.1732 -0.1698 -0.0061
  976POPC   PO411162  13.704  13.270   6.457 -0.1615 -0.0312 -0.3673
  976POPC   GL111163  13.882  13.485   6.813  0.0711 -0.1665  0.0099
  976POPC   GL211164  13.930  13.737   6.660 -0.1841 -0.0727  0.1211
  976POPC   C1A11165  14.033  13.713   7.226  0.0831 -0.2333 -0.1053
  976POPC   D2A11166  14.013  13.813   7.654 -0.0598 -0.1094  0.0584
  976POPC   C3A11167  14.166  14.215   7.755 -0.1473 -0.1599 -0.3594
  976POPC   C4A11168  13.940  14.616   7.880 -0.3936 -0.1618 -0.0046
  976POPC   C1B11169  13.796  14.185   6.782  0.1374 -0.0464 -0.0931
  976POPC   C2B11170  13.390  14.224   6.933 -0.0770 -0.1354  0.1166
  976POPC   C3B11171  13.262  14.288   7.307  0.3328  0.1783  0.0284
  976POPC   C4B11172  13.113  14.211   7.717  0.2521 -0.0795  0.1420
  977POPC   NC311173   5.793   9.939   6.395  0.1100 -0.1474 -0.0986
  977POPC   PO411174   5.399   9.742   6.513  0.0270  0.4243 -0.3480
  977POPC   GL111175   5.284   9.820   6.950 -0.2757  0.1858 -0.3156
  977POPC   GL211176   5.132  10.176   7.147 -0.1538 -0.0179 -0.0941
  977POPC   C1A11177   5.084   9.740   7.369  0.0880  0.0111 -0.2052
  977POPC   D2A11178   5.188   9.652   7.726 -0.2331 -0.0972  0.1863
  977POPC   C3A11179   4.946   9.936   7.979 -0.2077  0.1251  0.2158
  977POPC   C4A11180   4.771  10.112   8.346 -0.0675  0.1233  0.0882
  977POPC   C1B11181   4.985  10.216   7.546  0.1382  0.0417 -0.1310
  977POPC   C2B11182   4.950  10.441   7.993  0.0763 -0.1351  0.2727
  977POPC   C3B11183   5.156  10.569   8.418 -0.1291 -0.0403 -0.1002
  977POPC   C4B11184   5.215  10.926   8.765 -0.1468  0.1538  0.0809
  978POPC   NC311185  11.298  16.263   5.519  0.0471 -0.1534 -0.1075
  978POPC   PO411186  10.861  16.404   5.493  0.3301 -0.1168 -0.2439
  978POPC   GL111187  10.888  16.669   5.824  0.3677  0.1067  0.0206
  978POPC   GL211188  10.755  16.921   5.810 -0.0684  0.0702 -0.1157
  978POPC   C1A11189  11.106  16.842   6.209 -0.1316 -0.2307  0.1300
  978POPC   D2A11190  10.880  16.704   6.624 -0.0675 -0.3189 -0.0544
  978POPC   C3A11191  11.105  16.859   7.057 -0.0770  0.0100  0.1376
  978POPC   C4A11192  11.294  17.112   7.426  0.2873  0.0861  0.0096
  978POPC   C1B11193  10.581  16.694   6.235  0.3302  0.1945  0.3547
  978POPC   C2B11194  10.897  16.316   6.291 -0.2766 -0.1026 -0.1272
  978POPC   C3B11195  11.113  15.867   6.257 -0.1024 -0.0785 -0.0092
  978POPC   C4B11196  11.464  15.777   6.402 -0.2399 -0.0932 -0.1098
  979YOPC   NC311197  14.747   1.367   5.794  0.0317  0.1300 -0.1537
  979YOPC   PO411198  14.384   1.381   5.689 -0.0621 -0.4614  0.0573
  979YOPC   GL111199  14.390   1.210   6.072  0.2227 -0.2537  0.1087
  979YOPC   GL211200  14.520   1.524   6.314 -0.1660 -0.0775  0.1490
  979YOPC   C1A11201  14.044   1.129   6.447  0.3480 -0.0205  0.1499
  979YOPC   D2A11202  13.890   0.868   6.860 -0.0295 -0.0143  0.2167
  979YOPC   C3A11203  14.028   1.038   7.193 -0.0475 -0.0118 -0.1692
  979YOPC   C4A11204  14.304   0.996   7.527  0.0612  0.0854  0.1153
  979YOPC   C1B11205  14.256   1.478   6.676  0.0706  0.0730  0.1075
  979YOPC   C2B11206  14.335   1.426   7.015  0.1065  0.0723 -0.1521
  979YOPC   D3B11207  14.150   1.548   7.316 -0.2050 -0.1015 -0.3025
  979YOPC   C4B11208  13.980   1.660   7.640  0.2839 -0.1327 -0.0211
  980YOPC   NC311209  11.582  14.579   5.808  0.2080 -0.2232  0.3009
  980YOPC   PO411210  12.048  14.461   5.870  0.1015  0.2284 -0.0437
  980YOPC   GL111211  12.030  14.629   6.197 -0.1222 -0.3666 -0.0288
  980YOPC   GL211212  12.335  14.539   6.269 -0.3486  0.0149  0.0051
  980YOPC   C1A11213  12.294  15.050   6.490  0.3459  0.0832  0.1000
  980YOPC   D2A11214  12.337  15.234   6.866 -0.1582 -0.1466  0.2212
  980YOPC   C3A11215  12.521  15.527   7.068  0.1523 -0.0525  0.0881
  980YOPC   C4A11216  12.630  15.985   7.284 -0.0365 -0.0725 -0.1547
  980YOPC   C1B11217  12.201  14.621   6.661  0.2640  0.0541 -0.3804
  980YOPC   C2B11218  11.885  14.938   6.797  0.1448  0.0435 -0.0818
  980YOPC   D3B11219  11.884  15.118   7.163  0.0421 -0.1144  0.2937
  980YOPC   C4B11220  11.585  15.514   7.289  0.2152  0.0201 -0.0184
  981YOPC   NC311221   5.218  12.334   6.642 -0.1213 -0.2128 -0.2010
  981YOPC   PO411222   4.838  12.530   6.761  0.1260  0.3208 -0.1875
  981YOPC   GL111223   5.010  12.201   7.144  0.0597  0.1859  0.0289
  981YOPC   GL211224   5.405  12.261   7.119 -0.2248 -0.0438 -0.0306
  981YOPC   C1A11225   4.984  12.192   7.565 -0.2852 -0.1171  0.0743
  981YOPC   D2A11226   5.172  12.366   7.769  0.2722  0.0158  0.1013
  981YOPC   C3A11227   5.454  12.696   7.858  0.0103 -0.3789 -0.1314
  981YOPC   C4A11228   5.329  13.031   8.096  0.0968 -0.2634  0.0199
  981YOPC   C1B11229   5.306  12.607   7.356 -0.0169 -0.2257  0.0699
  981YOPC   C2B11230   5.118  12.974   7.315  0.3274 -0.2430 -0.1272
  981YOPC   D3B11231   4.899  13.007   7.649  0.0238 -0.1290  0.0915
  981YOPC   C4B11232   4.838  13.165   8.091 -0.3899  0.3769 -0.0477
  982YOPC   NC311233   0.894  17.625   6.079 -0.2076  0.1403  0.0449
  982YOPC   PO411234   0.618  17.510   6.296  0.0616 -0.1050 -0.0251
  982YOPC   GL111235   0.724  17.393   6.710 -0.0001  0.1173 -0.0935
  982YOPC   GL211236   0.668  17.664   6.876  0.0549  0.0545 -0.1065
  982YOPC   C1A11237   0.609  17.326   7.251 -0.2555 -0.1655 -0.0232
  982YOPC   D2A11238   0.599  17.248   7.617  0.0184  0.2036  0.1409
  982YOPC   C3A11239   0.845  17.197   7.922 -0.1091  0.0349 -0.1205
  982YOPC   C4A11240   1.070  17.160   8.271 -0.0422 -0.1188 -0.2114
  982YOPC   C1B11241   0.953  17.782   7.345  0.0997 -0.2874  0.2189
  982YOPC   C2B11242   1.137  17.719   7.667 -0.0589  0.0918 -0.1415
  982YOPC   D3B11243   1.405  17.922   7.897  0.2369 -0.0701 -0.0014
  982YOPC   C4B11244   1.788  17.826   8.312  0.1375 -0.2460 -0.1623
  983YOPC   NC311245   3.164  11.278   5.879  0.1055  0.1122  0.1268
  983YOPC   PO411246   3.302  11.502   6.299  0.0248 -0.0208 -0.1074
  983YOPC   GL111247   3.204  11.528   6.715  0.0153  0.1919 -0.0503
  983YOPC   GL211248   3.033  11.836   6.670 -0.0471 -0.4590  0.0812
  983YOPC   C1A11249   3.118  11.422   7.088 -0.1639 -0.0393  0.1024
  983YOPC   D2A11250   3.035  11.642   7.510  0.2068 -0.0897  0.2151
  983YOPC   C3A11251   2.911  11.444   7.815  0.0984  0.2156 -0.0165
  983YOPC   C4A11252   3.030  11.594   8.240  0.0675 -0.2032 -0.4786
  983YOPC   C1B11253   2.963  11.891   7.079 -0.0777 -0.0033 -0.2027
  983YOPC   C2B11254   2.898  12.121   7.506  0.1147  0.4074  0.2117
  983YOPC   D3B11255   2.634  12.020   7.778  0.0775 -0.0127 -0.0362
  983YOPC   C4B11256   2.521  11.776   8.022  0.1851  0.1643  0.1576
  984YOPC   NC311257  16.646   0.847   5.451  0.1626 -0.1352  0.0245
  984YOPC   PO411258  16.822   0.786   5.914  0.1548 -0.0486 -0.2590
  984YOPC   GL111259  16.510   0.600   6.207 -0.3164 -0.0488  0.2287
  984YOPC   GL211260  16.593   0.874   6.356 -0.3127 -0.1534 -0.3091
  984YOPC   C1A11261  16.533   0.204   6.401 -0.0398 -0.2189  0.0252
  984YOPC   D2A11262  16.508   0.143   6.879 -0.0223 -0.0783  0.3021
  984YOPC   C3A11263  16.113  -0.036   7.056  0.0046 -0.0812  0.2430
  984YOPC   C4A11264  15.777  -0.040   7.373  0.0177 -0.0525 -0.0124
  984YOPC   C1B11265  16.729   0.717   6.768  0.0149  0.1289  0.3557
  984YOPC   C2B11266  16.644   0.842   7.106 -0.3821  0.1303 -0.4481
  984YOPC   D3B11267  16.473   0.663   7.553 -0.0735 -0.0286 -0.2479
  984YOPC   C4B11268  16.368   0.359   7.837 -0.0501  0.1748  0.0750
  985YOPC   NC311269   3.398  14.599   6.055 -0.3210  0.3693  0.1981
  985YOPC   PO411270   3.517  14.242   6.214  0.1019  0.0328  0.0239
  985YOPC   GL111271   3.524  13.778   6.453 -0.0860  0.1251  0.3172
  985YOPC   GL211272   3.417  13.735   6.650  0.1111 -0.2824 -0.1338
  985YOPC   C1A11273   3.921  13.737   6.825 -0.1894  0.3253 -0.0803
  985YOPC   D2A11274   4.315  13.629   6.851 -0.1683 -0.0164  0.1742
  985YOPC   C3A11275   4.451  13.316   6.964  0.3162  0.2005 -0.2101
  985YOPC   C4A11276   4.612  12.966   7.271 -0.0103 -0.1141  0.0290
  985YOPC   C1B11277   3.349  13.954   6.941 -0.1323 -0.1958  0.2591
  985YOPC   C2B11278   3.449  14.136   7.344 -0.3829 -0.0079  0.1128
  985YOPC   D3B11279   3.585  14.052   7.578  0.1225  0.1080  0.0781
  985YOPC   C4B11280   3.745  13.876   7.885 -0.1409 -0.2374  0.2590
  986YOPC   NC311281   8.737   6.799   6.456 -0.3050 -0.0870  0.2873
  986YOPC   PO411282   8.346   6.740   6.560 -0.0352  0.1304 -0.1824
  986YOPC   GL111283   8.363   6.532   6.889 -0.0661  0.0289 -0.1297
  986YOPC   GL211284   8.090   6.383   6.904  0.1675  0.1793 -0.0171
  986YOPC   C1A11285   8.442   6.475   7.306  0.0495  0.1124 -0.1027
  986YOPC   D2A11286   8.403   6.247   7.685 -0.2351  0.0952 -0.0382
  986YOPC   C3A11287   8.071   6.314   7.901 -0.1646  0.0790 -0.1249
  986YOPC   C4A11288   7.727   6.107   8.075  0.0569 -0.0929  0.2903
  986YOPC   C1B11289   7.940   6.384   7.368  0.0061  0.0709  0.4668
  986YOPC   C2B11290   7.580   6.422   7.586 -0.0915  0.1047  0.0377
  986YOPC   D3B11291   7.661   6.631   8.002  0.1851 -0.0319 -0.0700
  986YOPC   C4B11292   7.520   6.568   8.352  0.2834 -0.0375 -0.0045
  987YOPC   NC311293   9.598   1.178   5.289  0.2824  0.0563 -0.1057
  987YOPC   PO411294   9.882   1.339   5.568 -0.3081 -0.2055  0.2354
  987YOPC   GL111295   9.800   1.605   5.855  0.4010 -0.2381 -0.1499
  987YOPC   GL211296   9.404   1.776   5.792 -0.0551  0.0545  0.1073
  987YOPC   C1A11297  10.019   1.536   6.258  0.2769  0.0496 -0.1387
  987YOPC   D2A11298  10.107   1.450   6.726 -0.0893 -0.0398  0.0694
  987YOPC   C3A11299   9.792   1.472   7.048  0.0718  0.0612 -0.1602
  987YOPC   C4A11300   9.326   1.473   7.126 -0.0855 -0.0141 -0.0304
  987YOPC   C1B11301   9.524   1.498   6.189  0.0246  0.2738  0.3710
  987YOPC   C2B11302   9.613   1.341   6.575 -0.1975 -0.1089  0.1247
  987YOPC   D3B11303   9.437   1.168   6.770 -0.0702 -0.1518  0.3673
  987YOPC   C4B11304   9.388   0.881   7.111 -0.0162 -0.4714  0.1671
  988YOPC   NC311305   5.560   7.918   6.138  0.1961 -0.3993  0.2389
  988YOPC   PO411306   5.868   8.144   6.384 -0.0293  0.2171 -0.1340
  988YOPC   GL111307   6.016   8.145   6.761  0.2004  0.2569  0.1174
  988YOPC   GL211308   6.029   8.490   6.851  0.2384  0.2228  0.0395
  988YOPC   C1A11309   5.925   7.999   7.132 -0.0892  0.0355 -0.3510
  988YOPC   D2A11310   5.949   8.184   7.586 -0.1870 -0.0874  0.3676
  988YOPC   C3A11311   5.715   8.392   7.895 -0.0638 -0.0298  0.1234
  988YOPC   C4A11312   5.476   8.403   8.375  0.3779 -0.1492  0.0134
  988YOPC   C1B11313   6.119   8.645   7.172  0.1854 -0.2293 -0.0556
  988YOPC   C2B11314   6.266   8.691   7.533  0.0703 -0.1737  0.0146
  988YOPC   D3B11315   6.200   8.670   8.023 -0.0967  0.2630 -0.0453
  988YOPC   C4B11316   5.997   8.470   8.357  0.0339 -0.0983  0.2237
  989YOPC   NC311317   0.442  17.982   6.423 -0.0816 -0.0951 -0.1852
  989YOPC   PO411318   0.812  18.109   6.230 -0.0330 -0.2828  0.0345
  989YOPC   GL111319   0.993  17.817   6.535 -0.0645 -0.0438  0.1104
  989YOPC   GL211320   1.185  17.570   6.590 -0.2031  0.0915  0.5154
  989YOPC   C1A11321   1.203  17.883   6.943 -0.3140 -0.1049 -0.1030
  989YOPC   D2A11322   1.488  18.049   7.364  0.1107  0.1094  0.1102
  989YOPC   C3A11323   1.713  17.706   7.605  0.4961  0.1601 -0.0206
  989YOPC   C4A11324   1.958  17.560   7.932 -0.1072 -0.0495 -0.1637
  989YOPC   C1B11325   1.116  17.302   6.962 -0.1347  0.0349 -0.0141
  989YOPC   C2B11326   1.086  17.275   7.357  0.3018 -0.1442 -0.2426
  989YOPC   D3B11327   1.330  17.203   7.744  0.1120  0.0563 -0.1405
  989YOPC   C4B11328   1.467  17.460   8.147 -0.1334  0.0287  0.0148
  990YOPC   NC311329   5.443  17.573   5.633 -0.5050  0.2715 -0.0726
  990YOPC   PO411330   4.974  17.655   5.754  0.4119 -0.1793 -0.1509
  990YOPC   GL111331   5.047  17.392   6.144  0.1327  0.2078  0.0183
  990YOPC   GL211332   5.245  17.087   6.237  0.0436 -0.0590 -0.0657
  990YOPC   C1A11333   5.275  17.564   6.489 -0.0211 -0.1606 -0.1883
  990YOPC   D2A11334   5.155  17.547   6.874  0.2163  0.2571  0.1456
  990YOPC   C3A11335   5.508  17.443   7.100 -0.0498  0.1358 -0.1386
  990YOPC   C4A11336   5.527  17.447   7.494  0.3168  0.0553  0.2178
  990YOPC   C1B11337   5.203  17.065   6.759  0.0491 -0.1173 -0.1114
  990YOPC   C2B11338   5.043  17.108   7.165 -0.0619 -0.2092  0.0726
  990YOPC   D3B11339   5.210  17.073   7.522  0.2249 -0.2063  0.1931
  990YOPC   C4B11340   5.317  16.902   7.810 -0.2865 -0.2079  0.1926
  991YOPC   NC311341   4.035   6.968   6.564  0.0020  0.0252 -0.0092
  991YOPC   PO411342   3.878   7.344   6.632 -0.1038 -0.0842 -0.1524
  991YOPC   GL111343   4.113   7.407   6.973 -0.1718 -0.0486 -0.2161
  991YOPC   GL211344   3.990   7.752   7.198  0.0671  0.1202 -0.2705
  991YOPC   C1A11345   4.288   7.298   7.348 -0.2204  0.1603  0.1978
  991YOPC   D2A11346   4.355   7.394   7.714  0.0756  0.1450 -0.0381
  991YOPC   C3A11347   4.585   7.264   7.923  0.1361 -0.0488  0.1298
  991YOPC   C4A11348   4.671   7.196   8.372 -0.2157 -0.1583  0.3640
  991YOPC   C1B11349   3.675   7.993   7.411  0.0379 -0.0314  0.2322
  991YOPC   C2B11350   3.554   7.931   7.812  0.0267  0.1860  0.0686
  991YOPC   D3B11351   3.813   7.842   8.201 -0.0498 -0.0120 -0.2029
  991YOPC   C4B11352   4.019   7.602   8.518 -0.1791  0.1153 -0.1627
  992YOPC   NC311353   7.069  15.473   5.961 -0.0361 -0.0622  0.0706
  992YOPC   PO411354   6.747  15.168   6.076 -0.1256 -0.1215  0.1976
  992YOPC   GL111355   6.702  15.321   6.490  0.1789  0.0269 -0.2678
  992YOPC   GL211356   6.472  15.610   6.478  0.1464 -0.0249  0.0017
  992YOPC   C1A11357   6.911  15.463   6.955 -0.1389  0.1831 -0.4180
  992YOPC   D2A11358   7.103  15.759   7.181  0.2102  0.1205  0.0069
  992YOPC   C3A11359   7.243  15.967   7.537  0.1489 -0.0830 -0.0712
  992YOPC   C4A11360   7.383  16.183   7.904 -0.1361  0.1811  0.0663
  992YOPC   C1B11361   6.596  15.845   6.894  0.0526  0.2569  0.0208
  992YOPC   C2B11362   6.756  16.168   7.219 -0.1510 -0.0678  0.1610
  992YOPC   D3B11363   7.054  16.473   7.366 -0.0684  0.1028 -0.1059
  992YOPC   C4B11364   7.506  16.409   7.446  0.0919  0.0649 -0.2262
  993YOPC   NC311365  13.517   1.857   5.454 -0.2162 -0.0095 -0.0915
  993YOPC   PO411366  13.501   1.688   5.917  0.1213  0.1339 -0.0738
  993YOPC   GL111367  13.368   1.658   6.330 -0.2201  0.0425  0.1398
  993YOPC   GL211368  13.195   1.447   6.494 -0.0726 -0.1171 -0.1485
  993YOPC   C1A11369  13.366   1.850   6.722 -0.0534 -0.0420  0.2798
  993YOPC   D2A11370  13.340   1.884   7.216  0.1346  0.0893 -0.0020
  993YOPC   C3A11371  13.556   1.922   7.566 -0.2258  0.1386 -0.0936
  993YOPC   C4A11372  13.762   2.210   7.907 -0.1088  0.3303  0.1014
  993YOPC   C1B11373  13.051   1.287   6.855 -0.0090  0.0670  0.0882
  993YOPC   C2B11374  13.086   1.250   7.348  0.1165 -0.0796  0.0925
  993YOPC   D3B11375  13.203   1.585   7.597 -0.3410  0.2539  0.1110
  993YOPC   C4B11376  13.128   1.899   7.900 -0.1111  0.1366 -0.1028
  994YOPC   NC311377   4.139   1.522   6.370 -0.4831 -0.0416  0.0156
  994YOPC   PO411378   4.362   1.924   6.493 -0.0989  0.3652  0.0314
  994YOPC   GL111379   4.482   1.939   6.885 -0.0109 -0.1385 -0.1649
  994YOPC   GL211380   4.754   1.743   6.871 -0.0009  0.2054 -0.1359
  994YOPC   C1A11381   4.306   1.752   7.234  0.2701  0.2693 -0.0620
  994YOPC   D2A11382   4.418   1.620   7.777  0.2720  0.0751  0.2265
  994YOPC   C3A11383   4.291   1.695   8.121 -0.1524 -0.0383 -0.2771
  994YOPC   C4A11384   4.160   2.081   8.313  0.1037  0.0874  0.1320
  994YOPC   C1B11385   4.756   1.799   7.353 -0.0422 -0.0746  0.2006
  994YOPC   C2B11386   4.906   1.873   7.710  0.4764 -0.0196 -0.0277
  994YOPC   D3B11387   4.766   1.634   8.076  0.2125 -0.0596 -0.0247
  994YOPC   C4B11388   4.760   1.634   8.459  0.1451  0.1505  0.2417
  995YOPC   NC311389  17.774   7.426   6.211  0.0436 -0.3001  0.1106
  995YOPC   PO411390  17.440   7.086   6.073 -0.2412 -0.6088 -0.0947
  995YOPC   GL111391  17.399   7.206   6.513  0.2010  0.1828  0.1159
  995YOPC   GL211392  17.058   7.227   6.520 -0.0999  0.1147 -0.0809
  995YOPC   C1A11393  17.625   7.100   6.815 -0.0691  0.0751 -0.0334
  995YOPC   D2A11394  17.923   6.716   6.749  0.1738 -0.0155  0.0003
  995YOPC   C3A11395  17.950   6.508   7.103 -0.1265  0.0260  0.1623
  995YOPC   C4A11396  17.967   6.497   7.526  0.0001 -0.1991  0.0816
  995YOPC   C1B11397  17.100   7.108   6.858  0.0291  0.0578  0.1053
  995YOPC   C2B11398  16.940   7.053   7.214  0.1240  0.0159 -0.1191
  995YOPC   D3B11399  17.008   6.920   7.616 -0.0546 -0.0079  0.1705
  995YOPC   C4B11400  17.145   6.907   8.060 -0.0863 -0.0640  0.3752
  996YOPC   NC311401  12.771   6.239   5.948 -0.1350 -0.1492  0.1777
  996YOPC   PO411402  12.998   6.329   6.310  0.2456 -0.0419 -0.2850
  996YOPC   GL111403  13.006   6.030   6.625  0.0595 -0.4527  0.0435
  996YOPC   GL211404  13.138   5.799   6.892 -0.2288 -0.0715  0.2522
  996YOPC   C1A11405  12.677   5.658   6.933  0.1344 -0.1899 -0.0021
  996YOPC   D2A11406  12.537   5.594   7.371  0.0261  0.0892  0.2424
  996YOPC   C3A11407  12.506   5.962   7.604  0.1133 -0.1891 -0.3362
  996YOPC   C4A11408  12.444   6.345   7.527  0.3098 -0.4748 -0.2309
  996YOPC   C1B11409  13.017   5.677   7.351 -0.0227 -0.0212  0.1905
  996YOPC   C2B11410  13.021   5.504   7.725  0.1770  0.2196  0.0970
  996YOPC   D3B11411  12.718   5.632   7.928 -0.1656  0.0910 -0.0192
  996YOPC   C4B11412  12.378   5.753   8.032 -0.2764 -0.0441 -0.0562
  997YOPC   NC311413   9.226  17.698   5.563  0.0524  0.1455  0.1981
  997YOPC   PO411414   9.349  17.278   5.615  0.0479  0.3327  0.2075
  997YOPC   GL111415   9.596  17.375   5.839 -0.0247 -0.1987  0.0690
  997YOPC   GL211416   9.895  17.364   5.979  0.2065 -0.1142  0.0085
  997YOPC   C1A11417   9.733  17.756   6.119  0.2741 -0.3762 -0.1007
  997YOPC   D2A11418   9.737  17.792   6.545  0.0101  0.1225  0.0205
  997YOPC   C3A11419   9.487  17.650   6.783 -0.3578  0.2207  0.1700
  997YOPC   C4A11420   9.153  17.541   7.060 -0.1651 -0.2447 -0.3561
  997YOPC   C1B11421   9.626  17.249   6.386  0.1592 -0.0003  0.2504
  997YOPC   C2B11422   9.522  17.143   6.872  0.2310 -0.2336  0.1391
  997YOPC   D3B11423   9.659  17.470   7.203 -0.3195  0.0317  0.0564
  997YOPC   C4B11424   9.519  17.793   7.335 -0.1070 -0.1044  0.0067
  998YOPC   NC311425   9.374   0.398   5.234  0.3259 -0.0592 -0.0031
  998YOPC   PO411426   9.299   0.813   5.406 -0.0084 -0.1178 -0.0681
  998YOPC   GL111427   9.159   0.774   5.772  0.2128 -0.4835 -0.2794
  998YOPC   GL211428   8.776   0.980   5.843  0.1743 -0.1254 -0.0054
  998YOPC   C1A11429   8.907   0.673   6.245  0.0098 -0.2855 -0.0077
  998YOPC   D2A11430   9.015   0.901   6.646 -0.1166 -0.2654  0.0151
  998YOPC   C3A11431   8.998   1.426   6.588 -0.0272 -0.2404 -0.0569
  998YOPC   C4A11432   8.915   1.651   6.929  0.1285 -0.3385  0.0655
  998YOPC   C1B11433   8.580   1.165   6.269  0.0755  0.1875  0.2340
  998YOPC   C2B11434   8.581   1.257   6.729 -0.0777  0.2484  0.1851
  998YOPC   D3B11435   8.349   1.059   6.913 -0.0152  0.2163  0.1053
  998YOPC   C4B11436   8.258   0.810   7.252  0.1756 -0.3344 -0.1603
  999YOPC   NC311437  13.178  12.344   5.827  0.3696 -0.1242  0.0785
  999YOPC   PO411438  13.193  12.148   6.247 -0.0643  0.1305  0.0505
  999YOPC   GL111439  13.227  12.342   6.553 -0.0314  0.4483  0.0860
  999YOPC   GL211440  13.604  12.197   6.685  0.2352 -0.0385  0.2044
  999YOPC   C1A11441  13.066  12.563   6.986  0.2354  0.0585  0.2726
  999YOPC   D2A11442  12.977  12.884   7.273 -0.2576  0.1769  0.1041
  999YOPC   C3A11443  13.025  12.739   7.698 -0.2384 -0.1032  0.3264
  999YOPC   C4A11444  12.841  12.560   8.050  0.0086  0.0129 -0.2744
  999YOPC   C1B11445  13.527  12.526   7.001 -0.1246 -0.3746  0.1615
  999YOPC   C2B11446  13.485  12.843   7.273 -0.1337  0.1810 -0.0506
  999YOPC   D3B11447  13.550  12.877   7.664 -0.1777 -0.2141 -0.2349
  999YOPC   C4B11448  13.755  12.987   8.111 -0.1010  0.0872 -0.0341
 1000YOPC   NC311449  10.859  12.190   6.165  0.2673  0.2521  0.0014
 1000YOPC   PO411450  10.842  12.048   6.566  0.2718  0.0546  0.0361
 1000YOPC   GL111451  10.731  11.885   6.892 -0.0847 -0.0299  0.0224
 1000YOPC   GL211452  10.586  12.019   7.082  0.0258 -0.1042  0.1353
 1000YOPC   C1A11453  10.603  11.533   7.229  0.4814 -0.1824 -0.2839
 1000YOPC   D2A11454  10.881  11.303   7.294 -0.0054  0.1803  0.3062
 1000YOPC   C3A11455  10.815  11.347   7.708 -0.0395  0.2224  0.4292
 1000YOPC   C4A11456  10.825  11.340   8.118  0.1384 -0.0086  0.2011
 1000YOPC   C1B11457  10.516  12.175   7.310  0.1917 -0.0946 -0.1541
 1000YOPC   C2B11458  10.341  12.138   7.776 -0.1122  0.0805  0.2198
 1000YOPC   D3B11459  10.627  12.415   7.866 -0.0874 -0.0131 -0.0963
 1000YOPC   C4B11460  11.007  12.547   8.217 -0.2848 -0.1633  0.0115
 1001YOPC   NC311461   3.349  17.165   5.947 -0.1329  0.3119  0.0512
 1001YOPC   PO411462   3.629  17.386   6.051  0.1329 -0.1292  0.0357
 1001YOPC   GL111463   3.728  17.444   6.444 -0.0925 -0.0905  0.1510
 1001YOPC   GL211464   3.791  17.769   6.520 -0.4087 -0.1386  0.1048
 1001YOPC   C1A11465   3.743  17.252   6.837  0.2551 -0.1043 -0.0022
 1001YOPC   D2A11466   3.779  17.164   7.231 -0.1574  0.0291 -0.1831
 1001YOPC   C3A11467   4.059  17.205   7.539 -0.3767  0.2905 -0.0449
 1001YOPC   C4A11468   4.410  17.145   7.825 -0.1067 -0.2588 -0.0783
 1001YOPC   C1B11469   3.646  17.800   7.001 -0.0746 -0.0793  0.1509
 1001YOPC   C2B11470   3.675  17.647   7.482 -0.0759 -0.1081  0.1180
 1001YOPC   D3B11471   3.523  17.792   7.769  0.0302  0.0349 -0.0916
 1001YOPC   C4B11472   3.201  17.900   7.948  0.0842 -0.2741  0.2315
 1002YOPC   NC311473  15.796  13.314   5.649 -0.1181 -0.0731 -0.4350
 1002YOPC   PO411474  15.611  13.496   5.968  0.0776  0.0902  0.0109
 1002YOPC   GL111475  15.321  13.649   6.321  0.0240  0.2178  0.0225
 1002YOPC   GL211476  14.950  13.609   6.267  0.2175 -0.0471  0.0511
 1002YOPC   C1A11477  15.258  13.900   6.653  0.4233 -0.0328  0.2978
 1002YOPC   D2A11478  15.474  13.957   6.990  0.2341  0.0389  0.1247
 1002YOPC   C3A11479  15.452  13.680   7.350  0.4265  0.2886  0.2070
 1002YOPC   C4A11480  15.147  13.625   7.756  0.0361  0.1256  0.0855
 1002YOPC   C1B11481  14.974  13.282   6.525  0.2057 -0.0870 -0.2299
 1002YOPC   C2B11482  14.900  13.031   6.892 -0.1606  0.1396  0.1109
 1002YOPC   D3B11483  14.618  12.963   7.192 -0.3227 -0.3271  0.0131
 1002YOPC   C4B11484  14.277  13.248   7.262 -0.0222 -0.2099 -0.1318
 1003YOPC   NC311485   3.672  12.508   6.309 -0.2181 -0.1337  0.1731
 1003YOPC   PO411486   3.938  12.141   6.563 -0.0640  0.2235  0.0910
 1003YOPC   GL111487   3.939  11.904   7.066  0.3182 -0.0968 -0.2024
 1003YOPC   GL211488   4.149  11.659   7.114 -0.0423  0.0426  0.1504
 1003YOPC   C1A11489   3.855  11.970   7.480 -0.0287  0.0528  0.0491
 1003YOPC   D2A11490   3.895  11.901   7.941 -0.0787 -0.0072  0.1181
 1003YOPC   C3A11491   4.079  11.960   8.326 -0.1306  0.1701  0.2306
 1003YOPC   C4A11492   4.336  11.583   8.568 -0.2568  0.0536 -0.3054
 1003YOPC   C1B11493   4.133  11.516   7.532  0.0108 -0.0351  0.0732
 1003YOPC   C2B11494   4.150  11.520   7.929  0.1205 -0.0471 -0.1060
 1003YOPC   D3B11495   3.974  11.409   8.268 -0.0271  0.0969 -0.1274
 1003YOPC   C4B11496   3.905  11.059   8.423  0.1370 -0.1736  0.1682
 1004YOPC   NC311497  15.754  14.511   6.108  0.2196  0.0728  0.0497
 1004YOPC   PO411498  16.048  14.827   6.113 -0.3293  0.0837  0.0166
 1004YOPC   GL111499  16.050  14.705   6.532  0.4303  0.0779  0.1635
 1004YOPC   GL211500  16.310  14.567   6.717 -0.0276  0.3384 -0.1798
 1004YOPC   C1A11501  15.889  14.648   6.954  0.2986  0.2028 -0.0136
 1004YOPC   D2A11502  15.749  14.552   7.361  0.0513  0.0678  0.1809
 1004YOPC   C3A11503  15.555  14.182   7.475  0.1363 -0.1971  0.2838
 1004YOPC   C4A11504  15.385  14.118   7.899 -0.1339  0.0335 -0.0723
 1004YOPC   C1B11505  16.371  14.642   7.187  0.0611 -0.1378 -0.0255
 1004YOPC   C2B11506  16.255  14.711   7.610  0.1538  0.0629 -0.0872
 1004YOPC   D3B11507  15.893  14.881   7.701  0.2414 -0.5819 -0.1906
 1004YOPC   C4B11508  15.823  15.357   7.698  0.1113  0.3679  0.1353
 1005YOPC   NC311509   5.212   2.221   6.122  0.3118  0.0836 -0.1576
 1005YOPC   PO411510   5.242   2.553   6.339  0.2225  0.0390  0.0759
 1005YOPC   GL111511   5.562   2.475   6.630 -0.0405  0.0876 -0.0755
 1005YOPC   GL211512   5.587   2.667   6.911  0.3339  0.1641 -0.1119
 1005YOPC   C1A11513   5.825   2.184   6.756 -0.2054  0.0436 -0.0945
 1005YOPC   D2A11514   5.930   1.903   7.072  0.1298  0.1141  0.0229
 1005YOPC   C3A11515   6.205   1.984   7.408  0.2127 -0.1675  0.1638
 1005YOPC   C4A11516   6.419   2.148   7.693  0.1745  0.1270  0.0423
 1005YOPC   C1B11517   5.470   2.407   7.245 -0.2885 -0.3363  0.0675
 1005YOPC   C2B11518   5.619   2.161   7.442  0.1588 -0.3113 -0.4169
 1005YOPC   D3B11519   5.471   2.222   7.861 -0.0748  0.3538  0.0136
 1005YOPC   C4B11520   5.149   1.938   8.116 -0.0084  0.0128 -0.0413
 1006YOPC   NC311521   9.906  10.558   6.608  0.0263  0.2553 -0.1042
 1006YOPC   PO411522   9.453  10.491   6.684  0.4736 -0.1971  0.0070
 1006YOPC   GL111523   9.435  10.723   7.067  0.0977 -0.1768  0.2474
 1006YOPC   GL211524   9.625  10.975   7.168  0.0947  0.2108 -0.0843
 1006YOPC   C1A11525   9.215  10.818   7.438  0.3251 -0.0191  0.0354
 1006YOPC   D2A11526   9.169  11.051   7.919  0.0286 -0.2455 -0.0564
 1006YOPC   C3A11527   9.341  10.795   8.272 -0.1452  0.2280 -0.2666
 1006YOPC   C4A11528   9.132  10.581   8.702 -0.1184  0.0519 -0.1330
 1006YOPC   C1B11529   9.621  11.183   7.501 -0.1573 -0.1834 -0.3985
 1006YOPC   C2B11530   9.689  11.426   7.826 -0.1422 -0.0748  0.1513
 1006YOPC   D3B11531  10.065  11.341   8.041  0.2349 -0.1509 -0.1427
 1006YOPC   C4B11532   9.942  11.257   8.547  0.0712 -0.1049  0.2265
 1007YOPC   NC311533  10.220   5.532   6.034  0.1267  0.2033  0.1158
 1007YOPC   PO411534  10.082   5.967   6.215 -0.0708  0.0830  0.0132
 1007YOPC   GL111535   9.821   6.146   6.557  0.0162 -0.1454  0.1541
 1007YOPC   GL211536   9.848   6.394   6.727 -0.4009  0.1354 -0.0884
 1007YOPC   C1A11537   9.620   5.958   6.751  0.4412 -0.0604 -0.1566
 1007YOPC   D2A11538   9.626   5.703   7.207  0.0624  0.0615  0.3695
 1007YOPC   C3A11539   9.567   5.489   7.554 -0.1874 -0.0109 -0.2158
 1007YOPC   C4A11540   9.630   5.462   8.025 -0.0615  0.0518 -0.1245
 1007YOPC   C1B11541   9.866   6.548   7.120  0.1083  0.0298  0.1258
 1007YOPC   C2B11542   9.983   6.602   7.543 -0.0452 -0.5286  0.1914
 1007YOPC   D3B11543   9.715   6.391   7.892  0.0879  0.2174 -0.1074
 1007YOPC   C4B11544   9.688   6.357   8.322 -0.1929 -0.0594 -0.1660
 1008YOPC   NC311545   0.485  10.534   5.729 -0.1437  0.0779 -0.1278
 1008YOPC   PO411546   0.520  10.588   6.168  0.1903 -0.3109 -0.5165
 1008YOPC   GL111547   0.566  10.589   6.631  0.0086 -0.1495  0.0252
 1008YOPC   GL211548   0.451  10.804   6.702  0.0930  0.2378  0.4198
 1008YOPC   C1A11549   0.627  10.351   7.149 -0.0516 -0.0139 -0.2112
 1008YOPC   D2A11550   0.828  10.400   7.592  0.1591  0.0558 -0.2851
 1008YOPC   C3A11551   1.092  10.730   7.724  0.0551 -0.3634  0.2399
 1008YOPC   C4A11552   1.333  11.061   7.610  0.0900  0.2385  0.1644
 1008YOPC   C1B11553   0.280  10.786   7.124 -0.0477  0.2805  0.4797
 1008YOPC   C2B11554   0.218  11.098   7.284  0.0709 -0.0884 -0.0168
 1008YOPC   D3B11555   0.225  11.060   7.730  0.3185  0.2836  0.1404
 1008YOPC   C4B11556   0.028  11.199   7.878 -0.0407 -0.0823  0.0416
 1009YOPC   NC311557   8.047  15.900   5.258 -0.2011  0.0733 -0.2155
 1009YOPC   PO411558   8.276  15.913   5.597  0.1795  0.1529 -0.0214
 1009YOPC   GL111559   8.381  16.292   5.835  0.0761 -0.2614  0.0697
 1009YOPC   GL211560   8.183  16.462   5.807  0.0201 -0.0855  0.0288
 1009YOPC   C1A11561   8.441  16.489   6.180 -0.3002 -0.1522 -0.1613
 1009YOPC   D2A11562   8.357  16.544   6.663  0.2929  0.2336 -0.2040
 1009YOPC   C3A11563   8.567  16.458   7.101  0.2372 -0.4417  0.1012
 1009YOPC   C4A11564   8.431  16.600   7.577  0.0943  0.3283  0.0903
 1009YOPC   C1B11565   7.784  16.495   5.977  0.1536 -0.0513  0.0482
 1009YOPC   C2B11566   7.565  16.460   6.237 -0.2526 -0.0980 -0.0145
 1009YOPC   D3B11567   7.584  16.535   6.663  0.0027  0.2763 -0.0045
 1009YOPC   C4B11568   7.374  16.657   7.037 -0.2479 -0.1853  0.0181
 1010YOPC   NC311569  14.285  11.750   6.568 -0.0006  0.0365 -0.0302
 1010YOPC   PO411570  14.022  12.025   6.460  0.0417 -0.0686 -0.2996
 1010YOPC   GL111571  14.142  12.191   6.866  0.3792 -0.2428  0.1024
 1010YOPC   GL211572  14.424  12.084   6.875 -0.2620  0.2964  0.2282
 1010YOPC   C1A11573  14.040  12.655   7.058 -0.2147 -0.0601 -0.2517
 1010YOPC   D2A11574  14.005  12.878   7.403  0.2419 -0.1539 -0.1390
 1010YOPC   C3A11575  14.184  13.037   7.773 -0.1196 -0.0884  0.3871
 1010YOPC   C4A11576  14.400  12.998   8.137  0.0702 -0.2753 -0.0766
 1010YOPC   C1B11577  14.311  11.927   7.317 -0.2546 -0.0228 -0.1198
 1010YOPC   C2B11578  14.267  11.911   7.714  0.0403  0.0500 -0.3189
 1010YOPC   D3B11579  14.399  11.645   7.968  0.3620  0.1382  0.0218
 1010YOPC   C4B11580  14.305  11.235   8.116 -0.3386  0.0560  0.0917
 1011YOPC   NC311581   2.166  12.718   6.268  0.0028 -0.0665 -0.0374
 1011YOPC   PO411582   2.348  12.963   6.511  0.1020  0.0735  0.0616
 1011YOPC   GL111583   2.647  13.100   6.793 -0.3510 -0.1167 -0.1342
 1011YOPC   GL211584   2.815  12.786   6.797  0.0167  0.0074  0.1158
 1011YOPC   C1A11585   2.587  13.177   7.150 -0.1204  0.0056  0.1382
 1011YOPC   D2A11586   2.731  13.107   7.620  0.0593 -0.0054  0.2679
 1011YOPC   C3A11587   3.055  13.275   7.640 -0.1508  0.3102 -0.3149
 1011YOPC   C4A11588   3.252  13.028   7.885 -0.1130  0.1369  0.0611
 1011YOPC   C1B11589   2.635  12.726   7.269  0.1829  0.1457 -0.0999
 1011YOPC   C2B11590   2.731  12.582   7.754  0.0493 -0.3805  0.2683
 1011YOPC   D3B11591   2.895  12.832   8.152  0.0020  0.2010  0.0885
 1011YOPC   C4B11592   2.592  13.133   8.316  0.1950  0.0350 -0.0042
 1012YOPC   NC311593   5.320   0.429   5.959  0.0728 -0.2632  0.0261
 1012YOPC   PO411594   5.565   0.054   5.904  0.0887 -0.0327 -0.0435
 1012YOPC   GL111595   5.568   0.063   6.267 -0.1180 -0.1868  0.2198
 1012YOPC   GL211596   5.386   0.298   6.429 -0.2062 -0.0539  0.2450
 1012YOPC   C1A11597   5.633  -0.023   6.737  0.0670  0.1937  0.1114
 1012YOPC   D2A11598   5.389  -0.207   7.027 -0.4809  0.0252 -0.0946
 1012YOPC   C3A11599   5.190  -0.451   7.363 -0.3186  0.3665 -0.3840
 1012YOPC   C4A11600   5.121  -0.542   7.811  0.0771  0.4287 -0.2715
 1012YOPC   C1B11601   5.124  -0.114   6.567  0.0910 -0.3091 -0.0644
 1012YOPC   C2B11602   4.836  -0.338   6.829 -0.3777 -0.0615  0.2177
 1012YOPC   D3B11603   4.844  -0.157   7.195  0.3099 -0.1685 -0.1113
 1012YOPC   C4B11604   4.722  -0.270   7.631 -0.3049  0.3456 -0.3318
 1013YOPC   NC311605  15.057  13.904   5.871  0.0445 -0.0546  0.1790
 1013YOPC   PO411606  14.753  14.204   6.054  0.2666 -0.1782  0.1642
 1013YOPC   GL111607  14.563  14.057   6.315 -0.0550  0.0189  0.0999
 1013YOPC   GL211608  14.474  13.811   6.344 -0.1728 -0.1300 -0.0356
 1013YOPC   C1A11609  14.345  14.091   6.737  0.2682 -0.1507  0.0248
 1013YOPC   D2A11610  14.263  14.226   7.178  0.0694  0.1430  0.3004
 1013YOPC   C3A11611  13.814  14.198   7.273  0.0352 -0.0633  0.1912
 1013YOPC   C4A11612  13.588  14.275   7.708 -0.0002 -0.1334  0.0284
 1013YOPC   C1B11613  14.784  13.783   6.696  0.0080 -0.1998 -0.0980
 1013YOPC   C2B11614  15.039  13.514   6.947 -0.0471  0.2873 -0.2156
 1013YOPC   D3B11615  14.843  13.455   7.322 -0.0495 -0.0706 -0.0772
 1013YOPC   C4B11616  14.481  13.520   7.724 -0.3569  0.0206 -0.0002
 1014YOPC   NC311617   8.183  11.288   6.427 -0.2721  0.2206  0.1153
 1014YOPC   PO411618   7.876  11.610   6.564 -0.5560  0.1006 -0.4022
 1014YOPC   GL111619   7.785  11.604   6.899  0.0784  0.0404 -0.2361
 1014YOPC   GL211620   7.476  11.442   6.724  0.1039 -0.0871 -0.2282
 1014YOPC   C1A11621   7.921  11.465   7.350 -0.1209  0.0364 -0.1632
 1014YOPC   D2A11622   7.790  11.475   7.769  0.0557 -0.3925 -0.2206
 1014YOPC   C3A11623   8.001  11.347   8.183  0.1471 -0.1220  0.0060
 1014YOPC   C4A11624   8.311  11.396   8.506 -0.2005  0.0908 -0.0427
 1014YOPC   C1B11625   7.514  11.283   7.145 -0.1450 -0.0058  0.5629
 1014YOPC   C2B11626   7.476  11.237   7.517  0.2988 -0.1299 -0.1038
 1014YOPC   D3B11627   7.198  11.220   7.958  0.0369 -0.2322  0.3208
 1014YOPC   C4B11628   7.239  11.138   8.452  0.2557 -0.0049 -0.4141
 1015YOPC   NC311629   0.111  15.965   6.369  0.1382 -0.0166 -0.0436
 1015YOPC   PO411630  -0.160  15.685   6.496 -0.2174 -0.0255 -0.0895
 1015YOPC   GL111631  -0.222  15.492   6.851  0.2566  0.0513 -0.1721
 1015YOPC   GL211632  -0.096  15.174   6.821 -0.0772 -0.0666 -0.1260
 1015YOPC   C1A11633  -0.515  15.381   7.183 -0.0767  0.0940  0.0524
 1015YOPC   D2A11634  -0.577  15.273   7.649  0.1249  0.0034  0.2124
 1015YOPC   C3A11635  -0.412  15.446   8.003  0.2912  0.1682 -0.1598
 1015YOPC   C4A11636  -0.505  15.362   8.369  0.2067  0.2602  0.1533
 1015YOPC   C1B11637   0.047  15.230   7.209 -0.1547 -0.0497  0.3119
 1015YOPC   C2B11638  -0.030  15.179   7.674 -0.0418 -0.2112 -0.2308
 1015YOPC   D3B11639   0.146  14.888   8.099  0.3095 -0.0360  0.0297
 1015YOPC   C4B11640   0.184  14.601   8.334  0.3105  0.0282 -0.1421
 1016YOPC   NC311641   0.807  14.582   5.877 -0.2209  0.0192  0.0556
 1016YOPC   PO411642   0.585  14.669   6.302  0.3682 -0.0494 -0.2075
 1016YOPC   GL111643   0.657  14.738   6.730  0.1336 -0.1306  0.0183
 1016YOPC   GL211644   0.446  15.038   6.729 -0.0351  0.0903 -0.0821
 1016YOPC   C1A11645   0.537  14.432   7.052  0.1748  0.0242  0.0800
 1016YOPC   D2A11646   0.509  14.211   7.480  0.3426 -0.3952  0.0234
 1016YOPC   C3A11647   0.885  14.445   7.720  0.1564 -0.0203 -0.1169
 1016YOPC   C4A11648   1.182  14.812   7.947  0.1514  0.1808  0.0251
 1016YOPC   C1B11649   0.554  14.946   7.173  0.0857  0.2891  0.2703
 1016YOPC   C2B11650   0.651  14.882   7.638 -0.0133  0.1393 -0.1384
 1016YOPC   D3B11651   0.863  15.180   7.885 -0.1698 -0.1090  0.4252
 1016YOPC   C4B11652   1.307  15.365   7.991  0.1260  0.0177  0.1416
 1017YOPC   NC311653   3.753   5.420   6.684 -0.1694 -0.1124  0.2584
 1017YOPC   PO411654   3.381   5.624   6.804  0.0742 -0.1330 -0.0473
 1017YOPC   GL111655   3.305   5.873   7.199  0.0253  0.0814 -0.0986
 1017YOPC   GL211656   3.312   6.234   7.119 -0.2050  0.1621 -0.0379
 1017YOPC   C1A11657   3.267   6.014   7.604 -0.0695 -0.0974 -0.0475
 1017YOPC   D2A11658   3.435   6.258   7.898 -0.0636 -0.0439 -0.1018
 1017YOPC   C3A11659   3.376   6.527   8.208  0.6064  0.1295  0.0388
 1017YOPC   C4A11660   3.213   6.915   8.313  0.3496  0.0381 -0.0912
 1017YOPC   C1B11661   3.603   6.344   7.425 -0.0571 -0.0847 -0.0588
 1017YOPC   C2B11662   3.841   6.424   7.542  0.0144  0.2783 -0.2270
 1017YOPC   D3B11663   3.912   6.429   7.985 -0.1976 -0.2050  0.1221
 1017YOPC   C4B11664   3.874   6.271   8.311  0.4475  0.1573  0.2130
 1018YOPC   NC311665   6.845   3.832   5.928  0.0468 -0.0421  0.0216
 1018YOPC   PO411666   7.242   3.905   5.795  0.1480  0.1928  0.2239
 1018YOPC   GL111667   7.173   3.687   6.228  0.1146  0.1369  0.0880
 1018YOPC   GL211668   6.871   3.504   6.264 -0.0168 -0.0316  0.0697
 1018YOPC   C1A11669   7.295   3.656   6.613 -0.1144 -0.0438 -0.1713
 1018YOPC   D2A11670   7.183   3.248   6.937  0.2832  0.3413 -0.2616
 1018YOPC   C3A11671   7.406   3.216   7.161  0.1409 -0.0699 -0.0063
 1018YOPC   C4A11672   7.616   3.197   7.571 -0.3346  0.2471 -0.0323
 1018YOPC   C1B11673   7.014   3.213   6.444 -0.1446  0.1274  0.1284
 1018YOPC   C2B11674   7.405   3.054   6.539  0.0627  0.0694 -0.2018
 1018YOPC   D3B11675   7.519   2.858   6.818 -0.1843  0.0478 -0.0115
 1018YOPC   C4B11676   7.582   2.742   7.238 -0.0657 -0.2489  0.0158
 1019YOPC   NC311677   8.475   4.344   5.694  0.3401 -0.0716 -0.0627
 1019YOPC   PO411678   8.616   4.553   6.040  0.2375 -0.3045  0.2610
 1019YOPC   GL111679   8.342   4.559   6.353 -0.0123 -0.4315 -0.1901
 1019YOPC   GL211680   8.254   4.824   6.302 -0.0222 -0.0985 -0.1734
 1019YOPC   C1A11681   8.262   4.522   6.714 -0.2301  0.0879  0.0998
 1019YOPC   D2A11682   8.371   4.554   7.116  0.0298 -0.0366  0.1409
 1019YOPC   C3A11683   8.016   4.515   7.457 -0.0930  0.1923 -0.2923
 1019YOPC   C4A11684   7.621   4.509   7.782  0.1556 -0.1785  0.1587
 1019YOPC   C1B11685   7.893   4.824   6.584 -0.0411 -0.2239  0.1934
 1019YOPC   C2B11686   7.844   4.712   6.969  0.1141  0.0145  0.2040
 1019YOPC   D3B11687   7.937   4.276   7.025  0.1838 -0.0264  0.2732
 1019YOPC   C4B11688   7.962   3.870   7.122  0.2292  0.0816  0.2331
 1020YOPC   NC311689   2.916  13.062   6.382 -0.0691  0.3857 -0.1183
 1020YOPC   PO411690   3.308  12.854   6.357  0.4457 -0.1451  0.0352
 1020YOPC   GL111691   3.400  12.667   6.812 -0.2701  0.1872 -0.0122
 1020YOPC   GL211692   3.749  12.478   6.881 -0.1903 -0.2625  0.1209
 1020YOPC   C1A11693   3.196  12.330   7.054  0.3244 -0.2374 -0.1083
 1020YOPC   D2A11694   3.345  12.007   7.356  0.0383 -0.0675  0.0040
 1020YOPC   C3A11695   3.319  11.952   7.814  0.0443 -0.4816  0.0942
 1020YOPC   C4A11696   3.001  12.059   8.111  0.3127  0.1965 -0.1911
 1020YOPC   C1B11697   3.744  12.349   7.260  0.3042  0.1176  0.0143
 1020YOPC   C2B11698   3.639  12.346   7.742 -0.3650 -0.1797  0.0814
 1020YOPC   D3B11699   3.664  12.626   8.052 -0.0483  0.0003 -0.1203
 1020YOPC   C4B11700   3.807  12.846   8.402 -0.0667  0.1140  0.0678
 1021YOPC   NC311701   3.297   9.471   6.658  0.0077 -0.4768 -0.1680
 1021YOPC   PO411702   3.617   9.728   6.404 -0.3981  0.1182  0.2011
 1021YOPC   GL111703   3.650   9.818   6.851  0.4004  0.3409  0.1034
 1021YOPC   GL211704   3.823   9.613   6.870 -0.4274 -0.1368  0.0197
 1021YOPC   C1A11705   3.573   9.957   7.184  0.1960  0.1908 -0.1192
 1021YOPC   D2A11706   3.493  10.364   7.395  0.1483 -0.1308  0.1324
 1021YOPC   C3A11707   3.536  10.344   7.861 -0.3716 -0.1481  0.2784
 1021YOPC   C4A11708   3.733  10.047   8.181  0.1562 -0.0879 -0.4038
 1021YOPC   C1B11709   3.935   9.635   7.364  0.1780  0.0602  0.2665
 1021YOPC   C2B11710   4.005   9.810   7.852 -0.0933  0.1957  0.1373
 1021YOPC   D3B11711   4.079   9.607   8.107  0.0081 -0.3295 -0.1773
 1021YOPC   C4B11712   4.126   9.265   8.309  0.2184 -0.1190  0.1560
 1022YOPC   NC311713  15.077   8.005   6.308 -0.2353 -0.0772  0.0893
 1022YOPC   PO411714  14.872   8.064   6.695 -0.1479  0.1112  0.0224
 1022YOPC   GL111715  14.913   8.101   7.154  0.1603  0.3793 -0.0309
 1022YOPC   GL211716  14.793   7.785   7.221  0.0201  0.0355  0.3814
 1022YOPC   C1A11717  14.832   8.109   7.663  0.3853 -0.1504  0.0716
 1022YOPC   D2A11718  14.801   7.961   8.102  0.1116  0.1186 -0.1233
 1022YOPC   C3A11719  14.811   8.203   8.598 -0.1807 -0.0476  0.0058
 1022YOPC   C4A11720  14.638   8.056   9.005  0.3435  0.0156  0.1008
 1022YOPC   C1B11721  14.441   7.628   7.500 -0.0292 -0.1493 -0.1622
 1022YOPC   C2B11722  14.268   7.605   7.917  0.1752  0.1389  0.0115
 1022YOPC   D3B11723  14.591   7.501   8.184  0.0688 -0.1098 -0.4130
 1022YOPC   C4B11724  14.869   7.544   8.476  0.0475 -0.1190 -0.0287
 1023YOPC   NC311725  14.550  16.606   5.680 -0.1161  0.0501 -0.1649
 1023YOPC   PO411726  14.556  16.972   5.639  0.0334  0.0136 -0.1516
 1023YOPC   GL111727  14.221  16.818   5.963 -0.0692 -0.1252 -0.0174
 1023YOPC   GL211728  14.199  16.594   6.023  0.0484 -0.2162 -0.1854
 1023YOPC   C1A11729  14.103  17.083   6.333 -0.1289 -0.0800  0.0737
 1023YOPC   D2A11730  13.913  17.257   6.653 -0.0405  0.2358  0.3941
 1023YOPC   C3A11731  14.011  17.236   7.100  0.2712  0.1283 -0.0089
 1023YOPC   C4A11732  14.229  17.356   7.508 -0.1459  0.1790 -0.0083
 1023YOPC   C1B11733  14.500  16.731   6.373  0.2279 -0.0249  0.2530
 1023YOPC   C2B11734  14.767  17.028   6.537 -0.0266  0.2459  0.1797
 1023YOPC   D3B11735  14.793  17.027   6.929  0.3159 -0.0926 -0.1610
 1023YOPC   C4B11736  14.542  16.975   7.290 -0.1543 -0.2484 -0.1745
 1024YOPC   NC311737  17.600  15.790   6.551 -0.3182  0.2629  0.2636
 1024YOPC   PO411738  17.302  15.849   6.357 -0.0617 -0.3907  0.1523
 1024YOPC   GL111739  17.170  15.960   6.759 -0.0518  0.0574  0.3343
 1024YOPC   GL211740  17.398  16.007   6.971 -0.0378 -0.0351  0.1232
 1024YOPC   C1A11741  16.851  16.117   6.947 -0.5016  0.0906  0.2637
 1024YOPC   D2A11742  16.540  16.160   7.327 -0.1959 -0.1984 -0.0416
 1024YOPC   C3A11743  16.707  16.107   7.786 -0.1380  0.1313  0.1790
 1024YOPC   C4A11744  16.628  15.699   7.821 -0.1381 -0.0644 -0.1257
 1024YOPC   C1B11745  17.456  15.925   7.408  0.1256  0.1291  0.1264
 1024YOPC   C2B11746  17.670  15.785   7.695  0.1265 -0.3315  0.0297
 1024YOPC   D3B11747  17.749  15.961   8.098 -0.2866  0.0957 -0.0411
 1024YOPC   C4B11748  17.502  16.018   8.471  0.0774  0.1748  0.3346
 1025YOPC   NC311749   7.688   3.990   5.702 -0.4485  0.1536 -0.3078
 1025YOPC   PO411750   8.116   3.838   5.582  0.0075  0.0364  0.0328
 1025YOPC   GL111751   7.932   3.460   5.849  0.3562 -0.0913 -0.2085
 1025YOPC   GL211752   7.527   3.477   5.913  0.0969  0.1926 -0.2388
 1025YOPC   C1A11753   7.891   3.071   6.212  0.0241  0.1755 -0.0474
 1025YOPC   D2A11754   8.181   3.092   6.623  0.3232 -0.2005 -0.0775
 1025YOPC   C3A11755   8.424   3.067   6.917  0.2144  0.0021 -0.3750
 1025YOPC   C4A11756   8.636   3.100   7.452  0.2419  0.1011 -0.0615
 1025YOPC   C1B11757   7.370   2.978   6.013 -0.0287 -0.0716  0.0485
 1025YOPC   C2B11758   7.130   2.795   6.261 -0.3680  0.1447  0.1644
 1025YOPC   D3B11759   7.024   2.709   6.712  0.1893  0.0852  0.0238
 1025YOPC   C4B11760   7.080   2.698   7.185 -0.2645 -0.0922  0.1411
 1026YOPC   NC311761   7.137   5.161   5.675  0.2360  0.2706  0.2992
 1026YOPC   PO411762   7.377   5.027   6.068  0.2064 -0.2188 -0.2541
 1026YOPC   GL111763   7.321   4.629   6.405 -0.1097  0.2177 -0.0259
 1026YOPC   GL211764   6.963   4.679   6.426  0.0245  0.2252 -0.1292
 1026YOPC   C1A11765   7.390   4.523   6.800  0.0160 -0.1313  0.1213
 1026YOPC   D2A11766   7.396   4.788   7.210 -0.1493 -0.0907  0.2118
 1026YOPC   C3A11767   7.743   4.951   7.414 -0.3150 -0.0832 -0.1505
 1026YOPC   C4A11768   7.997   4.857   7.846 -0.0774  0.1917 -0.0415
 1026YOPC   C1B11769   6.887   4.485   6.816 -0.2130  0.0690 -0.1194
 1026YOPC   C2B11770   6.883   4.664   7.229  0.0150 -0.1213 -0.0164
 1026YOPC   D3B11771   7.132   4.659   7.645  0.3183 -0.0502  0.1483
 1026YOPC   C4B11772   7.190   4.501   8.059 -0.2194 -0.0734  0.2154
 1027YOPC   NC311773   8.559   9.326   6.757  0.0187 -0.1171  0.2299
 1027YOPC   PO411774   9.015   9.163   6.699 -0.0767 -0.0459  0.1308
 1027YOPC   GL111775   8.897   9.218   7.201  0.1183  0.1137  0.0008
 1027YOPC   GL211776   8.770   9.537   7.263 -0.3319 -0.1305  0.0459
 1027YOPC   C1A11777   8.985   9.188   7.564  0.4077  0.1883 -0.1299
 1027YOPC   D2A11778   9.131   9.289   7.959  0.0731  0.1456 -0.1623
 1027YOPC   C3A11779   9.240   8.898   8.105  0.3634 -0.6080 -0.0788
 1027YOPC   C4A11780   9.278   8.655   8.468 -0.2044  0.1159 -0.1536
 1027YOPC   C1B11781   8.608   9.438   7.731 -0.1029 -0.2175  0.0493
 1027YOPC   C2B11782   8.635   9.442   8.064 -0.0138  0.0836 -0.1135
 1027YOPC   D3B11783   8.371   9.120   8.262 -0.2725  0.1130  0.1544
 1027YOPC   C4B11784   8.249   9.210   8.721  0.0895 -0.3072  0.1854
 1028YOPC   NC311785  14.719  10.668   6.439  0.1500 -0.0920 -0.0088
 1028YOPC   PO411786  14.870  10.255   6.455 -0.0931 -0.0112  0.1089
 1028YOPC   GL111787  14.784  10.275   6.818  0.0412  0.1399  0.0483
 1028YOPC   GL211788  14.829   9.970   6.861  0.2018  0.1609 -0.0118
 1028YOPC   C1A11789  14.788  10.605   7.156 -0.0513 -0.1173 -0.0490
 1028YOPC   D2A11790  14.764  10.607   7.583 -0.0820 -0.1426 -0.2159
 1028YOPC   C3A11791  14.501  10.713   7.891 -0.0832 -0.1988  0.2889
 1028YOPC   C4A11792  14.647  10.812   8.265  0.1505 -0.2094 -0.0446
 1028YOPC   C1B11793  15.017  10.165   7.310  0.0642 -0.1986  0.2554
 1028YOPC   C2B11794  14.934  10.152   7.724 -0.0178 -0.1262 -0.1617
 1028YOPC   D3B11795  14.928  10.323   8.051 -0.1012 -0.5081  0.0317
 1028YOPC   C4B11796  14.881  10.266   8.548  0.2898  0.1202  0.0771
 1029YOPC   NC311797   5.950   0.090   5.586 -0.0898  0.1255  0.0583
 1029YOPC   PO411798   5.839  -0.400   5.709 -0.1020  0.2737  0.1202
 1029YOPC   GL111799   5.917  -0.307   6.197 -0.0212 -0.2906 -0.0771
 1029YOPC   GL211800   5.746  -0.513   6.376  0.0101 -0.0618  0.1692
 1029YOPC   C1A11801   6.104  -0.205   6.646  0.0077 -0.2817  0.1943
 1029YOPC   D2A11802   6.195   0.087   6.939 -0.1013  0.2538  0.2710
 1029YOPC   C3A11803   6.652   0.091   7.131 -0.0042 -0.0860 -0.1883
 1029YOPC   C4A11804   7.084   0.158   7.017 -0.0082 -0.0223  0.0563
 1029YOPC   C1B11805   5.706  -0.527   6.762  0.0027  0.0047 -0.3068
 1029YOPC   C2B11806   5.850  -0.277   7.150 -0.1799 -0.1514 -0.0902
 1029YOPC   D3B11807   5.776   0.120   7.257  0.0842  0.0839 -0.1247
 1029YOPC   C4B11808   5.818   0.408   7.665 -0.2564 -0.0337  0.0162
 1030YOPC   NC311809  11.923  15.795   5.510 -0.0151 -0.0056  0.1348
 1030YOPC   PO411810  11.790  16.131   5.607 -0.3141 -0.1465  0.1831
 1030YOPC   GL111811  11.629  16.419   5.850  0.1572  0.0237 -0.0005
 1030YOPC   GL211812  11.351  16.413   6.013  0.1148  0.0482 -0.1663
 1030YOPC   C1A11813  11.625  16.769   6.101 -0.3613 -0.4837  0.0224
 1030YOPC   D2A11814  11.806  17.015   6.418  0.0630  0.0739  0.1178
 1030YOPC   C3A11815  11.695  17.339   6.724 -0.3567 -0.0416  0.3180
 1030YOPC   C4A11816  11.334  17.363   7.060 -0.2247  0.0900  0.3053
 1030YOPC   C1B11817  11.460  16.465   6.423  0.0347  0.2458 -0.0344
 1030YOPC   C2B11818  11.219  16.386   6.747  0.1688 -0.0615 -0.0004
 1030YOPC   D3B11819  11.406  16.439   7.092  0.2669 -0.3363 -0.1950
 1030YOPC   C4B11820  11.522  16.692   7.522  0.2903  0.0337  0.4647
 1031YOPC   NC311821   8.210  12.357   6.329 -0.1446 -0.1645  0.0978
 1031YOPC   PO411822   8.063  12.789   6.159 -0.1388  0.1661  0.0315
 1031YOPC   GL111823   8.209  12.833   6.551 -0.3751 -0.1410 -0.3229
 1031YOPC   GL211824   8.428  12.539   6.700 -0.2160  0.0571 -0.0719
 1031YOPC   C1A11825   8.368  12.998   7.025 -0.1132  0.2259 -0.1006
 1031YOPC   D2A11826   8.497  13.024   7.406  0.1054  0.0950  0.1132
 1031YOPC   C3A11827   8.339  13.317   7.673  0.0619 -0.0995  0.5632
 1031YOPC   C4A11828   8.420  13.474   7.982 -0.0648 -0.2754 -0.1448
 1031YOPC   C1B11829   8.523  12.489   7.168  0.1536 -0.0274 -0.2560
 1031YOPC   C2B11830   8.687  12.579   7.599  0.1526  0.0102 -0.0936
 1031YOPC   D3B11831   8.622  12.960   7.841  0.2156 -0.0231 -0.2441
 1031YOPC   C4B11832   8.738  12.903   8.247 -0.0094 -0.0643 -0.0169
 1032YOPC   NC311833  16.107  10.896   6.418 -0.1897  0.1385 -0.0260
 1032YOPC   PO411834  16.297  10.707   6.619 -0.1308  0.0372 -0.0237
 1032YOPC   GL111835  16.363  10.587   6.975  0.2606  0.0634  0.1314
 1032YOPC   GL211836  16.717  10.735   6.934 -0.0947 -0.0869  0.0388
 1032YOPC   C1A11837  16.450  10.719   7.385 -0.2415 -0.4184  0.0226
 1032YOPC   D2A11838  16.448  10.782   7.843  0.0261 -0.0681  0.1163
 1032YOPC   C3A11839  16.592  10.738   8.209  0.1146  0.0260 -0.0061
 1032YOPC   C4A11840  16.510  10.466   8.564  0.1906  0.0862 -0.2539
 1032YOPC   C1B11841  16.760  11.069   7.251 -0.0160  0.1204  0.2142
 1032YOPC   C2B11842  16.836  11.084   7.641  0.0003  0.2398 -0.0608
 1032YOPC   D3B11843  16.580  11.185   8.037 -0.1700 -0.0523 -0.0615
 1032YOPC   C4B11844  16.757  11.502   8.251 -0.2887 -0.1542  0.0635
 1033YOPC   NC311845  16.747  10.961   6.519  0.1685  0.0380 -0.1403
 1033YOPC   PO411846  16.451  11.253   6.401  0.1405  0.0686  0.0078
 1033YOPC   GL111847  16.355  11.214   6.772  0.2338 -0.1246  0.0855
 1033YOPC   GL211848  16.070  11.105   6.837 -0.0218 -0.4226 -0.0073
 1033YOPC   C1A11849  16.361  11.472   7.163  0.1723  0.1424 -0.2258
 1033YOPC   D2A11850  16.655  11.643   7.433  0.2030  0.3881  0.1744
 1033YOPC   C3A11851  16.593  11.620   7.808 -0.2285  0.2326 -0.1132
 1033YOPC   C4A11852  16.309  11.764   8.122 -0.2769  0.1797  0.1522
 1033YOPC   C1B11853  16.040  11.057   7.244 -0.0030  0.1872 -0.2406
 1033YOPC   C2B11854  16.331  11.229   7.620  0.1106  0.4241  0.1411
 1033YOPC   D3B11855  16.102  11.116   8.002  0.2824  0.1715 -0.1713
 1033YOPC   C4B11856  16.081  10.882   8.455  0.0951 -0.1357  0.3513
 1034YOPC   NC311857   2.384  11.231   6.128  0.2701 -0.1938  0.1313
 1034YOPC   PO411858   2.199  11.573   6.125 -0.0149 -0.2022 -0.2086
 1034YOPC   GL111859   2.221  11.724   6.514  0.0297 -0.3520  0.0610
 1034YOPC   GL211860   2.571  11.944   6.620  0.2269 -0.1201  0.0566
 1034YOPC   C1A11861   2.006  11.821   6.890 -0.2610 -0.2479  0.1465
 1034YOPC   D2A11862   1.719  11.820   7.123 -0.0168 -0.0373  0.0986
 1034YOPC   C3A11863   1.767  12.133   7.429 -0.1177  0.1626 -0.1681
 1034YOPC   C4A11864   1.588  12.195   7.829  0.2559  0.0445 -0.4841
 1034YOPC   C1B11865   2.644  11.550   6.836  0.0140 -0.0306  0.3238
 1034YOPC   C2B11866   2.668  11.419   7.266 -0.2843 -0.1389 -0.2776
 1034YOPC   D3B11867   2.412  11.423   7.664 -0.0287  0.2196  0.1163
 1034YOPC   C4B11868   2.524  11.211   8.028  0.0706 -0.3602 -0.2074
 1035YOPC   NC311869  15.075   6.508   6.529 -0.3231  0.0900  0.1177
 1035YOPC   PO411870  15.151   6.183   6.325  0.0951  0.1751 -0.2445
 1035YOPC   GL111871  14.943   5.936   6.625 -0.4295 -0.2492  0.0013
 1035YOPC   GL211872  14.869   5.632   6.520 -0.0460  0.1939 -0.1020
 1035YOPC   C1A11873  14.946   5.936   7.104  0.1820 -0.3795 -0.0321
 1035YOPC   D2A11874  14.991   5.858   7.569  0.0636 -0.0022  0.1846
 1035YOPC   C3A11875  15.308   5.697   7.783 -0.1381  0.3011  0.0602
 1035YOPC   C4A11876  15.428   5.443   7.997  0.1140  0.1927 -0.1731
 1035YOPC   C1B11877  14.863   5.496   6.922 -0.2394  0.0383 -0.2520
 1035YOPC   C2B11878  14.621   5.530   7.297  0.3769 -0.0975  0.2171
 1035YOPC   D3B11879  14.485   5.463   7.662 -0.1074 -0.4601 -0.0005
 1035YOPC   C4B11880  14.281   5.246   7.979  0.0455 -0.4272  0.1008
 1036YOPC   NC311881   1.274  11.951   6.286 -0.2410 -0.0998  0.5242
 1036YOPC   PO411882   0.963  11.533   6.384 -0.0841 -0.0372  0.2030
 1036YOPC   GL111883   0.951  11.808   6.604 -0.1757 -0.0809 -0.4064
 1036YOPC   GL211884   0.736  11.885   6.817  0.0925  0.1329 -0.2289
 1036YOPC   C1A11885   1.199  11.823   7.064  0.0292 -0.1371 -0.2380
 1036YOPC   D2A11886   1.303  11.939   7.476  0.1781 -0.0410 -0.1761
 1036YOPC   C3A11887   1.279  11.676   7.820  0.0106 -0.1695 -0.2243
 1036YOPC   C4A11888   1.559  11.320   8.009  0.1499 -0.2920 -0.1585
 1036YOPC   C1B11889   0.759  11.844   7.308  0.0607  0.3137  0.1073
 1036YOPC   C2B11890   0.644  11.899   7.738 -0.2028  0.2449  0.3897
 1036YOPC   D3B11891   0.772  11.827   8.090  0.1453  0.0428 -0.1131
 1036YOPC   C4B11892   0.924  12.010   8.497 -0.0016  0.1131 -0.0133
 1037YOPC   NC311893  16.525   1.417   6.283  0.3973  0.2524 -0.3105
 1037YOPC   PO411894  16.924   1.187   6.219  0.0743  0.2463  0.1101
 1037YOPC   GL111895  16.875   1.256   6.707 -0.2215 -0.1605  0.0805
 1037YOPC   GL211896  16.696   1.423   6.749 -0.0341  0.0103 -0.0897
 1037YOPC   C1A11897  16.921   1.210   7.159  0.1421 -0.1212  0.0869
 1037YOPC   D2A11898  16.778   1.145   7.584 -0.0443  0.3989  0.0327
 1037YOPC   C3A11899  16.836   0.867   7.939 -0.0287 -0.2567  0.3833
 1037YOPC   C4A11900  16.840   0.481   8.144  0.1587 -0.1705 -0.1777
 1037YOPC   C1B11901  16.463   1.678   6.964  0.2493  0.1996 -0.0066
 1037YOPC   C2B11902  16.332   1.900   7.341 -0.1629 -0.1265 -0.0466
 1037YOPC   D3B11903  16.011   1.788   7.617 -0.0874 -0.3177 -0.1645
 1037YOPC   C4B11904  15.544   1.956   7.776 -0.2086 -0.2237  0.0789
 1038YOPC   NC311905  15.540   1.089   5.424 -0.0964 -0.0914  0.0783
 1038YOPC   PO411906  15.228   1.346   5.698  0.0113  0.0621  0.2107
 1038YOPC   GL111907  15.179   1.410   6.145 -0.0549  0.1386  0.4035
 1038YOPC   GL211908  14.960   1.155   6.240  0.0658 -0.1807 -0.3879
 1038YOPC   C1A11909  14.974   1.612   6.431  0.0528  0.2381 -0.1583
 1038YOPC   D2A11910  14.827   2.023   6.558 -0.3010 -0.1249 -0.0409
 1038YOPC   C3A11911  14.972   2.485   6.526 -0.1810 -0.1111  0.0365
 1038YOPC   C4A11912  14.671   2.814   6.438 -0.0554 -0.2274 -0.0446
 1038YOPC   C1B11913  14.906   0.868   6.604 -0.0682 -0.3555 -0.0465
 1038YOPC   C2B11914  15.029   0.733   7.052 -0.0468  0.2950  0.0562
 1038YOPC   D3B11915  15.389   0.366   7.028 -0.0302 -0.1402  0.1044
 1038YOPC   C4B11916  15.795   0.422   7.114 -0.0022  0.1435  0.1051
 1039YOPC   NC311917   8.907  16.993   5.471 -0.3289 -0.0168  0.3366
 1039YOPC   PO411918   8.468  17.257   5.472 -0.0701 -0.0206  0.0175
 1039YOPC   GL111919   8.181  17.203   5.756  0.0900  0.0775 -0.1114
 1039YOPC   GL211920   8.156  17.588   5.827 -0.1825 -0.0312  0.1146
 1039YOPC   C1A11921   8.013  16.955   6.007  0.1766  0.0056 -0.0936
 1039YOPC   D2A11922   7.976  16.760   6.436  0.1531 -0.0796  0.0674
 1039YOPC   C3A11923   8.084  16.230   6.396  0.0805  0.0903 -0.1091
 1039YOPC   C4A11924   8.149  15.749   6.508  0.2291  0.2201 -0.2742
 1039YOPC   C1B11925   8.374  17.489   6.144 -0.1656 -0.1034  0.0349
 1039YOPC   C2B11926   8.415  17.675   6.566  0.0967  0.0571 -0.4164
 1039YOPC   D3B11927   8.664  17.456   6.911 -0.2761 -0.0516 -0.3702
 1039YOPC   C4B11928   8.795  17.292   7.273 -0.0384  0.4364 -0.2736
 1040YOPC   NC311929  16.270   8.444   6.384  0.2322 -0.2582  0.0986
 1040YOPC   PO411930  15.866   8.334   6.619 -0.0692  0.0941  0.1002
 1040YOPC   GL111931  16.234   8.246   6.816  0.0882 -0.0616  0.0678
 1040YOPC   GL211932  16.192   7.860   6.900  0.1809 -0.1128 -0.0682
 1040YOPC   C1A11933  16.221   8.331   7.163 -0.0461  0.2036  0.1949
 1040YOPC   D2A11934  16.585   8.605   7.306 -0.1159  0.0920  0.1679
 1040YOPC   C3A11935  16.484   8.742   7.755  0.0291 -0.2621 -0.0193
 1040YOPC   C4A11936  16.722   8.977   8.091  0.1151 -0.2301  0.0532
 1040YOPC   C1B11937  16.248   7.579   7.122 -0.0571 -0.2488 -0.2066
 1040YOPC   C2B11938  16.115   7.236   7.416 -0.1331  0.3456  0.0721
 1040YOPC   D3B11939  16.263   7.365   7.811 -0.0662  0.2328 -0.2681
 1040YOPC   C4B11940  16.152   7.430   8.182 -0.0922 -0.0935  0.1445
 1041YOPC   NC311941  12.286  16.259   5.682 -0.1663 -0.3661 -0.2545
 1041YOPC   PO411942  12.438  15.995   5.449  0.2753  0.2533  0.1327
 1041YOPC   GL111943  12.522  15.839   5.882  0.1589  0.1991 -0.0192
 1041YOPC   GL211944  12.752  16.179   5.965  0.2423 -0.0130 -0.0464
 1041YOPC   C1A11945  12.645  15.709   6.263 -0.0330 -0.3468  0.0206
 1041YOPC   D2A11946  12.683  15.384   6.487 -0.0084 -0.1736 -0.0827
 1041YOPC   C3A11947  12.947  15.406   6.796 -0.2871  0.1685  0.2157
 1041YOPC   C4A11948  13.042  15.547   7.227  0.0367  0.0197 -0.2636
 1041YOPC   C1B11949  12.459  16.251   6.357 -0.1490  0.1923 -0.3474
 1041YOPC   C2B11950  12.384  16.287   6.747 -0.2308  0.1381  0.2890
 1041YOPC   D3B11951  12.224  16.121   7.031  0.0482 -0.0694  0.0083
 1041YOPC   C4B11952  11.850  16.067   7.315 -0.2934 -0.2848  0.1213
 1042YOPC   NC311953   7.758  13.071   6.492  0.1772  0.0622  0.2847
 1042YOPC   PO411954   8.102  13.277   6.297 -0.0025  0.0102  0.0709
 1042YOPC   GL111955   7.993  13.391   6.730  0.0403  0.0181 -0.3563
 1042YOPC   GL211956   8.134  13.604   6.879 -0.1997 -0.0754  0.0516
 1042YOPC   C1A11957   7.961  13.211   7.221  0.3148 -0.0130 -0.0295
 1042YOPC   D2A11958   7.765  13.269   7.646 -0.1365  0.0199  0.1141
 1042YOPC   C3A11959   7.837  13.560   7.958 -0.2208 -0.1661 -0.1990
 1042YOPC   C4A11960   8.115  13.723   8.262  0.2475  0.1506 -0.3051
 1042YOPC   C1B11961   8.349  13.492   7.156  0.1079 -0.0190 -0.1160
 1042YOPC   C2B11962   8.522  13.673   7.364  0.2277  0.0611 -0.0521
 1042YOPC   D3B11963   8.603  14.052   7.216  0.0255  0.0090 -0.0124
 1042YOPC   C4B11964   8.616  14.418   7.056 -0.0423 -0.2020  0.0794
 1043YOPC   NC311965   6.857   7.819   6.360 -0.0970  0.0125 -0.1427
 1043YOPC   PO411966   7.239   7.831   6.594  0.0542 -0.3602 -0.2126
 1043YOPC   GL111967   7.300   8.177   6.774  0.2095  0.3194  0.2247
 1043YOPC   GL211968   7.602   8.231   6.995 -0.0813  0.2995 -0.1320
 1043YOPC   C1A11969   7.191   8.309   7.226 -0.0599  0.0101  0.0307
 1043YOPC   D2A11970   7.128   8.316   7.563 -0.2525 -0.0904 -0.2444
 1043YOPC   C3A11971   7.416   8.383   7.857 -0.2874  0.1277  0.1321
 1043YOPC   C4A11972   7.831   8.237   7.973  0.1390 -0.1297  0.0191
 1043YOPC   C1B11973   7.710   8.337   7.358 -0.2329  0.0257 -0.0964
 1043YOPC   C2B11974   7.828   8.702   7.714  0.2311 -0.1365 -0.0819
 1043YOPC   D3B11975   7.695   8.706   8.077 -0.2200  0.0839  0.0087
 1043YOPC   C4B11976   7.511   9.004   8.382 -0.0265  0.3716 -0.2104
 1044YOPC   NC311977  14.898  12.765   6.158  0.1277 -0.0461 -0.2302
 1044YOPC   PO411978  14.668  13.190   5.993 -0.0298 -0.1062  0.1861
 1044YOPC   GL111979  14.522  13.264   6.342 -0.3555 -0.1309 -0.0832
 1044YOPC   GL211980  14.624  13.003   6.515 -0.1550  0.0653 -0.1153
 1044YOPC   C1A11981  14.508  13.362   6.801 -0.1098 -0.0325 -0.1558
 1044YOPC   D2A11982  14.505  13.747   7.131 -0.1178 -0.1098 -0.0434
 1044YOPC   C3A11983  14.491  13.996   7.494  0.1037  0.1286 -0.2113
 1044YOPC   C4A11984  14.728  13.915   7.868 -0.4085 -0.1954 -0.4252
 1044YOPC   C1B11985  14.494  12.667   6.794  0.0074  0.2361 -0.2132
 1044YOPC   C2B11986  14.436  12.442   7.222  0.0810 -0.0457  0.0946
 1044YOPC   D3B11987  14.489  12.632   7.584 -0.0758  0.0940 -0.1349
 1044YOPC   C4B11988  14.653  13.066   7.684  0.2005 -0.2205 -0.3422
 1045YOPC   NC311989  12.725  13.794   5.978  0.0314  0.3684  0.1640
 1045YOPC   PO411990  12.908  14.251   6.120 -0.1146  0.6547 -0.0403
 1045YOPC   GL111991  13.006  14.410   6.583  0.3796  0.1367  0.0942
 1045YOPC   GL211992  12.733  14.434   6.602  0.5645  0.1068 -0.1636
 1045YOPC   C1A11993  13.009  14.539   6.974  0.1913  0.0866 -0.0623
 1045YOPC   D2A11994  12.798  14.508   7.341  0.0360  0.1670 -0.2217
 1045YOPC   C3A11995  12.765  14.678   7.616 -0.1348  0.1240  0.1387
 1045YOPC   C4A11996  12.659  14.847   7.847 -0.2510  0.1309 -0.1090
 1045YOPC   C1B11997  12.498  14.349   6.960 -0.1552 -0.1156 -0.1680
 1045YOPC   C2B11998  12.405  14.254   7.336  0.1420  0.3842 -0.2652
 1045YOPC   D3B11999  12.580  14.220   7.706  0.3463  0.1841 -0.2033
 1045YOPC   C4B12000  12.711  14.017   8.071 -0.1229 -0.0924 -0.1635
 1046YOPC   NC312001  12.723   7.172   6.417 -0.3997  0.1256 -0.0059
 1046YOPC   PO412002  12.688   7.657   6.519  0.0017  0.1226 -0.0346
 1046YOPC   GL112003  12.799   7.563   6.948  0.0047 -0.1786  0.2146
 1046YOPC   GL212004  12.540   7.422   7.005 -0.1545 -0.0825 -0.1123
 1046YOPC   C1A12005  13.079   7.383   7.215  0.0141 -0.0090  0.0709
 1046YOPC   D2A12006  13.270   7.262   7.646 -0.0363  0.0444 -0.0121
 1046YOPC   C3A12007  13.427   7.448   8.084  0.0229 -0.1462 -0.2986
 1046YOPC   C4A12008  13.321   7.518   8.530 -0.0330  0.0165  0.4364
 1046YOPC   C1B12009  12.658   7.204   7.404  0.0089  0.1263 -0.3920
 1046YOPC   C2B12010  12.823   7.037   7.742  0.1771 -0.2785 -0.1696
 1046YOPC   D3B12011  12.819   6.623   7.783  0.0650  0.1531  0.0249
 1046YOPC   C4B12012  12.655   6.225   7.977  0.0632  0.0188  0.0702
 1047YOPC   NC312013   1.751  17.830   5.968  0.2392  0.0541 -0.1511
 1047YOPC   PO412014   1.350  17.882   6.138 -0.3221 -0.1194 -0.1375
 1047YOPC   GL112015   1.528  18.047   6.586  0.2223  0.4268  0.2134
 1047YOPC   GL212016   1.635  18.294   6.728  0.5082 -0.1409  0.1924
 1047YOPC   C1A12017   1.779  17.955   6.978 -0.2753  0.0237 -0.2975
 1047YOPC   D2A12018   2.035  17.760   7.069 -0.0578  0.0369  0.1326
 1047YOPC   C3A12019   2.169  17.639   7.482  0.0324  0.3997 -0.1868
 1047YOPC   C4A12020   2.273  17.890   7.843 -0.1573 -0.1294 -0.0077
 1047YOPC   C1B12021   1.650  18.595   7.159 -0.0023 -0.0062  0.3352
 1047YOPC   C2B12022   1.615  18.575   7.598 -0.0427 -0.0639  0.2987
 1047YOPC   D3B12023   1.531  18.646   8.061  0.0315  0.1422  0.1390
 1047YOPC   C4B12024   1.148  18.705   8.181  0.0925 -0.1977 -0.0508
 1048YOPC   NC312025  11.503   2.829   5.837 -0.1622 -0.0198 -0.1697
 1048YOPC   PO412026  11.094   2.584   5.730  0.0954  0.2380 -0.2455
 1048YOPC   GL112027  11.009   2.529   6.176  0.1691 -0.1562 -0.1957
 1048YOPC   GL212028  10.709   2.656   6.336 -0.0202  0.3189  0.0007
 1048YOPC   C1A12029  11.211   2.482   6.493 -0.1035 -0.2351 -0.0195
 1048YOPC   D2A12030  11.324   2.083   6.508 -0.0852  0.1521 -0.1840
 1048YOPC   C3A12031  11.727   1.947   6.530 -0.2067 -0.0037 -0.0726
 1048YOPC   C4A12032  11.843   1.814   6.931  0.2012 -0.0368  0.1810
 1048YOPC   C1B12033  10.830   2.649   6.756  0.1389  0.0661  0.1417
 1048YOPC   C2B12034  11.150   2.361   6.979  0.0641  0.0057  0.0372
 1048YOPC   D3B12035  11.191   1.921   6.961  0.1166  0.0398  0.0485
 1048YOPC   C4B12036  11.390   1.528   6.889 -0.0679  0.0543  0.0519
 1049YOPC   NC312037   7.304  10.492   6.544  0.1398  0.0956  0.0047
 1049YOPC   PO412038   7.416  10.077   6.669 -0.1121  0.1508  0.1423
 1049YOPC   GL112039   7.108   9.883   6.915  0.0764 -0.0793  0.0493
 1049YOPC   GL212040   7.280   9.541   6.974  0.1765 -0.3980 -0.0910
 1049YOPC   C1A12041   7.026  10.075   7.363 -0.0700  0.1158 -0.1451
 1049YOPC   D2A12042   6.794  10.050   7.844 -0.2458 -0.4733 -0.0587
 1049YOPC   C3A12043   6.986   9.828   8.264  0.2743  0.0097 -0.1368
 1049YOPC   C4A12044   6.982  10.014   8.706 -0.1712  0.1541  0.1921
 1049YOPC   C1B12045   7.349   9.710   7.346 -0.0190 -0.1463  0.1365
 1049YOPC   C2B12046   7.216   9.844   7.811 -0.0329 -0.3933 -0.0329
 1049YOPC   D3B12047   7.333  10.176   8.109 -0.2177  0.3105 -0.0346
 1049YOPC   C4B12048   7.417  10.160   8.553  0.2473 -0.1636 -0.0310
 1050YOPC   NC312049   0.979  10.451   6.398  0.0938  0.0802 -0.4384
 1050YOPC   PO412050   1.461  10.773   6.422  0.0173 -0.0408 -0.0347
 1050YOPC   GL112051   1.252  10.894   6.805  0.1851  0.2193  0.1860
 1050YOPC   GL212052   0.995  10.657   6.834 -0.0509 -0.0747  0.0242
 1050YOPC   C1A12053   1.321  11.254   7.027  0.2291  0.1901  0.2601
 1050YOPC   D2A12054   1.427  11.476   7.329 -0.1680 -0.2168 -0.0761
 1050YOPC   C3A12055   1.778  11.663   7.673 -0.3303  0.1630  0.0715
 1050YOPC   C4A12056   2.137  11.895   7.758  0.1172 -0.1155  0.1876
 1050YOPC   C1B12057   0.884  10.882   7.194  0.0570  0.2409 -0.0021
 1050YOPC   C2B12058   0.602  10.806   7.506 -0.1810 -0.0070 -0.0274
 1050YOPC   D3B12059   0.615  10.834   7.980  0.0580  0.3215 -0.0742
 1050YOPC   C4B12060   0.761  11.069   8.344 -0.1807  0.1462  0.0683
 1051YOPC   NC312061  15.713   7.081   6.436 -0.1386  0.0920 -0.2612
 1051YOPC   PO412062  15.891   7.495   6.543 -0.0431  0.0342 -0.2445
 1051YOPC   GL112063  15.558   7.292   6.888  0.0423 -0.3545  0.0869
 1051YOPC   GL212064  15.756   7.560   7.131  0.2406  0.0023  0.1843
 1051YOPC   C1A12065  15.265   7.206   7.269 -0.0913 -0.0010 -0.0571
 1051YOPC   D2A12066  15.313   7.325   7.690  0.1210 -0.0731  0.0670
 1051YOPC   C3A12067  14.948   7.110   7.911  0.0213 -0.3164  0.1061
 1051YOPC   C4A12068  14.996   6.994   8.342  0.2498 -0.1036 -0.0900
 1051YOPC   C1B12069  15.741   7.454   7.611 -0.3301 -0.0261 -0.1014
 1051YOPC   C2B12070  15.721   7.545   8.004  0.1995  0.2962  0.0629
 1051YOPC   D3B12071  15.789   7.932   8.175 -0.0789 -0.1019  0.0129
 1051YOPC   C4B12072  16.035   8.325   8.469  0.2186  0.1036 -0.1576
 1052YOPC   NC312073   9.839   7.767   6.441 -0.0960  0.2268  0.1866
 1052YOPC   PO412074  10.007   8.180   6.471 -0.0492  0.3160 -0.2866
 1052YOPC   GL112075  10.220   8.348   6.857  0.1385  0.3740 -0.1126
 1052YOPC   GL212076  10.215   8.667   6.895 -0.0303 -0.0035  0.0964
 1052YOPC   C1A12077  10.474   8.352   7.239 -0.2142  0.1985 -0.2352
 1052YOPC   D2A12078  10.623   8.092   7.503  0.0250 -0.0523 -0.6430
 1052YOPC   C3A12079  10.919   7.882   7.239  0.1503 -0.5972  0.0622
 1052YOPC   C4A12080  11.029   7.518   7.122 -0.1376 -0.0477  0.3251
 1052YOPC   C1B12081  10.367   8.807   7.296 -0.1337 -0.0199  0.0477
 1052YOPC   C2B12082  10.532   9.102   7.622 -0.4485  0.2306  0.0510
 1052YOPC   D3B12083  10.683   9.537   7.573  0.0741 -0.4154  0.0828
 1052YOPC   C4B12084  10.926   9.795   7.726  0.0646 -0.3226 -0.2807
 1053YOPC   NC312085  17.286   0.892   6.043 -0.0309  0.1022 -0.1914
 1053YOPC   PO412086  17.495   1.280   6.199  0.1293 -0.2185 -0.0931
 1053YOPC   GL112087  17.742   1.222   6.633 -0.0245  0.1933  0.0905
 1053YOPC   GL212088  17.583   1.154   6.896  0.1157 -0.1409  0.1083
 1053YOPC   C1A12089  18.055   0.945   6.796 -0.2731 -0.2610 -0.3255
 1053YOPC   D2A12090  18.187   0.526   6.827  0.3052  0.0388 -0.2788
 1053YOPC   C3A12091  18.117   0.298   7.215 -0.2149 -0.3265 -0.0630
 1053YOPC   C4A12092  18.009   0.167   7.579 -0.1886 -0.3055  0.2781
 1053YOPC   C1B12093  17.396   1.093   7.253  0.1868  0.1168 -0.0168
 1053YOPC   C2B12094  17.312   0.891   7.622 -0.0207 -0.0620  0.1782
 1053YOPC   D3B12095  17.324   1.072   7.935 -0.1542  0.3198  0.1718
 1053YOPC   C4B12096  17.101   1.090   8.299  0.0697 -0.1895 -0.3950
 1054YOPC   NC312097   4.251  16.906   5.769  0.1271  0.1239  0.2215
 1054YOPC   PO412098   4.066  17.345   5.815  0.1620 -0.0631  0.1227
 1054YOPC   GL112099   3.948  17.006   6.177  0.1819  0.0666 -0.3675
 1054YOPC   GL212100   3.904  16.781   6.100  0.0036 -0.0780  0.1226
 1054YOPC   C1A12101   3.978  16.820   6.606 -0.0371 -0.0227  0.1414
 1054YOPC   D2A12102   3.838  16.451   6.811  0.1734 -0.0419  0.0963
 1054YOPC   C3A12103   3.579  16.523   7.161 -0.0213  0.2925 -0.1116
 1054YOPC   C4A12104   3.438  16.663   7.590 -0.1008 -0.0779  0.3813
 1054YOPC   C1B12105   3.780  16.330   6.340 -0.1033 -0.0059 -0.5094
 1054YOPC   C2B12106   3.529  16.058   6.617  0.0571 -0.1268 -0.0265
 1054YOPC   D3B12107   3.577  16.057   7.032 -0.2413 -0.0732 -0.0748
 1054YOPC   C4B12108   3.558  16.090   7.460  0.2969 -0.2096 -0.1050
 1055YOPC   NC312109   7.718  17.808   5.669 -0.1144  0.1448 -0.0168
 1055YOPC   PO412110   7.546  17.376   5.552  0.1707  0.0935  0.1588
 1055YOPC   GL112111   7.730  17.305   5.955  0.0710  0.2330  0.0681
 1055YOPC   GL212112   7.622  17.472   6.096  0.2490  0.0860  0.0330
 1055YOPC   C1A12113   7.974  17.348   6.414  0.1140  0.2457 -0.0243
 1055YOPC   D2A12114   7.826  17.516   6.823  0.1955 -0.0042  0.1271
 1055YOPC   C3A12115   7.726  17.358   7.194 -0.1004  0.1920 -0.0051
 1055YOPC   C4A12116   7.731  16.995   7.389 -0.1822  0.1982 -0.1020
 1055YOPC   C1B12117   7.589  17.748   6.452 -0.2220  0.3600  0.2863
 1055YOPC   C2B12118   8.022  17.961   6.622  0.2914  0.1842 -0.0368
 1055YOPC   D3B12119   8.212  17.743   7.027  0.0372  0.0874  0.1018
 1055YOPC   C4B12120   8.468  17.656   7.364 -0.1013  0.0255 -0.0022
 1056YOPC   NC312121   9.035  15.207   5.971 -0.0763  0.0057  0.0755
 1056YOPC   PO412122   9.198  15.641   5.738 -0.0459  0.2041  0.0985
 1056YOPC   GL112123   9.089  15.771   6.150 -0.1494  0.0231 -0.0560
 1056YOPC   GL212124   9.002  15.526   6.379 -0.3790 -0.2785 -0.1238
 1056YOPC   C1A12125   9.078  15.935   6.659 -0.1978  0.1129 -0.1226
 1056YOPC   D2A12126   8.884  15.840   7.103  0.3148 -0.0324  0.1309
 1056YOPC   C3A12127   8.878  16.160   7.492 -0.1149 -0.1104 -0.2895
 1056YOPC   C4A12128   8.999  16.535   7.464 -0.0360 -0.1050 -0.2310
 1056YOPC   C1B12129   9.042  15.471   6.837 -0.2612 -0.1275  0.1001
 1056YOPC   C2B12130   9.216  15.423   7.227 -0.2923  0.1906  0.2121
 1056YOPC   D3B12131   9.302  15.812   7.379 -0.0883  0.0622  0.1291
 1056YOPC   C4B12132   9.327  16.198   7.689 -0.0347  0.0164 -0.0887
 1057YOPC   NC312133   7.899  10.726   6.331  0.2078 -0.1303 -0.1208
 1057YOPC   PO412134   7.770  10.502   6.643  0.0463 -0.3501 -0.2568
 1057YOPC   GL112135   7.798  10.355   7.086  0.1036  0.2592 -0.0928
 1057YOPC   GL212136   7.488  10.210   7.184  0.3204 -0.0715 -0.0731
 1057YOPC   C1A12137   7.922  10.471   7.512 -0.1950 -0.2000  0.1263
 1057YOPC   D2A12138   8.052  10.154   7.765 -0.2080  0.0525  0.0893
 1057YOPC   C3A12139   8.065  10.168   8.223  0.0450 -0.1614  0.1380
 1057YOPC   C4A12140   8.182  10.272   8.611  0.0633  0.0369  0.1514
 1057YOPC   C1B12141   7.581  10.161   7.654 -0.4455  0.0153 -0.3239
 1057YOPC   C2B12142   7.668  10.480   7.961  0.0327  0.1051  0.0364
 1057YOPC   D3B12143   7.719  10.469   8.289  0.0734 -0.0885  0.0229
 1057YOPC   C4B12144   7.766  10.575   8.741 -0.1870  0.0673 -0.0559
 1058YOPC   NC312145   5.300  16.593   5.976 -0.3590  0.0159 -0.2336
 1058YOPC   PO412146   5.651  16.804   5.820  0.0030 -0.0674  0.1900
 1058YOPC   GL112147   5.910  17.042   6.038 -0.2502 -0.2192 -0.0747
 1058YOPC   GL212148   5.670  17.273   6.040  0.0114 -0.3458 -0.1079
 1058YOPC   C1A12149   6.191  16.916   6.217  0.0699  0.2560 -0.0660
 1058YOPC   D2A12150   6.650  17.128   6.165  0.0814 -0.0101 -0.1016
 1058YOPC   C3A12151   6.685  17.370   6.389  0.0040 -0.1466  0.1250
 1058YOPC   C4A12152   6.650  17.556   6.737  0.0649  0.3610  0.0738
 1058YOPC   C1B12153   5.647  17.225   6.477 -0.2220  0.2321 -0.1282
 1058YOPC   C2B12154   5.879  16.938   6.613 -0.0735  0.2706 -0.2930
 1058YOPC   D3B12155   6.055  16.748   6.970 -0.2243  0.1394 -0.0004
 1058YOPC   C4B12156   6.287  16.334   7.137  0.3539  0.0903  0.0898
 1059YOPC   NC312157   6.572   4.454   6.155  0.0580 -0.1176 -0.2002
 1059YOPC   PO412158   6.812   4.322   5.729  0.3393 -0.0280  0.0194
 1059YOPC   GL112159   7.110   4.298   6.166 -0.0016  0.3524  0.0068
 1059YOPC   GL212160   6.930   4.143   6.389  0.0211 -0.2469 -0.2736
 1059YOPC   C1A12161   7.414   4.123   6.432  0.2718  0.3783  0.1815
 1059YOPC   D2A12162   7.552   4.021   6.860  0.1717  0.0082 -0.1717
 1059YOPC   C3A12163   7.444   3.820   7.102 -0.1251  0.2963  0.1222
 1059YOPC   C4A12164   7.563   3.668   7.417  0.1945  0.2058 -0.0767
 1059YOPC   C1B12165   7.034   4.038   6.817 -0.1603 -0.0070  0.0297
 1059YOPC   C2B12166   7.090   4.126   7.276  0.0151  0.0915 -0.2033
 1059YOPC   D3B12167   7.467   4.264   7.373 -0.2059 -0.0158  0.2490
 1059YOPC   C4B12168   7.887   4.087   7.562 -0.1168  0.1739  0.0628
 1060YOPC   NC312169   4.810   7.595   6.606 -0.0687 -0.1060 -0.0961
 1060YOPC   PO412170   5.310   7.583   6.515  0.0284  0.0566 -0.2267
 1060YOPC   GL112171   5.280   7.775   6.845 -0.0827 -0.0818 -0.1004
 1060YOPC   GL212172   5.020   7.905   6.970 -0.3607  0.2838  0.0558
 1060YOPC   C1A12173   5.506   7.764   7.204 -0.0368  0.0430  0.0197
 1060YOPC   D2A12174   5.488   7.944   7.525  0.1701 -0.0882 -0.2240
 1060YOPC   C3A12175   5.340   7.573   7.805 -0.2118  0.1282 -0.0038
 1060YOPC   C4A12176   4.983   7.514   8.131 -0.0185 -0.0576 -0.0927
 1060YOPC   C1B12177   5.022   8.138   7.337  0.0145 -0.1108  0.3300
 1060YOPC   C2B12178   5.129   8.263   7.692 -0.1516 -0.0332  0.1407
 1060YOPC   D3B12179   5.329   8.024   8.018 -0.3180  0.2622 -0.1644
 1060YOPC   C4B12180   5.341   7.812   8.383  0.0981  0.3836  0.0868
 1061YOPC   NC312181  12.467  10.250   6.399 -0.1942 -0.0254 -0.1051
 1061YOPC   PO412182  12.107  10.211   6.651  0.1579 -0.0820 -0.0775
 1061YOPC   GL112183  12.090  10.152   7.056 -0.0129  0.0351 -0.1924
 1061YOPC   GL212184  11.775   9.941   7.245 -0.2686 -0.0147  0.4479
 1061YOPC   C1A12185  12.219  10.085   7.525 -0.0958 -0.2581 -0.1231
 1061YOPC   D2A12186  12.371  10.128   7.988  0.2486  0.0421  0.0410
 1061YOPC   C3A12187  12.458  10.181   8.386 -0.0103 -0.1975  0.0331
 1061YOPC   C4A12188  12.698  10.258   8.764  0.1827 -0.4334  0.0547
 1061YOPC   C1B12189  11.722  10.069   7.737  0.0959 -0.2480  0.1471
 1061YOPC   C2B12190  11.736  10.296   8.184  0.0883 -0.2248  0.0298
 1061YOPC   D3B12191  11.892  10.251   8.547  0.1300 -0.3214 -0.0296
 1061YOPC   C4B12192  12.184   9.935   8.739  0.1506 -0.0283  0.2089
 1062YOPC   NC312193   0.974  15.524   6.236 -0.0581  0.0452 -0.0257
 1062YOPC   PO412194   0.502  15.726   6.217  0.2511  0.0618  0.1619
 1062YOPC   GL112195   0.354  15.627   6.647  0.4304 -0.3724  0.0598
 1062YOPC   GL212196   0.300  15.893   6.877  0.1177  0.1229 -0.2076
 1062YOPC   C1A12197   0.475  15.422   7.033 -0.0991  0.3491  0.0485
 1062YOPC   D2A12198   0.908  15.260   7.356 -0.1015 -0.0340 -0.0605
 1062YOPC   C3A12199   1.275  15.496   7.420 -0.1688  0.2193 -0.1940
 1062YOPC   C4A12200   1.295  15.770   7.664 -0.1676 -0.1837  0.0377
 1062YOPC   C1B12201   0.322  15.792   7.298  0.1731  0.0342 -0.1902
 1062YOPC   C2B12202   0.420  15.353   7.534 -0.1602  0.2133 -0.0128
 1062YOPC   D3B12203   0.404  15.410   8.034  0.1669  0.2764 -0.2029
 1062YOPC   C4B12204   0.008  15.329   8.350 -0.2504 -0.2438 -0.0732
 1063YOPC   NC312205   2.045   9.539   6.505 -0.2735  0.1264  0.4059
 1063YOPC   PO412206   1.971   9.140   6.672  0.0255  0.0236 -0.0100
 1063YOPC   GL112207   1.867   9.273   6.974  0.0969  0.0452  0.2622
 1063YOPC   GL212208   1.903   9.628   7.027  0.1316 -0.1368  0.1814
 1063YOPC   C1A12209   1.860   9.112   7.382  0.2172  0.0351 -0.1401
 1063YOPC   D2A12210   1.772   9.138   7.752 -0.1078 -0.0152 -0.0298
 1063YOPC   C3A12211   1.764   9.277   8.086  0.2003  0.0006 -0.0229
 1063YOPC   C4A12212   1.713   9.577   8.391 -0.0076 -0.2578 -0.3449
 1063YOPC   C1B12213   1.828   9.600   7.442 -0.0910 -0.0178 -0.2664
 1063YOPC   C2B12214   1.777   9.792   7.855  0.0134 -0.3354  0.2690
 1063YOPC   D3B12215   1.761  10.173   8.062 -0.3415  0.1290 -0.0405
 1063YOPC   C4B12216   1.886  10.500   8.358  0.0302  0.0856 -0.0141
 1064YOPC   NC312217  15.179  14.983   5.617 -0.2643 -0.1548  0.0068
 1064YOPC   PO412218  15.531  14.967   5.957  0.1111  0.2598  0.0421
 1064YOPC   GL112219  15.200  14.908   6.269 -0.0395 -0.0219 -0.0387
 1064YOPC   GL212220  15.380  14.635   6.405  0.1215  0.2105 -0.1341
 1064YOPC   C1A12221  15.151  15.053   6.661 -0.0497  0.2237  0.1257
 1064YOPC   D2A12222  14.835  15.175   6.790 -0.3936 -0.0727 -0.0690
 1064YOPC   C3A12223  14.872  15.234   7.222 -0.3738  0.0988  0.0823
 1064YOPC   C4A12224  14.862  14.992   7.478  0.2472 -0.3250 -0.0988
 1064YOPC   C1B12225  15.322  14.569   6.837 -0.1810  0.1430  0.1607
 1064YOPC   C2B12226  15.123  14.795   7.109  0.0940  0.3065  0.1066
 1064YOPC   D3B12227  15.201  14.588   7.450 -0.2590  0.0172  0.1068
 1064YOPC   C4B12228  15.493  14.563   7.822 -0.0873  0.0007  0.0214
 1065YOPC   NC312229  16.258  15.397   5.682 -0.0909  0.0274 -0.1226
 1065YOPC   PO412230  16.425  15.630   6.054 -0.0310  0.1809 -0.0185
 1065YOPC   GL112231  16.370  15.509   6.439  0.2233 -0.0521  0.0895
 1065YOPC   GL212232  16.335  15.220   6.520  0.3267  0.0480  0.3706
 1065YOPC   C1A12233  16.125  15.527   6.818 -0.3374 -0.0193 -0.0717
 1065YOPC   D2A12234  15.934  15.606   7.129 -0.0188 -0.0380 -0.0111
 1065YOPC   C3A12235  15.648  15.790   7.390 -0.0686 -0.0361 -0.3410
 1065YOPC   C4A12236  15.512  15.831   7.767  0.0514  0.1990 -0.1034
 1065YOPC   C1B12237  16.200  15.019   6.912 -0.1821 -0.0921 -0.1709
 1065YOPC   C2B12238  16.109  15.102   7.249 -0.1394 -0.0196  0.0997
 1065YOPC   D3B12239  16.310  15.248   7.684  0.0404  0.2743 -0.3280
 1065YOPC   C4B12240  16.253  15.387   8.109  0.2746 -0.0106 -0.1226
 1066YOPC   NC312241   2.232   5.682   6.871  0.0308  0.3499  0.0969
 1066YOPC   PO412242   2.192   6.081   6.764 -0.0371 -0.4510 -0.2581
 1066YOPC   GL112243   1.946   5.996   7.160 -0.2087 -0.2771  0.0657
 1066YOPC   GL212244   1.610   6.164   7.223 -0.0686  0.1241 -0.2481
 1066YOPC   C1A12245   1.841   5.836   7.548  0.0546 -0.2514 -0.1938
 1066YOPC   D2A12246   1.816   5.878   7.940  0.2158  0.0349  0.1259
 1066YOPC   C3A12247   2.012   5.937   8.260  0.4536 -0.2008 -0.0267
 1066YOPC   C4A12248   2.052   6.371   8.407 -0.1670  0.1588 -0.1881
 1066YOPC   C1B12249   1.682   6.295   7.662  0.1643 -0.0592  0.2225
 1066YOPC   C2B12250   1.774   6.531   7.945  0.3166 -0.2080 -0.1591
 1066YOPC   D3B12251   1.596   6.265   8.179 -0.2578  0.0484  0.1660
 1066YOPC   C4B12252   1.466   6.001   8.561  0.1199 -0.1192 -0.0565
 1067YOPC   NC312253  14.960  17.250   5.628 -0.0201 -0.0379  0.1012
 1067YOPC   PO412254  14.738  17.690   5.697 -0.2130  0.1725 -0.2382
 1067YOPC   GL112255  14.726  17.871   6.071 -0.0053 -0.1004  0.0460
 1067YOPC   GL212256  15.013  18.013   6.233  0.0499 -0.2369  0.0081
 1067YOPC   C1A12257  14.307  18.080   6.377 -0.1213  0.1378  0.0187
 1067YOPC   D2A12258  14.135  18.210   6.741  0.4742 -0.0471 -0.1913
 1067YOPC   C3A12259  13.888  18.205   7.110  0.0856  0.0117 -0.0084
 1067YOPC   C4A12260  13.576  18.003   7.311  0.0211  0.1865  0.1143
 1067YOPC   C1B12261  14.833  17.940   6.550  0.1016  0.2014  0.1069
 1067YOPC   C2B12262  14.486  17.937   6.945  0.1157  0.0256  0.0197
 1067YOPC   D3B12263  14.394  18.235   7.232  0.2013 -0.1322 -0.1686
 1067YOPC   C4B12264  14.070  18.242   7.565  0.1159 -0.1566  0.4177
 1068YOPC   NC312265   2.039  15.250   5.879  0.0234 -0.0612 -0.2574
 1068YOPC   PO412266   1.934  14.960   6.165  0.0232 -0.1907  0.1022
 1068YOPC   GL112267   2.185  14.980   6.574  0.0180  0.1794 -0.1905
 1068YOPC   GL212268   2.117  14.695   6.593 -0.0633  0.2424 -0.0201
 1068YOPC   C1A12269   2.384  14.914   6.953  0.0272 -0.0381  0.1375
 1068YOPC   D2A12270   2.408  14.713   7.310  0.0132 -0.1331 -0.0124
 1068YOPC   C3A12271   2.723  14.728   7.621 -0.1079  0.1417 -0.3213
 1068YOPC   C4A12272   3.102  14.752   7.798  0.1445  0.1958 -0.2412
 1068YOPC   C1B12273   1.939  14.718   6.962 -0.0969 -0.1497  0.0509
 1068YOPC   C2B12274   1.757  14.641   7.264  0.0200  0.2908 -0.1236
 1068YOPC   D3B12275   1.681  14.696   7.764 -0.0548 -0.0320 -0.0868
 1068YOPC   C4B12276   1.670  14.991   8.064  0.0125  0.0010  0.3882
 1069YOPC   NC312277  12.057   7.166   5.869  0.0503  0.0720  0.3038
 1069YOPC   PO412278  11.892   7.015   6.260  0.0061  0.0152  0.3501
 1069YOPC   GL112279  11.825   7.318   6.574 -0.0348  0.1443  0.2080
 1069YOPC   GL212280  11.719   7.056   6.779 -0.1343  0.3056  0.0974
 1069YOPC   C1A12281  11.958   7.478   6.987  0.2420  0.1903 -0.0467
 1069YOPC   D2A12282  11.603   7.655   7.145  0.2175 -0.2579  0.0626
 1069YOPC   C3A12283  11.431   7.764   7.544 -0.0353  0.0641 -0.0754
 1069YOPC   C4A12284  11.076   7.733   7.727  0.0580  0.0675  0.0210
 1069YOPC   C1B12285  11.716   6.842   7.196 -0.1656 -0.3287  0.1400
 1069YOPC   C2B12286  11.765   6.823   7.601 -0.0554  0.1519 -0.1305
 1069YOPC   D3B12287  11.802   6.476   7.828 -0.0891 -0.3865 -0.3243
 1069YOPC   C4B12288  12.101   6.118   7.808 -0.0438 -0.2534 -0.0790
 1070YOPC   NC312289   9.616   2.170   5.620  0.1097  0.1698 -0.0307
 1070YOPC   PO412290   9.661   2.586   5.708 -0.0759 -0.1630  0.0623
 1070YOPC   GL112291   9.932   2.183   5.972 -0.1147 -0.0488  0.0976
 1070YOPC   GL212292   9.790   1.978   6.253  0.3285  0.2396  0.1802
 1070YOPC   C1A12293  10.332   1.928   6.278 -0.0136  0.1967 -0.2653
 1070YOPC   D2A12294  10.417   1.775   6.654  0.0037 -0.3182 -0.1376
 1070YOPC   C3A12295  10.883   1.611   6.666  0.0395 -0.0803  0.1136
 1070YOPC   C4A12296  11.134   1.618   6.344 -0.0501  0.0877 -0.0791
 1070YOPC   C1B12297   9.911   1.889   6.634 -0.1553  0.0041 -0.2695
 1070YOPC   C2B12298  10.055   1.903   6.993 -0.0139  0.1335 -0.0340
 1070YOPC   D3B12299  10.332   1.726   7.297 -0.0348  0.0295 -0.1816
 1070YOPC   C4B12300  10.410   1.555   7.713  0.1166 -0.2254  0.2271
 1071YOPC   NC312301   4.787   8.465   6.498 -0.0897  0.0612  0.2758
 1071YOPC   PO412302   4.670   8.040   6.354  0.2579 -0.0289  0.1331
 1071YOPC   GL112303   4.590   8.048   6.824 -0.0351  0.0717  0.2722
 1071YOPC   GL212304   4.356   8.243   6.878  0.0654 -0.1017  0.3134
 1071YOPC   C1A12305   4.451   7.949   7.189 -0.0144 -0.1408  0.1465
 1071YOPC   D2A12306   4.189   8.175   7.395 -0.1474 -0.1996  0.3096
 1071YOPC   C3A12307   4.097   7.929   7.730 -0.2454 -0.0127  0.1350
 1071YOPC   C4A12308   4.335   7.711   8.118  0.1786 -0.3454 -0.1645
 1071YOPC   C1B12309   4.531   8.475   7.220 -0.5683  0.2192  0.0740
 1071YOPC   C2B12310   4.640   8.333   7.655 -0.0034 -0.0823  0.3731
 1071YOPC   D3B12311   4.321   8.297   7.979 -0.2521 -0.0633 -0.0010
 1071YOPC   C4B12312   4.230   8.179   8.334  0.1282 -0.1596  0.0954
 1072YOPC   NC312313   4.401  17.590   5.345  0.0880  0.0319 -0.2010
 1072YOPC   PO412314   4.437  17.764   5.721 -0.1161 -0.0507  0.0455
 1072YOPC   GL112315   4.462  17.375   6.153 -0.1605 -0.0435 -0.1601
 1072YOPC   GL212316   4.234  17.342   6.338 -0.0284  0.0903 -0.1280
 1072YOPC   C1A12317   4.705  17.427   6.468  0.0495  0.5357 -0.0626
 1072YOPC   D2A12318   4.681  17.418   6.939 -0.2319  0.0386 -0.1211
 1072YOPC   C3A12319   4.770  17.535   7.264 -0.0235 -0.1003 -0.0703
 1072YOPC   C4A12320   4.835  17.346   7.627 -0.1656  0.1271  0.0227
 1072YOPC   C1B12321   4.219  17.397   6.687  0.1655 -0.1183  0.0602
 1072YOPC   C2B12322   4.215  17.292   7.070  0.2179  0.2429  0.1204
 1072YOPC   D3B12323   4.055  16.786   7.099  0.0216 -0.0127  0.1917
 1072YOPC   C4B12324   4.352  16.513   6.815 -0.1913 -0.0825 -0.2977
 1073YOPC   NC312325  14.309   1.820   5.957  0.1225 -0.1491 -0.1816
 1073YOPC   PO412326  14.092   2.149   5.631  0.0090  0.1060  0.1027
 1073YOPC   GL112327  14.103   2.247   6.036 -0.1178 -0.0424  0.0763
 1073YOPC   GL212328  13.871   2.061   6.168 -0.4342 -0.1152 -0.0286
 1073YOPC   C1A12329  14.002   2.485   6.444 -0.0135 -0.1014 -0.0490
 1073YOPC   D2A12330  14.062   2.503   6.897  0.1675  0.1264  0.0101
 1073YOPC   C3A12331  14.042   2.576   7.358  0.2018  0.0640  0.0059
 1073YOPC   C4A12332  14.012   2.742   7.719  0.0431 -0.0087 -0.2914
 1073YOPC   C1B12333  13.876   2.057   6.701 -0.3605 -0.1669  0.0767
 1073YOPC   C2B12334  13.884   1.943   7.188  0.3468  0.0367 -0.0370
 1073YOPC   D3B12335  14.082   2.104   7.558 -0.2162 -0.1139 -0.1354
 1073YOPC   C4B12336  14.469   2.332   7.514 -0.1128  0.1817 -0.0731
 1074YOPC   NC312337  16.013   5.050   5.446 -0.1081 -0.0034  0.2623
 1074YOPC   PO412338  16.206   4.886   5.778 -0.2541 -0.1951  0.2683
 1074YOPC   GL112339  16.413   4.738   6.163  0.2740 -0.1525 -0.1085
 1074YOPC   GL212340  16.632   4.949   6.426  0.0467 -0.1026  0.0778
 1074YOPC   C1A12341  16.542   4.383   6.450 -0.1377 -0.2470 -0.2134
 1074YOPC   D2A12342  16.899   4.292   6.717  0.0442  0.1542 -0.0099
 1074YOPC   C3A12343  16.787   4.097   7.070  0.4187  0.1689 -0.1812
 1074YOPC   C4A12344  16.605   3.927   7.381 -0.2246  0.1806  0.0496
 1074YOPC   C1B12345  16.632   4.717   6.844 -0.1293  0.0513  0.4544
 1074YOPC   C2B12346  16.764   4.587   7.179 -0.0191 -0.1133  0.0573
 1074YOPC   D3B12347  16.576   4.466   7.446 -0.1086 -0.1331 -0.1508
 1074YOPC   C4B12348  16.518   4.420   7.815 -0.0431 -0.0037 -0.0173
 1075YOPC   NC312349   1.426   1.035   6.422  0.0981  0.0630 -0.0134
 1075YOPC   PO412350   1.701   1.351   6.339  0.4241 -0.0560 -0.1561
 1075YOPC   GL112351   1.565   1.397   6.707  0.0980  0.0440 -0.2614
 1075YOPC   GL212352   1.713   1.563   6.841 -0.0771  0.2349  0.1839
 1075YOPC   C1A12353   1.344   1.313   7.098 -0.1026  0.2161  0.2231
 1075YOPC   D2A12354   0.951   1.277   7.283 -0.2714  0.2038 -0.1728
 1075YOPC   C3A12355   0.754   1.366   7.700  0.1717 -0.2895 -0.1162
 1075YOPC   C4A12356   0.713   1.559   8.090  0.0975 -0.0185 -0.3172
 1075YOPC   C1B12357   1.846   1.630   7.170  0.2222 -0.2270  0.0022
 1075YOPC   C2B12358   1.632   1.521   7.509  0.0907  0.0852  0.1574
 1075YOPC   D3B12359   1.312   1.344   7.713  0.0584 -0.3726  0.2738
 1075YOPC   C4B12360   1.221   1.346   8.150 -0.0195 -0.1969  0.0025
 1076YOPC   NC312361   2.706  17.751   6.003 -0.3735 -0.1881 -0.1752
 1076YOPC   PO412362   2.527  18.117   5.941  0.0821 -0.0988 -0.0117
 1076YOPC   GL112363   2.552  18.017   6.433 -0.0210 -0.2409 -0.0324
 1076YOPC   GL212364   2.600  17.773   6.562 -0.3283 -0.1033 -0.0086
 1076YOPC   C1A12365   2.544  18.014   6.954 -0.0854 -0.2487  0.1784
 1076YOPC   D2A12366   2.628  17.654   7.095  0.0601 -0.3933 -0.3145
 1076YOPC   C3A12367   2.646  17.594   7.557 -0.0142 -0.1481 -0.0712
 1076YOPC   C4A12368   2.713  17.646   7.994 -0.2128  0.0192  0.0119
 1076YOPC   C1B12369   2.864  17.422   6.597  0.0565 -0.3049 -0.2192
 1076YOPC   C2B12370   3.106  17.262   6.771 -0.0924  0.1710  0.1233
 1076YOPC   D3B12371   3.296  17.429   7.156  0.1152 -0.1331  0.0985
 1076YOPC   C4B12372   3.163  17.656   7.489 -0.1940  0.0021 -0.0422
 1077YOPC   NC312373   3.685  15.232   5.588  0.2413  0.1455  0.2653
 1077YOPC   PO412374   3.715  14.868   5.852  0.0020 -0.1910 -0.1449
 1077YOPC   GL112375   3.859  14.830   6.369  0.1646 -0.4843  0.1410
 1077YOPC   GL212376   3.664  15.140   6.490  0.2878  0.0726 -0.1231
 1077YOPC   C1A12377   3.812  14.823   6.844  0.0452  0.1661 -0.3120
 1077YOPC   D2A12378   3.947  14.770   7.242  0.1024 -0.1149  0.0379
 1077YOPC   C3A12379   4.162  15.130   7.462  0.0417 -0.1758  0.0665
 1077YOPC   C4A12380   4.515  15.115   7.721  0.0513 -0.2002  0.5395
 1077YOPC   C1B12381   3.407  15.475   6.472 -0.2241  0.3536 -0.1617
 1077YOPC   C2B12382   3.346  15.642   6.872  0.2506  0.0701 -0.1893
 1077YOPC   D3B12383   3.405  15.608   7.253 -0.0061  0.0441 -0.0683
 1077YOPC   C4B12384   3.501  15.672   7.650 -0.0194 -0.3166 -0.3528
 1078YOPC   NC312385   1.309   8.727   6.547 -0.0426 -0.1932 -0.2264
 1078YOPC   PO412386   0.885   8.551   6.432 -0.2011 -0.2071 -0.4446
 1078YOPC   GL112387   0.927   8.577   7.007  0.1490 -0.1601 -0.1495
 1078YOPC   GL212388   1.202   8.467   7.102 -0.1282 -0.1952 -0.2269
 1078YOPC   C1A12389   0.634   8.780   7.276 -0.1463  0.0922 -0.0149
 1078YOPC   D2A12390   0.391   8.986   7.563 -0.1486  0.0567  0.0682
 1078YOPC   C3A12391   0.579   8.815   8.000  0.1636  0.0595  0.0440
 1078YOPC   C4A12392   0.618   8.690   8.369  0.2144  0.1322 -0.1476
 1078YOPC   C1B12393   1.039   8.529   7.525  0.0508  0.0672  0.1526
 1078YOPC   C2B12394   0.992   8.561   7.921  0.0234  0.1725  0.0364
 1078YOPC   D3B12395   0.834   8.298   8.091  0.0281 -0.0310 -0.0177
 1078YOPC   C4B12396   0.832   8.203   8.487 -0.2274 -0.2442  0.1442
 1079YOPC   NC312397  17.370  16.803   5.861  0.0339 -0.0257 -0.0527
 1079YOPC   PO412398  17.382  16.698   6.269  0.2044  0.6158  0.1717
 1079YOPC   GL112399  17.294  16.958   6.583  0.1939 -0.1960  0.0346
 1079YOPC   GL212400  17.581  17.122   6.639  0.0453 -0.0733 -0.1687
 1079YOPC   C1A12401  17.139  17.087   6.886 -0.0317  0.0863 -0.1142
 1079YOPC   D2A12402  16.966  16.999   7.303 -0.0330 -0.0513 -0.1166
 1079YOPC   C3A12403  17.103  16.736   7.666 -0.0298 -0.1278 -0.2193
 1079YOPC   C4A12404  17.016  16.462   7.938  0.1008  0.0287  0.1069
 1079YOPC   C1B12405  17.620  17.041   7.111  0.2612 -0.0337  0.3394
 1079YOPC   C2B12406  17.429  17.039   7.402  0.0186 -0.0996  0.0112
 1079YOPC   D3B12407  17.290  17.418   7.578 -0.1349 -0.1853  0.0935
 1079YOPC   C4B12408  17.326  17.587   8.025  0.3713 -0.1418  0.1221
 1080YOPC   NC312409  15.150   2.107   5.644  0.0604 -0.0569 -0.1171
 1080YOPC   PO412410  15.543   2.247   5.790  0.0577 -0.3270 -0.3586
 1080YOPC   GL112411  15.581   2.259   6.210 -0.1324 -0.2665 -0.0186
 1080YOPC   GL212412  15.543   2.617   6.276 -0.0894 -0.2382  0.1419
 1080YOPC   C1A12413  15.354   2.052   6.514  0.1413 -0.0152 -0.0477
 1080YOPC   D2A12414  15.145   1.956   6.915 -0.0982  0.2013  0.0330
 1080YOPC   C3A12415  14.866   1.599   6.965  0.1073  0.5936  0.1290
 1080YOPC   C4A12416  14.703   1.283   6.783  0.0388  0.1870  0.1774
 1080YOPC   C1B12417  15.434   2.498   6.755 -0.0840 -0.0350 -0.0345
 1080YOPC   C2B12418  15.482   2.314   7.155  0.0707 -0.3010  0.0005
 1080YOPC   D3B12419  15.813   2.237   7.471 -0.2138  0.2826 -0.0772
 1080YOPC   C4B12420  15.958   2.422   7.930 -0.0474  0.0271  0.0535
 1081YOPC   NC312421  10.882  14.993   5.997 -0.0030 -0.0966 -0.1553
 1081YOPC   PO412422  11.295  14.967   5.741 -0.2191  0.3198  0.0851
 1081YOPC   GL112423  11.300  14.939   6.209  0.0609  0.1987 -0.0121
 1081YOPC   GL212424  11.535  14.779   6.272 -0.0796  0.0098 -0.1494
 1081YOPC   C1A12425  11.339  14.943   6.680  0.0567  0.1505 -0.1216
 1081YOPC   D2A12426  11.495  14.818   7.091  0.1855  0.0858  0.0772
 1081YOPC   C3A12427  11.508  15.017   7.465  0.1253  0.1317 -0.0389
 1081YOPC   C4A12428  11.851  15.224   7.771 -0.0243 -0.1122 -0.0287
 1081YOPC   C1B12429  11.749  15.173   6.398  0.1374  0.0132 -0.1753
 1081YOPC   C2B12430  11.644  15.451   6.791 -0.1423 -0.1820  0.0754
 1081YOPC   D3B12431  12.024  15.610   7.101  0.0663 -0.2553  0.0395
 1081YOPC   C4B12432  12.228  15.772   7.498  0.0524  0.0510 -0.1377
 1082YOPC   NC312433   3.107   4.192   6.603 -0.2294 -0.1171 -0.2409
 1082YOPC   PO412434   3.567   4.093   6.555 -0.3438  0.2582  0.0329
 1082YOPC   GL112435   3.335   3.940   6.986  0.0574 -0.2981  0.0326
 1082YOPC   GL212436   3.136   4.209   7.097 -0.0671 -0.3214 -0.1684
 1082YOPC   C1A12437   3.424   3.898   7.405 -0.0731  0.1260 -0.2125
 1082YOPC   D2A12438   3.632   3.860   7.742 -0.0985 -0.1214  0.1332
 1082YOPC   C3A12439   3.860   3.556   7.897 -0.1773 -0.0684  0.0542
 1082YOPC   C4A12440   4.007   3.566   8.374  0.0891  0.3205 -0.0014
 1082YOPC   C1B12441   3.111   4.226   7.566 -0.2913 -0.1816  0.2333
 1082YOPC   C2B12442   3.246   4.121   7.901  0.1095 -0.0463 -0.2837
 1082YOPC   D3B12443   3.428   4.343   8.233  0.2090 -0.2196  0.1795
 1082YOPC   C4B12444   3.306   4.772   8.252 -0.2702  0.0831 -0.2394
 1083YOPC   NC312445  15.781  17.984   5.761 -0.1190 -0.0571  0.0449
 1083YOPC   PO412446  15.827  18.506   5.777 -0.0916  0.2125  0.1351
 1083YOPC   GL112447  15.997  18.629   6.120  0.0047  0.0984 -0.2538
 1083YOPC   GL212448  16.068  18.401   6.243  0.2115  0.0157  0.1732
 1083YOPC   C1A12449  16.173  18.754   6.577 -0.0955 -0.1300  0.1446
 1083YOPC   D2A12450  16.260  18.791   7.031 -0.0560  0.0835 -0.1047
 1083YOPC   C3A12451  16.404  18.489   7.316  0.1078 -0.0313 -0.1851
 1083YOPC   C4A12452  16.226  18.107   7.692 -0.2251  0.1359 -0.4040
 1083YOPC   C1B12453  16.160  18.067   6.574 -0.1516  0.0459 -0.0376
 1083YOPC   C2B12454  15.834  17.785   6.833 -0.0626  0.2238 -0.0433
 1083YOPC   D3B12455  15.914  17.633   7.181  0.1292 -0.2520  0.2001
 1083YOPC   C4B12456  15.813  17.540   7.515  0.2313 -0.0826  0.1254
 1084YOPC   NC312457  13.023   3.995   6.125  0.0922  0.2480  0.1075
 1084YOPC   PO412458  13.127   4.367   5.973  0.2383 -0.2699 -0.1718
 1084YOPC   GL112459  12.927   4.520   6.388 -0.2560 -0.0506  0.0601
 1084YOPC   GL212460  12.857   4.916   6.242  0.1397  0.2441  0.1270
 1084YOPC   C1A12461  12.767   4.188   6.725 -0.0917  0.0229 -0.0318
 1084YOPC   D2A12462  12.831   4.168   7.165  0.0171 -0.0966 -0.0413
 1084YOPC   C3A12463  12.500   3.949   7.458  0.5320 -0.2466  0.0897
 1084YOPC   C4A12464  12.380   4.215   7.775  0.2195  0.2463  0.1142
 1084YOPC   C1B12465  12.661   4.819   6.700  0.1120  0.0701  0.1746
 1084YOPC   C2B12466  12.542   4.563   6.951  0.1933 -0.0362  0.1094
 1084YOPC   D3B12467  12.501   4.648   7.396  0.1361 -0.2840  0.1241
 1084YOPC   C4B12468  12.415   4.741   7.796  0.0888  0.2563 -0.0699
 1085YOPC   NC312469   0.325   7.914   6.180  0.2383  0.1899  0.0590
 1085YOPC   PO412470   0.578   7.767   6.336  0.1523  0.4990  0.1269
 1085YOPC   GL112471   0.383   7.777   6.704 -0.0795 -0.0123  0.0576
 1085YOPC   GL212472   0.157   7.687   6.909  0.2441  0.0200 -0.0003
 1085YOPC   C1A12473   0.502   8.126   7.003  0.0125 -0.0817  0.1726
 1085YOPC   D2A12474   0.709   8.176   7.349  0.1590 -0.1096  0.1766
 1085YOPC   C3A12475   0.586   8.433   7.682  0.0734 -0.2142 -0.0771
 1085YOPC   C4A12476   0.322   8.377   8.076 -0.1628 -0.2546 -0.1385
 1085YOPC   C1B12477   0.183   7.313   7.161  0.0068  0.1334 -0.0357
 1085YOPC   C2B12478   0.137   7.270   7.571 -0.0212 -0.1590  0.0735
 1085YOPC   D3B12479   0.341   6.992   7.910  0.0940 -0.2027  0.3602
 1085YOPC   C4B12480   0.134   6.831   8.370  0.0059  0.0734  0.3880
 1086YOPC   NC312481   8.855  12.904   6.337  0.2930  0.2602  0.1616
 1086YOPC   PO412482   8.974  12.521   6.261 -0.3250  0.0322 -0.3178
 1086YOPC   GL112483   9.347  12.629   6.494  0.0757 -0.1875 -0.2037
 1086YOPC   GL212484   9.275  12.984   6.564 -0.0201 -0.0771  0.4227
 1086YOPC   C1A12485   9.390  12.491   6.986  0.2305 -0.0230 -0.1778
 1086YOPC   D2A12486   9.516  12.371   7.263 -0.0964 -0.0474  0.2149
 1086YOPC   C3A12487   9.638  12.615   7.612 -0.1780 -0.1735  0.1289
 1086YOPC   C4A12488   9.552  12.646   8.057  0.1092 -0.0737  0.1172
 1086YOPC   C1B12489   9.324  13.231   6.988 -0.1039 -0.0549 -0.0975
 1086YOPC   C2B12490   9.370  13.435   7.348 -0.1358  0.1993  0.1152
 1086YOPC   D3B12491   9.579  13.517   7.764  0.0848 -0.0613  0.1324
 1086YOPC   C4B12492   9.745  13.934   7.828 -0.0684 -0.2329  0.1708
 1087YOPC   NC312493  15.851   2.754   5.790 -0.3787  0.0366 -0.0608
 1087YOPC   PO412494  16.087   2.898   6.079 -0.0839  0.0898 -0.0214
 1087YOPC   GL112495  16.010   2.881   6.524 -0.2107  0.1295  0.0406
 1087YOPC   GL212496  15.673   2.997   6.669 -0.3350  0.2618  0.2886
 1087YOPC   C1A12497  15.993   2.801   7.015  0.1116 -0.1112 -0.2671
 1087YOPC   D2A12498  16.158   2.422   7.198  0.0131  0.1596  0.1873
 1087YOPC   C3A12499  16.339   2.344   7.617 -0.0990  0.0889  0.1077
 1087YOPC   C4A12500  16.502   2.274   8.025  0.2821  0.1181  0.0475
 1087YOPC   C1B12501  15.522   2.877   7.102 -0.0162 -0.0177 -0.0708
 1087YOPC   C2B12502  15.436   2.839   7.508 -0.0432  0.0794 -0.0449
 1087YOPC   D3B12503  15.598   3.023   7.681 -0.2129  0.1761  0.1409
 1087YOPC   C4B12504  15.820   3.379   7.838  0.1843  0.0368 -0.1082
 1088YOPC   NC312505   1.193   9.620   6.209 -0.1330 -0.1063 -0.3533
 1088YOPC   PO412506   1.055   9.975   6.357 -0.1617  0.3172 -0.0874
 1088YOPC   GL112507   1.028  10.031   6.818  0.1679 -0.1255 -0.1470
 1088YOPC   GL212508   1.317   9.939   7.014 -0.0513  0.0465  0.0433
 1088YOPC   C1A12509   0.884   9.872   7.319  0.0855 -0.2598  0.0240
 1088YOPC   D2A12510   0.834   9.900   7.846  0.0114  0.2282  0.0342
 1088YOPC   C3A12511   1.000  10.061   8.233 -0.1417  0.0618 -0.0585
 1088YOPC   C4A12512   1.398  10.076   8.386  0.2117  0.1043  0.2902
 1088YOPC   C1B12513   1.461  10.004   7.412 -0.0711 -0.0086  0.1839
 1088YOPC   C2B12514   1.326  10.066   7.829  0.1809 -0.0595  0.0879
 1088YOPC   D3B12515   1.347  10.486   8.091  0.0639 -0.2990 -0.0269
 1088YOPC   C4B12516   1.373  10.582   8.460 -0.1073  0.0392  0.2693
 1089YOPC   NC312517   8.518   8.482   6.232 -0.1350  0.1336  0.0045
 1089YOPC   PO412518   9.017   8.509   6.205  0.1469 -0.1933 -0.1276
 1089YOPC   GL112519   9.076   8.295   6.672 -0.2557  0.2381  0.1203
 1089YOPC   GL212520   9.002   7.939   6.778 -0.1771 -0.0709 -0.2997
 1089YOPC   C1A12521   9.267   8.317   7.112  0.2762 -0.2119 -0.1269
 1089YOPC   D2A12522   9.502   8.133   7.469 -0.0768  0.0963  0.0918
 1089YOPC   C3A12523   9.583   8.215   7.860 -0.2040 -0.1191 -0.4023
 1089YOPC   C4A12524   9.581   8.327   8.266 -0.1964  0.0597 -0.0898
 1089YOPC   C1B12525   9.033   7.769   7.268 -0.1816  0.1784  0.2526
 1089YOPC   C2B12526   9.109   7.638   7.725  0.1662  0.1311  0.3420
 1089YOPC   D3B12527   8.822   7.928   7.999  0.1706 -0.1686 -0.2401
 1089YOPC   C4B12528   8.681   8.147   8.369  0.3578  0.1889  0.3204
 1090YOPC   NC312529  14.636   5.430   6.116  0.0437  0.1125 -0.3901
 1090YOPC   PO412530  14.295   5.052   6.196  0.2465 -0.0117  0.0944
 1090YOPC   GL112531  14.236   4.883   6.597 -0.1617 -0.1464  0.1217
 1090YOPC   GL212532  14.216   4.478   6.624 -0.0924  0.1619 -0.1800
 1090YOPC   C1A12533  14.170   5.149   7.052  0.0000  0.4351  0.0329
 1090YOPC   D2A12534  14.192   5.094   7.453  0.1221 -0.0180 -0.1218
 1090YOPC   C3A12535  13.785   5.086   7.533 -0.1346  0.1195  0.0797
 1090YOPC   C4A12536  13.242   5.061   7.737 -0.2319 -0.3303  0.2801
 1090YOPC   C1B12537  13.987   4.219   6.933  0.1004  0.0665  0.0864
 1090YOPC   C2B12538  13.733   3.924   6.975 -0.0849  0.0990  0.0062
 1090YOPC   D3B12539  13.684   3.868   7.371  0.0280  0.1620  0.0429
 1090YOPC   C4B12540  13.941   3.674   7.684 -0.2984 -0.2301  0.0617
 1091YOPC   NC312541   1.412   2.611   6.165 -0.2364  0.0140 -0.3245
 1091YOPC   PO412542   1.520   2.341   6.486  0.1948 -0.1924  0.0221
 1091YOPC   GL112543   1.401   2.443   6.882  0.0011  0.1184 -0.2339
 1091YOPC   GL212544   1.750   2.606   6.925 -0.0425 -0.0964  0.3946
 1091YOPC   C1A12545   1.424   2.394   7.319 -0.0643 -0.1988 -0.0685
 1091YOPC   D2A12546   1.429   2.306   7.732  0.1570  0.0272  0.0287
 1091YOPC   C3A12547   1.134   2.361   7.991 -0.1486 -0.1410  0.0276
 1091YOPC   C4A12548   0.696   2.404   8.251  0.1434 -0.3367 -0.2882
 1091YOPC   C1B12549   1.877   2.727   7.322 -0.1286  0.0845  0.0017
 1091YOPC   C2B12550   2.145   2.935   7.455  0.2798 -0.2792 -0.2953
 1091YOPC   D3B12551   2.148   3.033   7.893 -0.0932  0.4650  0.1314
 1091YOPC   C4B12552   2.175   3.112   8.374  0.2754  0.0814  0.2035
 1092YOPC   NC312553   1.331  11.008   5.959  0.2069 -0.1822 -0.0115
 1092YOPC   PO412554   1.415  11.281   6.337  0.1815 -0.1261  0.0370
 1092YOPC   GL112555   1.704  11.153   6.591 -0.0365 -0.0742 -0.1720
 1092YOPC   GL212556   1.979  11.276   6.481 -0.2396 -0.3180  0.0599
 1092YOPC   C1A12557   1.798  11.337   6.977  0.2851  0.4696  0.1061
 1092YOPC   D2A12558   2.130  11.562   7.273  0.0602 -0.0203  0.0318
 1092YOPC   C3A12559   2.416  11.853   7.255 -0.0268 -0.1433  0.1963
 1092YOPC   C4A12560   2.635  12.256   7.066 -0.0963 -0.0734  0.3905
 1092YOPC   C1B12561   2.241  11.318   6.827  0.0248 -0.1000  0.1516
 1092YOPC   C2B12562   2.285  11.057   7.234  0.0666 -0.0928  0.3051
 1092YOPC   D3B12563   2.024  10.714   7.542 -0.0854 -0.2414  0.1346
 1092YOPC   C4B12564   2.201  10.690   7.968 -0.2993  0.1309  0.2180
 1093YOPC   NC312565  13.292   6.502   5.817  0.0070 -0.1547  0.1164
 1093YOPC   PO412566  13.486   6.339   6.260  0.3486  0.1858 -0.0640
 1093YOPC   GL112567  13.505   6.234   6.717 -0.1375  0.1077 -0.1922
 1093YOPC   GL212568  13.627   5.898   6.760 -0.1445  0.1919  0.1387
 1093YOPC   C1A12569  13.547   6.496   7.089 -0.2865 -0.3327  0.0513
 1093YOPC   D2A12570  13.859   6.714   7.258  0.2051  0.1489 -0.1046
 1093YOPC   C3A12571  13.930   6.810   7.633 -0.0979 -0.0150  0.3162
 1093YOPC   C4A12572  14.012   6.782   8.040 -0.1467  0.3161 -0.0416
 1093YOPC   C1B12573  13.511   6.025   7.230  0.1276  0.2512 -0.0989
 1093YOPC   C2B12574  13.492   5.871   7.680 -0.1462 -0.1213  0.1492
 1093YOPC   D3B12575  13.223   5.812   8.080  0.1332 -0.0046  0.2296
 1093YOPC   C4B12576  12.866   5.896   8.338  0.0197  0.0514  0.0655
 1094YOPC   NC312577  10.682  17.535   5.627  0.5076  0.0265 -0.1820
 1094YOPC   PO412578  10.223  17.547   5.547 -0.2959 -0.1191  0.2942
 1094YOPC   GL112579  10.292  17.808   5.881  0.0967  0.0040 -0.0748
 1094YOPC   GL212580  10.101  18.071   5.886  0.2715  0.0355  0.0637
 1094YOPC   C1A12581  10.272  17.689   6.349  0.0258 -0.1113  0.4188
 1094YOPC   D2A12582  10.476  17.515   6.793 -0.2527 -0.1397  0.3396
 1094YOPC   C3A12583  10.150  17.229   7.142 -0.0003 -0.0012  0.0231
 1094YOPC   C4A12584   9.855  16.901   7.217  0.0384  0.0353 -0.0556
 1094YOPC   C1B12585   9.993  18.137   6.267  0.1258  0.2673 -0.1127
 1094YOPC   C2B12586  10.016  18.195   6.715 -0.0884  0.0827  0.0693
 1094YOPC   D3B12587   9.809  18.168   6.969  0.2966  0.1062 -0.4648
 1094YOPC   C4B12588   9.698  18.243   7.347 -0.0905 -0.2464 -0.0157
 1095YOPC   NC312589  14.092  15.460   5.229  0.0561 -0.1117  0.0511
 1095YOPC   PO412590  14.003  15.322   5.733 -0.0127  0.1218  0.2282
 1095YOPC   GL112591  14.076  15.408   6.143 -0.1706 -0.0046 -0.0665
 1095YOPC   GL212592  13.975  15.583   6.385 -0.2417  0.0405  0.0124
 1095YOPC   C1A12593  14.454  15.377   6.438  0.1062 -0.3688 -0.1846
 1095YOPC   D2A12594  14.599  15.634   6.760 -0.2003 -0.2656  0.0929
 1095YOPC   C3A12595  14.486  15.572   7.140 -0.0837  0.0426 -0.1023
 1095YOPC   C4A12596  14.311  15.202   7.373  0.1607 -0.0229 -0.0493
 1095YOPC   C1B12597  13.964  15.773   6.817  0.0046 -0.2754 -0.2407
 1095YOPC   C2B12598  14.178  15.903   7.296 -0.1565 -0.1272 -0.3675
 1095YOPC   D3B12599  14.211  16.302   7.555 -0.1155  0.0030 -0.3541
 1095YOPC   C4B12600  13.893  16.562   7.746  0.0012  0.3136 -0.0460
 1096YOPC   NC312601   0.441  12.580   6.324  0.2398  0.0314  0.0156
 1096YOPC   PO412602   0.697  13.021   6.165  0.1001 -0.1460 -0.2689
 1096YOPC   GL112603   0.933  13.245   6.511 -0.1659  0.1764 -0.2149
 1096YOPC   GL212604   0.845  13.465   6.615  0.2659  0.4001  0.0409
 1096YOPC   C1A12605   1.293  13.284   6.901  0.1945  0.3019 -0.0237
 1096YOPC   D2A12606   1.446  13.738   6.960  0.3297  0.0777  0.0747
 1096YOPC   C3A12607   1.343  13.663   7.357  0.2084 -0.2536 -0.0418
 1096YOPC   C4A12608   1.577  13.881   7.763 -0.0903 -0.0874  0.1883
 1096YOPC   C1B12609   0.965  13.716   6.975 -0.1091 -0.3246 -0.0773
 1096YOPC   C2B12610   0.920  13.999   7.295  0.4557 -0.0197  0.2626
 1096YOPC   D3B12611   0.997  13.993   7.713  0.1581 -0.1641 -0.1627
 1096YOPC   C4B12612   0.946  13.810   8.138  0.0064 -0.0165  0.0842
 1097YOPC   NC312613  11.802   3.897   5.816  0.1280  0.0904  0.0822
 1097YOPC   PO412614  12.119   4.174   5.978  0.1161 -0.1996 -0.0056
 1097YOPC   GL112615  12.337   3.956   6.388  0.1325 -0.1709 -0.2047
 1097YOPC   GL212616  12.589   3.912   6.340 -0.3881  0.0713 -0.0081
 1097YOPC   C1A12617  12.379   3.826   6.867  0.5413 -0.0934  0.0564
 1097YOPC   D2A12618  12.634   3.544   7.158 -0.2172  0.3803 -0.2693
 1097YOPC   C3A12619  12.413   3.486   7.531 -0.0705  0.2867 -0.1043
 1097YOPC   C4A12620  12.541   3.286   7.991 -0.0159  0.0050 -0.1394
 1097YOPC   C1B12621  12.718   3.488   6.641  0.0151  0.1053  0.0397
 1097YOPC   C2B12622  12.705   3.082   6.708 -0.1696 -0.1442  0.2406
 1097YOPC   D3B12623  12.609   2.907   7.112  0.0699 -0.2088 -0.0267
 1097YOPC   C4B12624  12.648   3.039   7.559  0.1517  0.0931  0.1666
 1098YOPC   NC312625   9.484   5.519   5.756 -0.1669 -0.3714  0.1801
 1098YOPC   PO412626   9.753   5.416   6.012  0.0861 -0.2274 -0.2044
 1098YOPC   GL112627  10.002   5.287   6.385 -0.0193  0.4293  0.4056
 1098YOPC   GL212628   9.905   5.630   6.543 -0.1813  0.0679  0.2044
 1098YOPC   C1A12629  10.403   5.311   6.641 -0.1364 -0.0803  0.0858
 1098YOPC   D2A12630  10.727   5.675   6.842  0.0148 -0.3286 -0.0743
 1098YOPC   C3A12631  10.576   5.768   7.234 -0.2821  0.1240 -0.0558
 1098YOPC   C4A12632  10.588   5.296   7.533 -0.0636 -0.2779 -0.3076
 1098YOPC   C1B12633  10.076   5.584   6.987 -0.2066 -0.4030  0.0254
 1098YOPC   C2B12634  10.055   5.442   7.437  0.1673 -0.0542 -0.1019
 1098YOPC   D3B12635  10.258   5.527   7.802  0.1702  0.2182  0.4856
 1098YOPC   C4B12636  10.568   5.478   8.002  0.0126 -0.1057  0.1825
 1099YOPC   NC312637  15.358  16.101   5.486  0.0365 -0.1458 -0.2804
 1099YOPC   PO412638  15.140  16.014   5.864  0.1081 -0.0349 -0.1524
 1099YOPC   GL112639  14.989  15.651   6.034 -0.1866  0.2907 -0.1324
 1099YOPC   GL212640  15.142  15.323   5.973 -0.3707 -0.0320 -0.0409
 1099YOPC   C1A12641  14.954  15.454   6.422 -0.1392 -0.3748  0.0388
 1099YOPC   D2A12642  15.301  15.519   6.691 -0.1271 -0.0757  0.1574
 1099YOPC   C3A12643  15.226  15.605   7.121  0.2227  0.0828  0.2423
 1099YOPC   C4A12644  15.183  15.463   7.555 -0.2499 -0.0525 -0.0838
 1099YOPC   C1B12645  15.443  15.536   6.230  0.2963 -0.1532  0.1382
 1099YOPC   C2B12646  15.753  15.617   6.472  0.1923 -0.0766  0.0128
 1099YOPC   D3B12647  15.639  15.865   6.873  0.3338 -0.0276  0.1052
 1099YOPC   C4B12648  15.466  16.151   7.096 -0.0473  0.0837 -0.2342
 1100YOPC   NC312649  12.520   1.400   5.649 -0.2013  0.1411  0.0818
 1100YOPC   PO412650  12.737   1.502   5.881  0.1298 -0.0968  0.1719
 1100YOPC   GL112651  12.786   1.203   6.218  0.3303  0.1212  0.3868
 1100YOPC   GL212652  13.022   0.989   6.245  0.2508 -0.0173 -0.0561
 1100YOPC   C1A12653  12.645   1.305   6.634  0.0126 -0.1319  0.1343
 1100YOPC   D2A12654  12.649   1.189   7.033  0.0428  0.0354 -0.0705
 1100YOPC   C3A12655  12.373   0.819   7.067  0.0929  0.0077 -0.1034
 1100YOPC   C4A12656  12.202   0.384   7.170  0.2669 -0.1702  0.1161
 1100YOPC   C1B12657  13.403   0.984   6.584  0.0294  0.0453 -0.1739
 1100YOPC   C2B12658  13.289   0.873   6.994  0.0395 -0.1635 -0.1276
 1100YOPC   D3B12659  13.490   0.919   7.343 -0.0315  0.0327  0.2506
 1100YOPC   C4B12660  13.297   0.897   7.673 -0.2444 -0.2264  0.0654
 1101YOPC   NC312661  14.541   2.401   5.574 -0.1649 -0.1628  0.0177
 1101YOPC   PO412662  14.604   2.237   5.988  0.2085 -0.2612  0.0478
 1101YOPC   GL112663  14.448   2.382   6.344 -0.2772 -0.0719  0.2406
 1101YOPC   GL212664  14.318   1.971   6.460 -0.3673  0.1419  0.2159
 1101YOPC   C1A12665  14.517   2.362   6.787  0.3001  0.3706 -0.4689
 1101YOPC   D2A12666  14.801   2.310   7.093 -0.0701  0.1693 -0.0014
 1101YOPC   C3A12667  14.965   2.047   7.556  0.0239  0.2162 -0.2268
 1101YOPC   C4A12668  15.131   2.183   8.063 -0.0236 -0.3510  0.0075
 1101YOPC   C1B12669  14.359   1.936   6.912 -0.0765 -0.2780 -0.0297
 1101YOPC   C2B12670  14.561   1.895   7.261  0.2539 -0.3199  0.2314
 1101YOPC   D3B12671  14.532   1.835   7.730  0.2567  0.0321 -0.1930
 1101YOPC   C4B12672  14.945   1.690   7.900  0.0149 -0.1154 -0.0531
 1102YOPC   NC312673  10.241  12.665   6.455  0.3432  0.1899 -0.0868
 1102YOPC   PO412674   9.846  12.651   6.324  0.1442 -0.3842  0.1250
 1102YOPC   GL112675   9.786  12.697   6.752  0.0953 -0.1301  0.0685
 1102YOPC   GL212676  10.039  12.870   6.824  0.1744  0.2657  0.1125
 1102YOPC   C1A12677   9.700  12.874   7.195  0.1744  0.1995 -0.3789
 1102YOPC   D2A12678   9.686  13.122   7.523 -0.0504  0.2182 -0.2249
 1102YOPC   C3A12679   9.931  13.189   7.891  0.1324  0.1014 -0.3776
 1102YOPC   C4A12680   9.671  13.109   8.336 -0.3891  0.1271  0.1999
 1102YOPC   C1B12681   9.793  13.285   6.716  0.2483  0.0918  0.1039
 1102YOPC   C2B12682   9.935  13.645   6.633  0.2521  0.3153 -0.0892
 1102YOPC   D3B12683   9.815  13.842   6.970  0.1676  0.2253  0.0561
 1102YOPC   C4B12684   9.557  13.972   7.260  0.0927 -0.2643 -0.0339
 1103YOPC   NC312685  17.996   5.977   6.220  0.0197 -0.1932 -0.0534
 1103YOPC   PO412686  17.768   6.404   6.409 -0.3464 -0.0511 -0.0069
 1103YOPC   GL112687  17.881   6.173   6.702 -0.1512  0.0966 -0.1969
 1103YOPC   GL212688  18.003   5.904   6.703  0.1617 -0.1373 -0.1071
 1103YOPC   C1A12689  17.760   6.098   7.224  0.0066 -0.1735  0.1197
 1103YOPC   D2A12690  17.698   6.084   7.636 -0.2538  0.0259 -0.0987
 1103YOPC   C3A12691  17.735   5.617   7.886  0.2971 -0.2502  0.2194
 1103YOPC   C4A12692  18.198   5.467   7.957  0.2118 -0.2486 -0.0540
 1103YOPC   C1B12693  17.908   5.651   7.060  0.0262 -0.1719  0.0130
 1103YOPC   C2B12694  18.000   5.510   7.466 -0.2889  0.1896  0.1000
 1103YOPC   D3B12695  17.854   5.151   7.709  0.1522  0.1051  0.3463
 1103YOPC   C4B12696  17.790   5.158   8.172 -0.0664 -0.1261  0.2930
 1104YOPC   NC312697   7.978  15.449   5.953  0.3428 -0.0624 -0.3473
 1104YOPC   PO412698   8.109  15.015   5.875  0.0589 -0.0158 -0.1574
 1104YOPC   GL112699   7.804  14.851   6.251  0.1958 -0.3779 -0.1539
 1104YOPC   GL212700   7.664  14.481   6.365  0.0886  0.0003  0.4191
 1104YOPC   C1A12701   7.707  15.178   6.669 -0.3525  0.0204 -0.2760
 1104YOPC   D2A12702   8.008  15.414   6.866 -0.0124  0.1292  0.0492
 1104YOPC   C3A12703   7.902  15.856   6.899 -0.2094 -0.0245  0.0700
 1104YOPC   C4A12704   7.936  16.280   6.872  0.2363 -0.0770  0.0168
 1104YOPC   C1B12705   7.895  14.694   6.703  0.1890  0.1655 -0.2346
 1104YOPC   C2B12706   7.841  14.907   7.098 -0.0313  0.0384  0.0700
 1104YOPC   D3B12707   8.108  15.231   7.282 -0.2474 -0.0143  0.1669
 1104YOPC   C4B12708   8.479  15.133   7.542 -0.0554 -0.2077 -0.2196
 1105YOPC   NC312709   6.522   6.631   6.315  0.0116  0.0526  0.2347
 1105YOPC   PO412710   6.152   6.890   6.449  0.1471  0.1285 -0.2538
 1105YOPC   GL112711   6.048   7.072   6.826  0.0805 -0.2134  0.2237
 1105YOPC   GL212712   6.271   7.426   6.951 -0.0998 -0.0495  0.0595
 1105YOPC   C1A12713   5.990   6.921   7.253  0.0601 -0.0193 -0.0199
 1105YOPC   D2A12714   6.041   6.962   7.673 -0.1347 -0.2711  0.3323
 1105YOPC   C3A12715   6.216   6.826   8.051  0.2086  0.0347 -0.2749
 1105YOPC   C4A12716   6.216   6.882   8.526 -0.2360 -0.1247 -0.0543
 1105YOPC   C1B12717   6.311   7.306   7.465 -0.3041  0.0323 -0.0806
 1105YOPC   C2B12718   6.344   7.262   7.878  0.2969 -0.1662 -0.3282
 1105YOPC   D3B12719   6.170   7.500   8.155 -0.2042 -0.1174  0.0126
 1105YOPC   C4B12720   5.957   7.555   8.353  0.3073 -0.0879  0.2594
 1106YOPC   NC312721   5.920  16.587   5.347 -0.2343 -0.0334  0.1597
 1106YOPC   PO412722   6.011  16.466   5.713 -0.3435 -0.1224 -0.2936
 1106YOPC   GL112723   6.008  16.484   6.166 -0.0414 -0.0598 -0.0937
 1106YOPC   GL212724   5.731  16.597   6.255 -0.0026  0.1436  0.3393
 1106YOPC   C1A12725   6.232  16.505   6.504 -0.0635  0.1165 -0.0014
 1106YOPC   D2A12726   6.517  16.895   6.620 -0.6073 -0.0524  0.0611
 1106YOPC   C3A12727   6.499  17.147   6.926  0.3356 -0.0095  0.0655
 1106YOPC   C4A12728   6.644  17.430   7.197 -0.0746 -0.2662 -0.0859
 1106YOPC   C1B12729   5.545  16.638   6.698  0.1357 -0.0991  0.1291
 1106YOPC   C2B12730   5.533  16.797   7.115 -0.1852 -0.3831 -0.2445
 1106YOPC   D3B12731   5.774  17.034   7.336  0.3049  0.1964  0.0179
 1106YOPC   C4B12732   5.903  17.181   7.777 -0.0965 -0.1251  0.0803
 1107YOPC   NC312733   4.033  17.767   6.079  0.1795 -0.3798 -0.1274
 1107YOPC   PO412734   4.153  18.151   6.127  0.1665  0.0382  0.0157
 1107YOPC   GL112735   3.979  18.237   6.539  0.0009  0.1177  0.3422
 1107YOPC   GL212736   4.171  18.495   6.564 -0.0171  0.1961 -0.1933
 1107YOPC   C1A12737   3.615  18.291   6.918  0.0325 -0.0018  0.0270
 1107YOPC   D2A12738   3.399  18.490   7.113  0.0583 -0.0774  0.1583
 1107YOPC   C3A12739   3.114  18.676   6.927 -0.1516 -0.0710 -0.0468
 1107YOPC   C4A12740   2.884  19.005   6.799 -0.3217 -0.1046 -0.0868
 1107YOPC   C1B12741   4.089  18.403   7.026 -0.1411 -0.2699 -0.2590
 1107YOPC   C2B12742   3.785  18.120   7.344  0.2096 -0.1258  0.0747
 1107YOPC   D3B12743   3.347  18.165   7.472  0.0245  0.0384  0.1377
 1107YOPC   C4B12744   3.056  18.549   7.421  0.1547 -0.0747 -0.0858
 1108YOPC   NC312745  12.246   4.861   5.397  0.0649  0.2463 -0.0022
 1108YOPC   PO412746  12.565   4.822   5.782 -0.0391  0.0820 -0.0043
 1108YOPC   GL112747  12.388   4.797   6.298  0.1279  0.1454 -0.1107
 1108YOPC   GL212748  12.233   4.494   6.386  0.0615  0.2351 -0.0133
 1108YOPC   C1A12749  12.144   4.895   6.622  0.1758 -0.0359 -0.1963
 1108YOPC   D2A12750  12.071   4.756   7.070 -0.3279 -0.0804 -0.0738
 1108YOPC   C3A12751  12.019   4.765   7.497  0.2614  0.1595  0.0773
 1108YOPC   C4A12752  11.793   4.550   7.830 -0.0244 -0.0376 -0.0091
 1108YOPC   C1B12753  12.123   4.294   6.766 -0.0391  0.0092  0.0461
 1108YOPC   C2B12754  12.188   4.274   7.212  0.0719 -0.1160  0.0089
 1108YOPC   D3B12755  11.944   3.976   7.654 -0.2474 -0.2448  0.1396
 1108YOPC   C4B12756  12.038   3.616   7.851 -0.0334 -0.1183  0.1064
 1109YOPC   NC312757   8.331   9.820   6.142  0.1899 -0.0601 -0.0554
 1109YOPC   PO412758   8.444   9.926   6.587  0.0569 -0.1404 -0.1640
 1109YOPC   GL112759   8.453   9.784   7.012 -0.1675 -0.1960  0.0742
 1109YOPC   GL212760   8.236  10.026   7.223 -0.2043 -0.0494 -0.0679
 1109YOPC   C1A12761   8.210   9.521   7.273  0.1582 -0.0477 -0.0118
 1109YOPC   D2A12762   8.135   9.502   7.646 -0.0884  0.0733 -0.0971
 1109YOPC   C3A12763   8.232   9.669   8.030 -0.1314  0.0243  0.1515
 1109YOPC   C4A12764   8.343   9.640   8.532 -0.1156  0.0754  0.0859
 1109YOPC   C1B12765   7.867   9.879   7.292 -0.5179 -0.2338  0.3348
 1109YOPC   C2B12766   7.706   9.670   7.683  0.0097  0.1420  0.0132
 1109YOPC   D3B12767   7.769   9.816   8.023 -0.0321 -0.1670  0.0984
 1109YOPC   C4B12768   7.820   9.860   8.502 -0.0533  0.0761  0.0723
 1110YOPC   NC312769  17.598   6.495   5.978 -0.0890 -0.0552 -0.1548
 1110YOPC   PO412770  17.197   6.410   6.130  0.1549 -0.0524 -0.0458
 1110YOPC   GL112771  17.079   6.330   6.494 -0.1230  0.2269 -0.1949
 1110YOPC   GL212772  17.381   6.166   6.591  0.0837 -0.3080 -0.4413
 1110YOPC   C1A12773  17.048   6.314   6.979 -0.0091  0.0170 -0.1868
 1110YOPC   D2A12774  17.185   6.087   7.249 -0.2254  0.0794 -0.0178
 1110YOPC   C3A12775  17.171   6.261   7.647 -0.1329 -0.0204  0.1772
 1110YOPC   C4A12776  17.245   6.399   8.091  0.0678  0.1251 -0.2755
 1110YOPC   C1B12777  17.455   5.855   6.895 -0.0581  0.0967  0.0530
 1110YOPC   C2B12778  17.500   5.725   7.381 -0.2544 -0.0595  0.0504
 1110YOPC   D3B12779  17.131   5.750   7.643  0.1699  0.0575 -0.0291
 1110YOPC   C4B12780  17.255   5.636   8.096 -0.2699  0.5548 -0.2323
 1111YOPC   NC312781  13.799   7.521   6.455  0.2140 -0.0388 -0.2066
 1111YOPC   PO412782  13.943   7.090   6.566 -0.2142 -0.0177 -0.1814
 1111YOPC   GL112783  13.951   7.275   6.904 -0.1442  0.0356  0.0677
 1111YOPC   GL212784  14.148   7.519   6.859  0.2950 -0.2150 -0.0849
 1111YOPC   C1A12785  13.782   7.233   7.297 -0.1843  0.2775  0.0592
 1111YOPC   D2A12786  13.821   7.405   7.712  0.2433 -0.0374  0.0960
 1111YOPC   C3A12787  13.947   7.255   8.147 -0.1409  0.0026 -0.1806
 1111YOPC   C4A12788  14.161   7.469   8.418  0.0099  0.3895 -0.2323
 1111YOPC   C1B12789  14.005   7.678   7.337  0.2415 -0.0244  0.2355
 1111YOPC   C2B12790  13.785   7.881   7.673 -0.0662 -0.0315  0.0597
 1111YOPC   D3B12791  13.833   7.798   8.109  0.1668  0.0066 -0.0996
 1111YOPC   C4B12792  13.795   7.900   8.596  0.1865  0.0093  0.1176
 1112YOPC   NC312793  11.594   3.676   5.420 -0.4033  0.0350  0.3523
 1112YOPC   PO412794  11.892   3.429   5.634 -0.0255  0.2195 -0.1786
 1112YOPC   GL112795  11.950   3.244   6.058  0.0971 -0.1667  0.2450
 1112YOPC   GL212796  12.012   2.977   6.129  0.2709  0.1002  0.2572
 1112YOPC   C1A12797  12.284   3.390   6.399  0.1704 -0.0401  0.2880
 1112YOPC   D2A12798  12.251   3.343   6.809 -0.1462  0.0145 -0.1848
 1112YOPC   C3A12799  12.192   3.168   7.216 -0.0768  0.0128 -0.3725
 1112YOPC   C4A12800  12.104   3.118   7.693 -0.2297 -0.2371 -0.0743
 1112YOPC   C1B12801  11.829   3.154   6.547 -0.0542 -0.2986 -0.1102
 1112YOPC   C2B12802  11.779   3.124   7.015  0.1813 -0.3157  0.0460
 1112YOPC   D3B12803  11.801   2.861   7.399  0.0393  0.3381 -0.0762
 1112YOPC   C4B12804  11.933   2.627   7.791  0.0377  0.2374  0.1895
 1113YOPC   NC312805  16.492  16.415   5.725 -0.1414  0.2211 -0.0446
 1113YOPC   PO412806  16.858  16.611   5.873  0.2601  0.1722 -0.2217
 1113YOPC   GL112807  16.790  16.504   6.295 -0.2441  0.0130  0.0667
 1113YOPC   GL212808  16.986  16.289   6.387 -0.2648  0.5037 -0.1423
 1113YOPC   C1A12809  16.466  16.557   6.528 -0.1647 -0.0355  0.2611
 1113YOPC   D2A12810  16.038  16.464   6.541  0.0443  0.1586 -0.2246
 1113YOPC   C3A12811  15.828  16.117   6.481  0.0889  0.0854 -0.4355
 1113YOPC   C4A12812  15.397  16.060   6.417 -0.1991 -0.0158  0.0065
 1113YOPC   C1B12813  17.037  16.532   6.759 -0.0417 -0.0349 -0.0483
 1113YOPC   C2B12814  17.012  16.564   7.138  0.1325 -0.1574  0.2875
 1113YOPC   D3B12815  17.089  16.236   7.369  0.0912 -0.1089  0.2531
 1113YOPC   C4B12816  16.930  15.814   7.323  0.1804  0.2388 -0.0561
 1114YOPC   NC312817  12.857  16.184   5.442  0.1248 -0.0693  0.3442
 1114YOPC   PO412818  12.731  16.612   5.671  0.2525 -0.2153 -0.0631
 1114YOPC   GL112819  12.826  16.743   6.142  0.5089 -0.1553 -0.0862
 1114YOPC   GL212820  13.220  16.840   6.123 -0.1167 -0.0070 -0.1130
 1114YOPC   C1A12821  12.554  16.824   6.509 -0.2197 -0.2984  0.2638
 1114YOPC   D2A12822  12.454  16.754   6.921 -0.2219  0.2014 -0.2192
 1114YOPC   C3A12823  12.691  16.932   7.342  0.0111 -0.1676 -0.1782
 1114YOPC   C4A12824  12.929  17.041   7.685 -0.5140 -0.1385  0.1406
 1114YOPC   C1B12825  13.185  16.836   6.547  0.2593 -0.3052  0.1224
 1114YOPC   C2B12826  12.991  16.849   6.941  0.1181 -0.1416  0.0867
 1114YOPC   D3B12827  13.210  17.052   7.246 -0.0339 -0.1194 -0.0044
 1114YOPC   C4B12828  13.617  17.063   7.319  0.0771  0.0894  0.2278
 1115YOPC   NC312829  10.060  15.034   5.733  0.1158 -0.1210  0.0728
 1115YOPC   PO412830  10.381  14.801   5.996 -0.0195 -0.0528 -0.1450
 1115YOPC   GL112831  10.485  14.888   6.402  0.1317 -0.0117 -0.2978
 1115YOPC   GL212832  10.854  14.748   6.478 -0.2364  0.2128 -0.2884
 1115YOPC   C1A12833  10.524  15.015   6.770  0.3240  0.2672 -0.0322
 1115YOPC   D2A12834  10.644  15.151   7.121  0.0456  0.0142 -0.0072
 1115YOPC   C3A12835  10.794  14.888   7.567 -0.0234 -0.2167 -0.1796
 1115YOPC   C4A12836  11.184  14.806   7.822  0.0971 -0.0237  0.2686
 1115YOPC   C1B12837  10.914  14.718   7.020  0.0047 -0.3115 -0.0254
 1115YOPC   C2B12838  11.138  14.589   7.387  0.1383  0.2888  0.1507
 1115YOPC   D3B12839  11.162  14.266   7.687  0.0289  0.1126  0.2513
 1115YOPC   C4B12840  11.202  14.079   8.100 -0.0860  0.0776  0.0117
 1116YOPC   NC312841  15.993   1.920   6.393 -0.1413 -0.0983  0.1277
 1116YOPC   PO412842  16.012   1.467   6.212  0.0227 -0.1894 -0.0273
 1116YOPC   GL112843  15.926   1.338   6.579 -0.1000  0.1048  0.0352
 1116YOPC   GL212844  15.948   1.537   6.763  0.1432 -0.0978  0.2979
 1116YOPC   C1A12845  15.871   0.970   6.785 -0.0003 -0.0400 -0.0253
 1116YOPC   D2A12846  15.701   0.941   7.175  0.0962  0.1236  0.3518
 1116YOPC   C3A12847  15.974   0.764   7.465 -0.1814 -0.0256  0.1596
 1116YOPC   C4A12848  15.921   0.356   7.613  0.0921 -0.0936 -0.0516
 1116YOPC   C1B12849  15.862   1.463   7.135 -0.0053  0.1555  0.2718
 1116YOPC   C2B12850  15.701   1.344   7.503  0.1186 -0.5281  0.2322
 1116YOPC   D3B12851  15.590   0.912   7.758 -0.2762  0.0979 -0.0253
 1116YOPC   C4B12852  15.797   0.607   8.107 -0.0889 -0.1876  0.1376
 1117YOPC   NC312853  11.073  12.889   6.304  0.2540 -0.1509  0.2190
 1117YOPC   PO412854  10.603  13.012   6.432 -0.1742 -0.0525  0.0092
 1117YOPC   GL112855  10.541  13.058   6.912 -0.0328 -0.0969  0.3891
 1117YOPC   GL212856  10.349  13.218   6.836 -0.0279 -0.1953  0.0117
 1117YOPC   C1A12857  10.465  13.153   7.341 -0.0144 -0.1408 -0.0749
 1117YOPC   D2A12858  10.292  13.249   7.605  0.1852  0.2920 -0.3204
 1117YOPC   C3A12859  10.462  13.072   7.969 -0.1403 -0.1644  0.2248
 1117YOPC   C4A12860  10.544  12.755   8.287  0.2441  0.3928 -0.0082
 1117YOPC   C1B12861  10.001  13.300   7.209  0.0702 -0.0596 -0.0249
 1117YOPC   C2B12862   9.952  13.620   7.433 -0.0442  0.0902  0.1839
 1117YOPC   D3B12863  10.206  13.745   7.758 -0.0610 -0.3618 -0.3835
 1117YOPC   C4B12864  10.397  13.594   8.094  0.0627 -0.1578  0.2364
 1118YOPC   NC312865  15.972   9.233   6.683  0.2114 -0.0008 -0.0223
 1118YOPC   PO412866  15.949   8.859   6.646  0.0454 -0.1921  0.2332
 1118YOPC   GL112867  15.921   8.708   7.013 -0.0499  0.0841 -0.0400
 1118YOPC   GL212868  15.607   8.718   7.190  0.3056  0.0009 -0.0260
 1118YOPC   C1A12869  16.038   8.664   7.480  0.0720  0.0052 -0.0016
 1118YOPC   D2A12870  16.028   8.616   7.951  0.1124 -0.1966 -0.1791
 1118YOPC   C3A12871  16.380   8.652   8.246 -0.2721 -0.0263 -0.1140
 1118YOPC   C4A12872  16.489   9.062   8.553 -0.0890  0.1359  0.1615
 1118YOPC   C1B12873  15.565   8.717   7.579 -0.0944  0.0046 -0.1571
 1118YOPC   C2B12874  15.649   8.975   7.938  0.0306  0.0674 -0.1199
 1118YOPC   D3B12875  16.130   9.111   7.785  0.0991  0.0440  0.0118
 1118YOPC   C4B12876  16.528   9.228   7.623  0.0373  0.1554 -0.0487
 1119YOPC   NC312877   4.378   4.381   6.644  0.2894  0.4636  0.2651
 1119YOPC   PO412878   4.023   4.214   6.627 -0.4251 -0.1557  0.1635
 1119YOPC   GL112879   4.145   4.087   6.995 -0.3851  0.2115 -0.2099
 1119YOPC   GL212880   4.385   4.274   7.187  0.0711  0.0623 -0.2546
 1119YOPC   C1A12881   4.086   3.895   7.443  0.3414 -0.4302 -0.1594
 1119YOPC   D2A12882   4.287   3.779   7.842 -0.0275  0.3738  0.2283
 1119YOPC   C3A12883   4.079   4.016   8.178  0.0548  0.0837 -0.1335
 1119YOPC   C4A12884   3.887   4.163   8.530  0.0457  0.2609 -0.0410
 1119YOPC   C1B12885   4.359   4.223   7.663 -0.2405  0.1005 -0.0425
 1119YOPC   C2B12886   4.514   4.331   8.087  0.0433 -0.5585  0.1035
 1119YOPC   D3B12887   4.965   4.210   8.264  0.0605  0.2879 -0.2717
 1119YOPC   C4B12888   5.170   4.346   8.611  0.3415 -0.2724  0.2794
 1120YOPC   NC312889   3.320   1.692   5.836  0.1957 -0.2155 -0.2262
 1120YOPC   PO412890   2.913   1.929   6.102  0.2398  0.0966 -0.0474
 1120YOPC   GL112891   2.627   1.830   6.421 -0.1671 -0.1931 -0.3122
 1120YOPC   GL212892   2.827   2.052   6.604 -0.0980  0.1976 -0.0614
 1120YOPC   C1A12893   2.693   1.660   6.849  0.2038  0.0270 -0.3528
 1120YOPC   D2A12894   2.674   1.606   7.266  0.2010 -0.0955 -0.2454
 1120YOPC   C3A12895   2.964   1.762   7.649 -0.1545  0.1212 -0.3363
 1120YOPC   C4A12896   2.907   1.876   8.083 -0.0633  0.3020  0.1782
 1120YOPC   C1B12897   2.986   1.979   7.007  0.4264 -0.0525 -0.0366
 1120YOPC   C2B12898   2.732   2.096   7.345 -0.3303 -0.1787 -0.3414
 1120YOPC   D3B12899   2.539   2.069   7.644 -0.0318 -0.0022  0.2434
 1120YOPC   C4B12900   2.542   2.248   8.058  0.0357  0.0042  0.0108
 1121YOPC   NC312901  11.052   8.784   6.583 -0.0303 -0.0884 -0.0599
 1121YOPC   PO412902  10.710   9.069   6.473  0.1160  0.0974  0.3634
 1121YOPC   GL112903  10.598   9.222   6.961  0.1260 -0.0509 -0.1830
 1121YOPC   GL212904  10.668   9.573   6.999 -0.0413 -0.2571  0.1972
 1121YOPC   C1A12905  10.264   9.377   7.266 -0.2534 -0.1509 -0.0702
 1121YOPC   D2A12906  10.197   9.441   7.724 -0.2558 -0.0370  0.1215
 1121YOPC   C3A12907  10.607   9.371   8.101 -0.0226  0.0272  0.1863
 1121YOPC   C4A12908  10.597   9.458   8.522  0.2005 -0.1518 -0.2279
 1121YOPC   C1B12909  11.026   9.681   7.244  0.1655  0.3008 -0.0111
 1121YOPC   C2B12910  11.421   9.716   7.521  0.1574 -0.1923 -0.3803
 1121YOPC   D3B12911  11.332   9.899   7.989  0.0631  0.2802  0.0857
 1121YOPC   C4B12912  11.296  10.032   8.418 -0.2244  0.2682  0.0964
 1122YOPC   NC312913   9.342  13.475   5.939 -0.0140 -0.1679 -0.1853
 1122YOPC   PO412914   9.124  13.368   6.277 -0.3021  0.0652  0.0033
 1122YOPC   GL112915   8.922  13.360   6.684 -0.2462  0.0126  0.1922
 1122YOPC   GL212916   8.494  13.264   6.667  0.1867  0.2105 -0.4476
 1122YOPC   C1A12917   8.849  13.285   7.173  0.0963 -0.3302 -0.0287
 1122YOPC   D2A12918   8.922  13.436   7.646 -0.1649  0.0496  0.0836
 1122YOPC   C3A12919   8.714  13.854   7.810 -0.1551  0.0246  0.0126
 1122YOPC   C4A12920   8.767  14.248   7.650  0.1249 -0.1650  0.0149
 1122YOPC   C1B12921   8.628  13.720   6.783  0.0392  0.1803  0.0238
 1122YOPC   C2B12922   9.077  13.705   7.030 -0.1271 -0.1169  0.1547
 1122YOPC   D3B12923   9.098  13.869   7.430  0.0890  0.1234 -0.0144
 1122YOPC   C4B12924   9.251  14.062   7.708  0.2686 -0.3302  0.1892
 1123YOPC   NC312925  12.022  11.213   6.451  0.0161 -0.2011  0.0574
 1123YOPC   PO412926  12.401  11.408   6.481  0.2111  0.0917  0.2294
 1123YOPC   GL112927  12.396  11.592   6.886  0.1155 -0.2106 -0.0174
 1123YOPC   GL212928  12.262  11.906   6.815  0.1927  0.2123  0.1010
 1123YOPC   C1A12929  12.435  11.809   7.279 -0.0280  0.0979  0.2055
 1123YOPC   D2A12930  12.606  12.095   7.395 -0.2253  0.2050  0.0450
 1123YOPC   C3A12931  12.709  12.473   7.436  0.0501 -0.1981  0.1474
 1123YOPC   C4A12932  12.517  12.847   7.483 -0.0004 -0.3570 -0.0213
 1123YOPC   C1B12933  11.957  11.886   7.141  0.0386  0.0177  0.0179
 1123YOPC   C2B12934  12.005  11.920   7.546  0.0548  0.1209  0.3303
 1123YOPC   D3B12935  12.378  12.010   7.903 -0.2215 -0.0821 -0.0024
 1123YOPC   C4B12936  12.888  12.094   7.905  0.1771 -0.1566 -0.0219
 1124YOPC   NC312937   7.385  12.742   6.226 -0.4178 -0.0168 -0.1348
 1124YOPC   PO412938   7.256  13.031   6.536  0.1274  0.4230 -0.0141
 1124YOPC   GL112939   7.349  13.282   6.812 -0.1712 -0.0636  0.0511
 1124YOPC   GL212940   7.102  13.349   6.951 -0.3725  0.2047 -0.0040
 1124YOPC   C1A12941   7.472  13.455   7.261 -0.1815  0.0719  0.0555
 1124YOPC   D2A12942   7.574  13.752   7.550  0.1819  0.4019  0.2148
 1124YOPC   C3A12943   7.364  13.953   7.918 -0.0063 -0.2528  0.0311
 1124YOPC   C4A12944   7.240  13.937   8.326 -0.0291  0.2155 -0.0609
 1124YOPC   C1B12945   6.998  13.182   7.428 -0.1194  0.2179  0.2800
 1124YOPC   C2B12946   6.711  13.300   7.686 -0.1925 -0.1646  0.0303
 1124YOPC   D3B12947   6.820  13.560   8.062 -0.3500 -0.0258 -0.2054
 1124YOPC   C4B12948   6.682  13.779   8.337 -0.1163 -0.1439 -0.1765
 1125YOPC   NC312949  13.236  14.630   6.177  0.0085  0.0701  0.0413
 1125YOPC   PO412950  13.226  15.088   6.154  0.0320 -0.2724  0.1188
 1125YOPC   GL112951  13.070  15.005   6.498  0.1208  0.1438 -0.1311
 1125YOPC   GL212952  12.802  14.878   6.349  0.3052  0.3209 -0.0827
 1125YOPC   C1A12953  13.232  14.966   6.861  0.1432  0.1464  0.3326
 1125YOPC   D2A12954  13.338  15.055   7.191  0.0676 -0.2254 -0.0790
 1125YOPC   C3A12955  13.258  14.729   7.440  0.1066 -0.2820  0.1747
 1125YOPC   C4A12956  13.328  14.823   7.911  0.0541 -0.1423  0.0965
 1125YOPC   C1B12957  12.693  14.864   6.807 -0.2064 -0.0442 -0.0108
 1125YOPC   C2B12958  12.863  15.050   7.146 -0.1255  0.0154 -0.0010
 1125YOPC   D3B12959  12.980  15.115   7.612  0.2624 -0.1105  0.2003
 1125YOPC   C4B12960  13.248  15.302   7.886  0.0609  0.2283  0.1300
 1126YOPC   NC312961  11.976   9.170   6.720 -0.1684  0.2026 -0.0930
 1126YOPC   PO412962  11.560   9.005   6.615  0.1519 -0.0509  0.1505
 1126YOPC   GL112963  11.485   8.910   7.023  0.0793 -0.1803 -0.1964
 1126YOPC   GL212964  11.327   8.697   6.983 -0.2006  0.1401 -0.0739
 1126YOPC   C1A12965  11.430   8.802   7.446 -0.2413  0.1860 -0.0231
 1126YOPC   D2A12966  11.187   8.696   7.878  0.0740  0.1918 -0.4061
 1126YOPC   C3A12967  11.315   8.852   8.269  0.0160 -0.1686 -0.0138
 1126YOPC   C4A12968  11.559   9.154   8.378 -0.1993  0.0311  0.2621
 1126YOPC   C1B12969  10.990   8.602   7.261 -0.1834  0.3054 -0.0955
 1126YOPC   C2B12970  10.777   8.676   7.621 -0.0438 -0.0377  0.3863
 1126YOPC   D3B12971  10.759   8.918   8.024  0.0747  0.2160 -0.1587
 1126YOPC   C4B12972  10.812   8.987   8.347  0.0439  0.2693 -0.1470
 1127YOPC   NC312973  10.718  14.460   6.009  0.2381  0.2562  0.1055
 1127YOPC   PO412974  11.133  14.495   6.089 -0.4250 -0.0188  0.3835
 1127YOPC   GL112975  11.259  14.346   6.463  0.1812  0.1206  0.0197
 1127YOPC   GL212976  11.410  14.022   6.557 -0.0673 -0.1278 -0.0826
 1127YOPC   C1A12977  11.188  14.334   6.910  0.1783 -0.0718  0.3696
 1127YOPC   D2A12978  10.806  14.238   7.047 -0.0074  0.1827 -0.1242
 1127YOPC   C3A12979  10.711  14.311   7.452 -0.0064  0.1051 -0.1421
 1127YOPC   C4A12980  10.713  14.048   7.743 -0.3158 -0.2147  0.1853
 1127YOPC   C1B12981  11.587  13.966   6.970  0.0417  0.2094 -0.1175
 1127YOPC   C2B12982  11.517  14.144   7.281 -0.0693  0.0426  0.1181
 1127YOPC   D3B12983  11.642  14.454   7.470  0.1093  0.2117 -0.0154
 1127YOPC   C4B12984  11.784  14.746   7.802 -0.0846  0.1861  0.1410
 1128YOPC   NC312985   0.947   3.736   6.036 -0.0399  0.2198 -0.2331
 1128YOPC   PO412986   1.101   3.563   6.388 -0.1989 -0.0752 -0.2185
 1128YOPC   GL112987   1.114   3.801   6.847 -0.1050 -0.0084  0.2237
 1128YOPC   GL212988   1.381   3.926   6.876 -0.3601  0.0768  0.0876
 1128YOPC   C1A12989   1.019   3.926   7.213  0.0173  0.1228 -0.1701
 1128YOPC   D2A12990   1.123   4.078   7.581 -0.4071 -0.1673  0.1826
 1128YOPC   C3A12991   0.812   3.834   7.853  0.1677 -0.0153 -0.1479
 1128YOPC   C4A12992   0.816   3.745   8.270  0.2023  0.0546  0.0266
 1128YOPC   C1B12993   1.542   3.898   7.316  0.3848 -0.2140  0.0074
 1128YOPC   C2B12994   1.633   4.013   7.769  0.0194 -0.2138  0.2014
 1128YOPC   D3B12995   1.365   4.062   8.035  0.1315 -0.1879  0.0910
 1128YOPC   C4B12996   1.307   4.198   8.494  0.0262  0.3215  0.2221
 1129YOPC   NC312997  14.878   3.710   5.988  0.0079  0.1303  0.4882
 1129YOPC   PO412998  14.383   3.661   5.984 -0.3615 -0.1554 -0.1063
 1129YOPC   GL112999  14.346   3.636   6.365 -0.2347 -0.0418  0.0674
 1129YOPC   GL213000  14.574   3.946   6.345 -0.0932 -0.1058  0.0798
 1129YOPC   C1A13001  14.361   3.887   6.788  0.0195 -0.1105 -0.0393
 1129YOPC   D2A13002  14.629   4.104   7.200 -0.2571 -0.1666 -0.0588
 1129YOPC   C3A13003  14.212   4.011   7.366 -0.1468 -0.3645 -0.0259
 1129YOPC   C4A13004  14.054   3.549   7.231 -0.0062 -0.2906  0.0183
 1129YOPC   C1B13005  14.869   3.912   6.703  0.0143 -0.0073 -0.2196
 1129YOPC   C2B13006  15.147   3.969   7.105  0.0812  0.0176  0.0199
 1129YOPC   D3B13007  15.037   3.840   7.503 -0.1926  0.0024 -0.1251
 1129YOPC   C4B13008  14.980   3.692   7.894  0.1105  0.1267 -0.0062
 1130YOPC   NC313009   8.758  17.852   4.865 -0.1409 -0.1513 -0.3078
 1130YOPC   PO413010   8.937  17.969   5.257  0.1394  0.0652  0.1666
 1130YOPC   GL113011   8.743  18.115   5.716  0.0079  0.1668  0.4029
 1130YOPC   GL213012   8.465  18.237   5.775  0.1526 -0.1911 -0.0625
 1130YOPC   C1A13013   8.695  17.876   6.108  0.3238  0.1522  0.1198
 1130YOPC   D2A13014   8.833  17.445   6.348  0.0382 -0.2150 -0.0758
 1130YOPC   C3A13015   9.084  17.238   6.620  0.0939  0.0359 -0.0003
 1130YOPC   C4A13016   8.969  16.944   6.889 -0.2531 -0.0802  0.0744
 1130YOPC   C1B13017   8.208  18.087   6.117  0.2382 -0.0162  0.1779
 1130YOPC   C2B13018   7.786  18.162   6.260  0.0072 -0.2445  0.0422
 1130YOPC   D3B13019   7.555  18.587   6.236 -0.1837  0.0101 -0.0495
 1130YOPC   C4B13020   7.805  18.910   5.980 -0.0423 -0.0551 -0.1913
 1131YOPC   NC313021   6.735  16.872   5.765  0.0329 -0.1620  0.1442
 1131YOPC   PO413022   6.760  17.385   5.700  0.2149  0.2777  0.0861
 1131YOPC   GL113023   6.652  17.708   5.971  0.1734  0.4031  0.2871
 1131YOPC   GL213024   6.923  17.721   6.061 -0.1239 -0.2240 -0.0882
 1131YOPC   C1A13025   6.489  17.942   6.300  0.2043 -0.0707 -0.3347
 1131YOPC   D2A13026   6.625  18.061   6.708 -0.1140 -0.1280 -0.3137
 1131YOPC   C3A13027   6.397  17.819   7.051 -0.2186  0.3333  0.0546
 1131YOPC   C4A13028   6.316  17.862   7.464  0.3384  0.0438  0.0513
 1131YOPC   C1B13029   7.299  17.848   6.087 -0.2378 -0.0398 -0.2126
 1131YOPC   C2B13030   7.337  18.187   6.465  0.0109  0.0963 -0.1793
 1131YOPC   D3B13031   7.522  18.060   6.850  0.2543  0.0395 -0.4982
 1131YOPC   C4B13032   7.669  17.820   7.197  0.1016 -0.0753  0.0725
 1132YOPC   NC313033   6.432  16.120   5.677  0.2294  0.2934  0.0487
 1132YOPC   PO413034   6.847  16.337   5.762 -0.0663  0.0312  0.1240
 1132YOPC   GL113035   7.063  16.567   6.127  0.2722 -0.1062 -0.0946
 1132YOPC   GL213036   7.133  16.325   6.354 -0.0572  0.0666  0.1602
 1132YOPC   C1A13037   7.067  16.819   6.481  0.0796 -0.0041 -0.2943
 1132YOPC   D2A13038   6.954  17.188   6.840  0.2467  0.0599 -0.2628
 1132YOPC   C3A13039   7.122  17.090   7.230 -0.2738 -0.0155 -0.0074
 1132YOPC   C4A13040   7.163  17.153   7.648  0.0752 -0.2698  0.1263
 1132YOPC   C1B13041   7.488  16.061   6.572  0.1613  0.2650 -0.0376
 1132YOPC   C2B13042   7.439  15.671   6.796  0.0887  0.0914  0.1808
 1132YOPC   D3B13043   7.626  15.566   7.329 -0.1267 -0.1125  0.1343
 1132YOPC   C4B13044   7.540  15.654   7.775  0.0904  0.0151  0.1951
 1133YOPC   NC313045   5.251   1.689   5.905 -0.2602 -0.1366 -0.2131
 1133YOPC   PO413046   5.067   1.274   6.100  0.1735  0.0394  0.1362
 1133YOPC   GL113047   5.375   1.277   6.247 -0.2113  0.0512  0.0385
 1133YOPC   GL213048   5.328   1.561   6.505  0.1864  0.0451  0.2357
 1133YOPC   C1A13049   5.798   1.203   6.467  0.0864 -0.1183 -0.0964
 1133YOPC   D2A13050   6.110   0.986   6.752  0.0197 -0.1047  0.0947
 1133YOPC   C3A13051   6.604   0.901   6.531  0.0120  0.0384  0.1517
 1133YOPC   C4A13052   7.094   0.869   6.514  0.3075  0.0659 -0.0947
 1133YOPC   C1B13053   5.258   1.345   6.854 -0.3086  0.0396  0.0582
 1133YOPC   C2B13054   4.881   1.359   7.146  0.3040  0.2385  0.1230
 1133YOPC   D3B13055   5.004   1.324   7.592  0.0237  0.0265 -0.2099
 1133YOPC   C4B13056   5.200   1.387   7.994 -0.0882 -0.1945  0.0404
 1134YOPC   NC313057  14.053   3.828   5.648 -0.0430 -0.0592  0.2050
 1134YOPC   PO413058  13.613   4.005   5.874 -0.0758  0.1260  0.3328
 1134YOPC   GL113059  13.553   4.164   6.251  0.1391  0.0382  0.2338
 1134YOPC   GL213060  13.764   4.150   6.482  0.2028 -0.1348 -0.1842
 1134YOPC   C1A13061  13.302   4.268   6.709 -0.3268 -0.3787  0.1814
 1134YOPC   D2A13062  13.525   4.329   7.134  0.0512 -0.1922 -0.2445
 1134YOPC   C3A13063  13.323   4.115   7.600  0.0691  0.0344  0.1387
 1134YOPC   C4A13064  13.504   3.984   7.968 -0.0830 -0.0131  0.0706
 1134YOPC   C1B13065  13.907   3.759   6.528  0.3121  0.0629  0.0613
 1134YOPC   C2B13066  13.673   3.444   6.779  0.0821 -0.1361  0.0553
 1134YOPC   D3B13067  13.502   3.446   7.145  0.0992 -0.2261 -0.0751
 1134YOPC   C4B13068  13.446   3.510   7.600  0.2555 -0.0160 -0.0190
 1135YOPC   NC313069   9.903  17.138   5.508  0.0595  0.0441 -0.0661
 1135YOPC   PO413070  10.372  17.082   5.550 -0.1754 -0.2468 -0.1637
 1135YOPC   GL113071  10.312  17.135   5.913 -0.0379 -0.0230 -0.2471
 1135YOPC   GL213072  10.501  17.262   6.050  0.1216 -0.1732 -0.0895
 1135YOPC   C1A13073  10.233  17.181   6.450 -0.1871  0.2748  0.0917
 1135YOPC   D2A13074   9.997  17.408   6.728  0.0871 -0.0034  0.2647
 1135YOPC   C3A13075  10.012  17.710   6.979 -0.1467 -0.1570  0.2541
 1135YOPC   C4A13076   9.988  17.854   7.443 -0.5101 -0.1160 -0.0022
 1135YOPC   C1B13077  10.727  17.169   6.349  0.1193  0.3395  0.0011
 1135YOPC   C2B13078  10.956  17.296   6.700 -0.2769 -0.0448 -0.1908
 1135YOPC   D3B13079  10.815  17.322   7.095  0.1080  0.0338  0.0632
 1135YOPC   C4B13080  10.592  17.090   7.440 -0.1097 -0.0494  0.0629
 1136YOPC   NC313081  13.790  11.064   6.078  0.1017  0.1339 -0.2976
 1136YOPC   PO413082  13.978  11.422   6.288  0.2369 -0.1093 -0.0053
 1136YOPC   GL113083  14.175  11.275   6.740 -0.0485 -0.0643 -0.3654
 1136YOPC   GL213084  14.120  10.951   6.828  0.0504 -0.3391 -0.2663
 1136YOPC   C1A13085  14.239  11.319   7.155 -0.0725  0.2348 -0.0834
 1136YOPC   D2A13086  14.325  11.387   7.567  0.1128  0.1812  0.1569
 1136YOPC   C3A13087  13.891  11.484   7.893  0.1329  0.1183 -0.1682
 1136YOPC   C4A13088  13.678  11.569   8.175  0.1077 -0.3780 -0.2131
 1136YOPC   C1B13089  13.788  11.235   7.133  0.0907 -0.0397  0.3185
 1136YOPC   C2B13090  13.950  11.649   7.422  0.1866 -0.3547 -0.2656
 1136YOPC   D3B13091  13.712  11.959   7.752  0.1852 -0.1741 -0.1186
 1136YOPC   C4B13092  13.980  11.962   8.184 -0.0054  0.1375 -0.0280
 1137YOPC   NC313093  16.438  13.222   6.019  0.0925  0.0984 -0.0173
 1137YOPC   PO413094  16.099  13.538   6.181 -0.0954 -0.0333  0.0437
 1137YOPC   GL113095  16.167  13.249   6.481 -0.0480  0.1614 -0.0368
 1137YOPC   GL213096  16.272  12.940   6.420  0.0897 -0.0479 -0.1080
 1137YOPC   C1A13097  16.052  13.131   6.820  0.4077  0.0759 -0.0890
 1137YOPC   D2A13098  15.922  13.036   7.295  0.2363 -0.2021  0.1566
 1137YOPC   C3A13099  15.697  13.301   7.623  0.0392  0.0863  0.0514
 1137YOPC   C4A13100  15.600  13.674   7.858  0.1939 -0.3423 -0.1005
 1137YOPC   C1B13101  16.321  12.702   6.840  0.2006 -0.4347 -0.0875
 1137YOPC   C2B13102  16.231  12.673   7.296 -0.3303 -0.0654 -0.1511
 1137YOPC   D3B13103  16.386  12.748   7.702 -0.0013 -0.1590 -0.0811
 1137YOPC   C4B13104  16.335  13.020   8.033  0.1052 -0.2238  0.0046
 1138YOPC   NC313105   9.969  16.489   5.555  0.0546  0.0795 -0.0155
 1138YOPC   PO413106   9.695  16.384   5.790 -0.1959 -0.1523 -0.1907
 1138YOPC   GL113107   9.721  16.174   6.221 -0.2449  0.0683  0.0137
 1138YOPC   GL213108   9.393  16.176   6.348  0.1450 -0.2146 -0.2722
 1138YOPC   C1A13109   9.926  16.273   6.603  0.0311  0.2063  0.1115
 1138YOPC   D2A13110   9.908  16.387   7.004 -0.3386 -0.0131  0.1825
 1138YOPC   C3A13111  10.254  16.663   7.230 -0.2156 -0.0949  0.1222
 1138YOPC   C4A13112  10.743  16.622   7.297 -0.3139  0.0648  0.0577
 1138YOPC   C1B13113   9.444  16.372   6.651  0.0796  0.1234  0.0424
 1138YOPC   C2B13114   9.415  16.696   6.985  0.1385 -0.0946 -0.2568
 1138YOPC   D3B13115   9.297  16.930   7.328  0.0232  0.0082 -0.0467
 1138YOPC   C4B13116   9.245  17.354   7.548 -0.4190  0.1179 -0.0164
 1139YOPC   NC313117  12.680   2.393   5.600  0.0830 -0.1206  0.1639
 1139YOPC   PO413118  13.104   2.438   5.758 -0.2214  0.0940 -0.0103
 1139YOPC   GL113119  13.117   2.171   6.246 -0.2754 -0.2190  0.0237
 1139YOPC   GL213120  12.945   2.308   6.480  0.0593 -0.0283 -0.2554
 1139YOPC   C1A13121  13.462   2.343   6.605  0.3100  0.0338 -0.2007
 1139YOPC   D2A13122  13.545   2.297   7.049 -0.0907  0.1240 -0.1205
 1139YOPC   C3A13123  13.557   2.472   7.416 -0.0505  0.2463 -0.0796
 1139YOPC   C4A13124  13.294   2.357   7.765  0.0066  0.1702  0.0190
 1139YOPC   C1B13125  13.087   2.214   6.910  0.2100  0.0433 -0.1787
 1139YOPC   C2B13126  13.032   2.233   7.389 -0.2377 -0.0097  0.1026
 1139YOPC   D3B13127  12.587   2.136   7.596 -0.2057 -0.0891 -0.3520
 1139YOPC   C4B13128  12.314   1.851   7.794  0.3273 -0.1445  0.0550
 1140YOPC   NC313129   3.946   8.286   6.374 -0.0548  0.0515 -0.2068
 1140YOPC   PO413130   4.295   8.586   6.497 -0.0998 -0.0626  0.3074
 1140YOPC   GL113131   4.171   8.730   6.973 -0.0524  0.0437  0.0922
 1140YOPC   GL213132   4.075   9.027   7.018  0.1180 -0.2094 -0.1387
 1140YOPC   C1A13133   3.998   8.627   7.415 -0.1897 -0.1618 -0.1036
 1140YOPC   D2A13134   3.810   8.343   7.754 -0.1880  0.1533  0.1161
 1140YOPC   C3A13135   3.719   8.439   8.187  0.1653 -0.1011  0.1750
 1140YOPC   C4A13136   3.994   8.407   8.638 -0.4228  0.2187 -0.1278
 1140YOPC   C1B13137   4.074   9.110   7.421 -0.0013  0.1041  0.1983
 1140YOPC   C2B13138   4.098   9.229   7.804 -0.2609  0.1069 -0.0245
 1140YOPC   D3B13139   4.501   9.115   8.034  0.1094 -0.0145 -0.0459
 1140YOPC   C4B13140   4.707   8.688   8.079  0.0542  0.0917 -0.1788
 1141ERGO   ROH13141  12.888  12.155   9.946  0.0784 -0.1866  0.0343
 1141ERGO    R113142  12.959  12.065   9.688 -0.0138 -0.1468 -0.0051
 1141ERGO    R213143  12.771  12.009   9.493 -0.0786 -0.0141  0.0182
 1141ERGO    R313144  12.918  12.184   9.346 -0.0345 -0.0366  0.0351
 1141ERGO    R413145  12.797  12.004   9.148 -0.1473  0.0617  0.0117
 1141ERGO    R513146  13.009  12.051   9.169 -0.1230 -0.0304 -0.0163
 1141ERGO    C113147  12.950  12.166   8.810 -0.1459  0.0845  0.0238
 1141ERGO    C213148  12.706  12.128   8.407 -0.1557 -0.0804 -0.1412
 1142ERGO   ROH13149  15.250  16.473   6.099  0.0124  0.0428 -0.0696
 1142ERGO    R113150  15.163  16.586   6.343 -0.0027  0.0014 -0.0546
 1142ERGO    R213151  14.918  16.526   6.456 -0.0718  0.0849 -0.1467
 1142ERGO    R313152  15.069  16.464   6.673 -0.1628 -0.0717 -0.1275
 1142ERGO    R413153  14.797  16.495   6.778 -0.1660  0.0314 -0.1876
 1142ERGO    R513154  14.976  16.597   6.849 -0.1355 -0.0900 -0.1044
 1142ERGO    C113155  14.868  16.420   7.169 -0.3062 -0.1466 -0.1932
 1142ERGO    C213156  14.666  16.486   7.550 -0.3359  0.1537 -0.0947
 1143ERGO   ROH13157  17.569  18.094   9.872 -0.1196 -0.0447  0.1113
 1143ERGO    R113158  17.468  18.126   9.610 -0.1088 -0.0756  0.1031
 1143ERGO    R213159  17.570  18.312   9.431 -0.0438 -0.1553  0.0550
 1143ERGO    R313160  17.597  18.094   9.271 -0.1194 -0.2062  0.1112
 1143ERGO    R413161  17.590  18.320   9.087 -0.0545 -0.2544  0.0519
 1143ERGO    R513162  17.464  18.144   9.079 -0.1103 -0.2156  0.1034
 1143ERGO    C113163  17.627  18.121   8.735 -0.1313 -0.3598  0.1028
 1143ERGO    C213164  17.503  18.126   8.395  0.0458 -0.3873  0.3348
 1144ERGO   ROH13165   1.093   8.907  10.312  0.2278 -0.2083  0.0090
 1144ERGO    R113166   1.161   9.098  10.115  0.2958 -0.2700 -0.0283
 1144ERGO    R213167   1.260   9.028   9.867 -0.0119 -0.3694 -0.1276
 1144ERGO    R313168   1.053   9.180   9.777  0.0951 -0.0963  0.0758
 1144ERGO    R413169   1.218   9.132   9.540 -0.1946 -0.3130 -0.0877
 1144ERGO    R513170   1.152   9.326   9.615  0.1302 -0.2239 -0.0181
 1144ERGO    C113171   1.000   9.335   9.265 -0.2005 -0.0237  0.1264
 1144ERGO    C213172   0.925   9.427   8.937 -0.3308  0.1294  0.3619
 1145ERGO   ROH13173  15.346   2.664   9.568 -0.1871 -0.2490 -0.0367
 1145ERGO    R113174  15.433   2.728   9.306 -0.2666 -0.1344 -0.0360
 1145ERGO    R213175  15.672   2.636   9.202 -0.1758  0.1194 -0.0603
 1145ERGO    R313176  15.512   2.544   9.002 -0.0961 -0.0259 -0.0575
 1145ERGO    R413177  15.765   2.608   8.870 -0.0994  0.0219 -0.0312
 1145ERGO    R513178  15.567   2.679   8.813 -0.1144 -0.0819 -0.1009
 1145ERGO    C113179  15.668   2.505   8.490  0.0198 -0.1712 -0.0116
 1145ERGO    C213180  15.609   2.257   8.178 -0.2675 -0.1488 -0.0847
 1146ERGO   ROH13181  16.715   4.654   9.945 -0.0440 -0.1053  0.0379
 1146ERGO    R113182  16.678   4.512   9.703  0.2072 -0.2463  0.0774
 1146ERGO    R213183  16.584   4.633   9.473 -0.2178 -0.5146  0.0919
 1146ERGO    R313184  16.811   4.530   9.364  0.0184  0.0489  0.0170
 1146ERGO    R413185  16.629   4.564   9.137 -0.1477 -0.4211  0.0824
 1146ERGO    R513186  16.733   4.381   9.194  0.3383 -0.1619  0.0535
 1146ERGO    C113187  16.868   4.426   8.840  0.1147  0.1623  0.0067
 1146ERGO    C213188  17.078   4.377   8.474 -0.3018  0.1084  0.1046
 1147ERGO   ROH13189  13.649   8.427  10.738  0.1103  0.2049  0.0981
 1147ERGO    R113190  13.579   8.362  10.472  0.0372  0.0611  0.1512
 1147ERGO    R213191  13.435   8.534  10.310 -0.0638 -0.0539  0.1194
 1147ERGO    R313192  13.645   8.498  10.141 -0.1122 -0.0757  0.0631
 1147ERGO    R413193  13.418   8.561   9.966 -0.0947  0.2327  0.1410
 1147ERGO    R513194  13.550   8.388   9.950 -0.2231  0.1438 -0.0137
 1147ERGO    C113195  13.605   8.543   9.606 -0.1584  0.3793  0.1008
 1147ERGO    C213196  13.602   8.566   9.226 -0.0119  0.0324 -0.0129
 1148ERGO   ROH13197  18.076   3.701   6.786 -0.1072  0.1220  0.1051
 1148ERGO    R113198  18.088   3.780   7.058 -0.0207  0.1008  0.1092
 1148ERGO    R213199  18.153   3.605   7.262 -0.0288  0.0636  0.0873
 1148ERGO    R313200  18.341   3.793   7.319  0.0438  0.0013  0.0503
 1148ERGO    R413201  18.310   3.643   7.568 -0.1049  0.1488  0.1149
 1148ERGO    R513202  18.294   3.858   7.544  0.0074  0.1408 -0.0005
 1148ERGO    C113203  18.577   3.842   7.799 -0.0812  0.1399  0.0962
 1148ERGO    C213204  18.591   3.943   8.079  0.1556  0.0929 -0.2205
 1149ERGO   ROH13205   4.589   9.300   6.996 -0.0067  0.2031 -0.0465
 1149ERGO    R113206   4.616   9.450   7.235 -0.0451  0.1050  0.0205
 1149ERGO    R213207   4.404   9.499   7.405 -0.0623 -0.0175  0.0415
 1149ERGO    R313208   4.570   9.389   7.591 -0.0389 -0.0649 -0.0081
 1149ERGO    R413209   4.440   9.612   7.729  0.0278 -0.0745  0.0513
 1149ERGO    R513210   4.654   9.577   7.713  0.0140 -0.1006  0.0024
 1149ERGO    C113211   4.616   9.575   8.093  0.1022 -0.1523  0.0106
 1149ERGO    C213212   4.476   9.744   8.333 -0.0193 -0.1649  0.1865
 1150ERGO   ROH13213   9.775   4.379   9.601 -0.0700  0.2246 -0.0505
 1150ERGO    R113214   9.871   4.431   9.340  0.1220  0.0082 -0.0247
 1150ERGO    R213215  10.016   4.246   9.195 -0.0858 -0.2471  0.0983
 1150ERGO    R313216   9.823   4.290   9.008  0.0614 -0.0201 -0.0060
 1150ERGO    R413217  10.025   4.125   8.871 -0.1705 -0.4964  0.1854
 1150ERGO    R513218   9.945   4.316   8.803  0.2039 -0.3846  0.0186
 1150ERGO    C113219   9.850   4.096   8.507 -0.0818 -0.4285  0.1382
 1150ERGO    C213220  10.051   3.737   8.451 -0.2557 -0.2373  0.0467
 1151ERGO   ROH13221   1.329   1.929   6.853 -0.0477  0.0096 -0.1142
 1151ERGO    R113222   1.186   1.983   7.092  0.0282  0.1309 -0.0963
 1151ERGO    R213223   1.106   1.784   7.266 -0.1860  0.1909 -0.1295
 1151ERGO    R313224   1.239   1.936   7.449 -0.0039  0.0090 -0.1063
 1151ERGO    R413225   1.071   1.755   7.608 -0.1908  0.1461 -0.1331
 1151ERGO    R513226   1.078   1.973   7.622  0.0454  0.1422 -0.0840
 1151ERGO    C113227   1.176   1.880   7.979 -0.0226 -0.0507 -0.1134
 1151ERGO    C213228   0.909   1.923   8.312 -0.2582  0.0983  0.1725
 1152ERGO   ROH13229   0.592   2.857   6.681 -0.0810 -0.1990  0.0034
 1152ERGO    R113230   0.574   2.873   6.963  0.0193 -0.1646  0.0086
 1152ERGO    R213231   0.352   2.786   7.103 -0.0030  0.0081  0.0862
 1152ERGO    R313232   0.536   2.638   7.239 -0.0666 -0.1175  0.0361
 1152ERGO    R413233   0.327   2.697   7.436 -0.0344 -0.0933  0.0570
 1152ERGO    R513234   0.541   2.736   7.458 -0.0195 -0.1945  0.0678
 1152ERGO    C113235   0.485   2.507   7.758 -0.1125 -0.2703 -0.0069
 1152ERGO    C213236   0.197   2.472   8.073  0.1744  0.0554  0.2118
 1153ERGO   ROH13237  11.706   1.794   9.290 -0.2035 -0.1123 -0.0981
 1153ERGO    R113238  11.801   1.711   9.036 -0.2322 -0.0541 -0.1302
 1153ERGO    R213239  11.735   1.842   8.802 -0.1805  0.0624 -0.0892
 1153ERGO    R313240  12.004   1.853   8.770 -0.1762 -0.0279 -0.0708
 1153ERGO    R413241  11.895   1.936   8.511 -0.1214  0.1741 -0.0194
 1153ERGO    R513242  12.040   1.778   8.545 -0.1919  0.0979 -0.1107
 1153ERGO    C113243  12.241   2.002   8.311 -0.0829  0.1544  0.0386
 1153ERGO    C213244  12.294   2.241   8.083  0.2414 -0.1397  0.1436
 1154ERGO   ROH13245  10.895   1.152   6.064  0.1826  0.3393  0.0429
 1154ERGO    R113246  10.987   1.012   6.292 -0.0103  0.2002  0.0375
 1154ERGO    R213247  11.103   1.140   6.508 -0.0305  0.0510  0.1356
 1154ERGO    R313248  10.911   1.008   6.648 -0.1773  0.1197  0.0025
 1154ERGO    R413249  11.049   1.172   6.848 -0.0339 -0.1737  0.1580
 1154ERGO    R513250  11.014   0.957   6.858 -0.2457 -0.1548 -0.0241
 1154ERGO    C113251  10.837   1.067   7.177 -0.1737 -0.2400  0.0461
 1154ERGO    C213252  10.729   1.133   7.494  0.1948 -0.0954 -0.1492
 1155ERGO   ROH13253   6.992  11.734  10.387  0.0454 -0.1798  0.0378
 1155ERGO    R113254   6.874  11.716  10.130 -0.0217 -0.1679  0.0679
 1155ERGO    R213255   6.996  11.815   9.903 -0.1530 -0.0152  0.0636
 1155ERGO    R313256   6.958  11.562   9.811 -0.0223 -0.0097 -0.0101
 1155ERGO    R413257   7.009  11.721   9.571 -0.2678  0.1225  0.0191
 1155ERGO    R513258   6.838  11.591   9.606 -0.1574 -0.0145  0.0656
 1155ERGO    C113259   6.980  11.429   9.291 -0.2121  0.2079 -0.0760
 1155ERGO    C213260   7.097  11.285   8.990  0.1096 -0.1027  0.0950
 1156ERGO   ROH13261  14.171  10.461   7.109  0.0238  0.0670 -0.0612
 1156ERGO    R113262  14.240  10.671   7.286  0.0011  0.0088  0.0162
 1156ERGO    R213263  14.068  10.881   7.343 -0.0055 -0.0136  0.0646
 1156ERGO    R313264  14.113  10.804   7.600 -0.0353 -0.0940  0.0466
 1156ERGO    R413265  13.912  11.016   7.620  0.0913  0.0301  0.0993
 1156ERGO    R513266  14.101  11.008   7.726  0.0966 -0.1080  0.0874
 1156ERGO    C113267  13.862  11.023   8.022  0.1195 -0.0200  0.1026
 1156ERGO    C213268  13.552  11.048   8.182 -0.2524  0.1701 -0.1269
 1157ERGO   ROH13269   8.343   1.990   5.743  0.0790  0.1858  0.1120
 1157ERGO    R113270   8.192   1.902   5.966  0.0203  0.3679  0.1465
 1157ERGO    R213271   8.233   1.656   6.085 -0.3574  0.2437  0.0363
 1157ERGO    R313272   8.261   1.805   6.310  0.0114  0.1186  0.0795
 1157ERGO    R413273   8.220   1.532   6.407 -0.2116  0.1250 -0.0028
 1157ERGO    R513274   8.106   1.709   6.465  0.0386  0.2299  0.1746
 1157ERGO    C113275   8.239   1.600   6.806  0.2195 -0.0615  0.0151
 1157ERGO    C213276   8.312   1.599   7.090 -0.1511  0.0478  0.1682
 1158ERGO   ROH13277   7.994  12.585   6.998  0.0332  0.2274  0.0539
 1158ERGO    R113278   7.951  12.619   7.275  0.2049  0.1103  0.0960
 1158ERGO    R213279   8.149  12.575   7.463  0.4046  0.3019 -0.0676
 1158ERGO    R313280   8.087  12.828   7.540  0.1591  0.2130  0.0399
 1158ERGO    R413281   8.206  12.705   7.779  0.3292  0.2360 -0.0263
 1158ERGO    R513282   8.012  12.805   7.766  0.2207  0.0464  0.0465
 1158ERGO    C113283   8.180  13.018   8.034  0.0548  0.1142  0.0987
 1158ERGO    C213284   8.144  13.132   8.178  0.0461  0.0154  0.0624
 1159ERGO   ROH13285  15.834  16.027   9.821  0.0535  0.0495  0.1491
 1159ERGO    R113286  15.770  16.021   9.545  0.0468  0.2479  0.1453
 1159ERGO    R213287  15.943  16.115   9.350  0.2497 -0.0545  0.1768
 1159ERGO    R313288  15.907  15.867   9.245 -0.2569  0.0352  0.1100
 1159ERGO    R413289  15.987  16.032   9.017  0.3283 -0.0913  0.1962
 1159ERGO    R513290  15.810  15.906   9.030  0.0031  0.3153  0.0326
 1159ERGO    C113291  15.979  15.751   8.725 -0.1016 -0.0284  0.1447
 1159ERGO    C213292  15.870  15.612   8.410 -0.0316  0.1961 -0.0157
 1160ERGO   ROH13293   9.597   6.840   6.766 -0.0357  0.0033  0.1223
 1160ERGO    R113294   9.629   7.021   6.982 -0.1966  0.0485  0.1105
 1160ERGO    R213295   9.491   6.993   7.220 -0.1121 -0.1078  0.1486
 1160ERGO    R313296   9.740   7.002   7.328 -0.0924  0.1847  0.0836
 1160ERGO    R413297   9.562   6.963   7.557  0.0111  0.1010  0.1424
 1160ERGO    R513298   9.711   7.119   7.535 -0.1518  0.2394  0.0408
 1160ERGO    C113299   9.837   6.953   7.854  0.1013  0.4972  0.0777
 1160ERGO    C213300   9.865   6.791   8.144 -0.0707 -0.1503  0.3652
 1161ERGO   ROH13301   0.794   7.434   6.707 -0.1549 -0.1253  0.0201
 1161ERGO    R113302   0.804   7.574   6.953  0.0281 -0.0106 -0.0487
 1161ERGO    R213303   0.580   7.611   7.112  0.1111  0.1912  0.0348
 1161ERGO    R313304   0.739   7.499   7.303  0.1331  0.1906  0.0142
 1161ERGO    R413305   0.513   7.611   7.451  0.1670  0.1971  0.0450
 1161ERGO    R513306   0.724   7.649   7.488  0.1684  0.1891  0.0130
 1161ERGO    C113307   0.621   7.506   7.827  0.2202  0.2000  0.0315
 1161ERGO    C213308   0.624   7.298   8.178  0.0883  0.4075 -0.0100
 1162ERGO   ROH13309  13.544  15.924   6.248  0.0895  0.1471 -0.1433
 1162ERGO    R113310  13.706  16.042   6.448  0.0916  0.0266 -0.0732
 1162ERGO    R213311  13.938  16.180   6.388  0.1879 -0.0969  0.0230
 1162ERGO    R313312  13.819  16.378   6.532  0.2558 -0.0483  0.0136
 1162ERGO    R413313  14.103  16.450   6.527  0.2579 -0.0441 -0.1599
 1162ERGO    R513314  13.977  16.430   6.704  0.3467  0.0155 -0.0851
 1162ERGO    C113315  14.088  16.793   6.742  0.3623  0.0323 -0.2754
 1162ERGO    C213316  14.311  16.918   6.835  0.1439  0.0716 -0.1124
 1163ERGO   ROH13317   8.876  16.154   6.239 -0.1110  0.0369 -0.0839
 1163ERGO    R113318   8.649  16.126   6.406 -0.0506 -0.0364 -0.0134
 1163ERGO    R213319   8.600  15.897   6.553  0.0901 -0.0382  0.0356
 1163ERGO    R313320   8.588  16.071   6.761  0.0782 -0.0117  0.0125
 1163ERGO    R413321   8.462  15.827   6.862  0.1360 -0.0166  0.0610
 1163ERGO    R513322   8.376  16.028   6.864  0.0991 -0.0350  0.0418
 1163ERGO    C113323   8.370  15.951   7.237  0.1516  0.0208  0.0543
 1163ERGO    C213324   8.368  16.092   7.457 -0.0226  0.1803  0.1420
 1164ERGO   ROH13325   5.533   8.243   6.804 -0.2601 -0.2112  0.1943
 1164ERGO    R113326   5.474   8.288   7.077  0.0251 -0.1043  0.2425
 1164ERGO    R213327   5.651   8.410   7.250  0.1442  0.1151 -0.0292
 1164ERGO    R313328   5.440   8.576   7.296  0.0797 -0.0059  0.1232
 1164ERGO    R413329   5.653   8.674   7.473  0.1395  0.0886  0.0027
 1164ERGO    R513330   5.450   8.620   7.532  0.2038 -0.0310  0.1244
 1164ERGO    C113331   5.456   8.984   7.647  0.0762 -0.0403  0.1644
 1164ERGO    C213332   5.471   9.285   7.786  0.1142  0.4897  0.3609
 1165ERGO   ROH13333  15.974   9.591   7.049 -0.1877 -0.0824 -0.0608
 1165ERGO    R113334  15.900   9.688   7.304  0.0378 -0.1020  0.0139
 1165ERGO    R213335  15.732   9.549   7.473  0.0124 -0.0148  0.0610
 1165ERGO    R313336  15.937   9.579   7.650  0.1389 -0.2476 -0.0419
 1165ERGO    R413337  15.728   9.439   7.801  0.0178  0.0628  0.0872
 1165ERGO    R513338  15.829   9.624   7.859  0.2937 -0.0553  0.0002
 1165ERGO    C113339  15.918   9.403   8.157  0.1397 -0.1106  0.0057
 1165ERGO    C213340  16.052   9.056   8.307  0.2125  0.2390 -0.0867
 1166ERGO   ROH13341  14.441  17.162   9.412 -0.1028  0.2447 -0.0476
 1166ERGO    R113342  14.516  17.104   9.145  0.1121  0.2133  0.0169
 1166ERGO    R213343  14.338  17.004   8.959  0.3131 -0.0269 -0.0577
 1166ERGO    R313344  14.421  17.218   8.813  0.1994  0.0004 -0.0819
 1166ERGO    R413345  14.350  17.016   8.614  0.4496 -0.1063 -0.0558
 1166ERGO    R513346  14.539  17.123   8.629  0.3540  0.0502 -0.0060
 1166ERGO    C113347  14.435  17.224   8.276  0.4223 -0.1272 -0.0776
 1166ERGO    C213348  14.488  17.332   7.939  0.1347 -0.3824 -0.0079
 1167ERGO   ROH13349  16.590  13.098   6.859 -0.0199  0.1183 -0.1064
 1167ERGO    R113350  16.500  13.086   7.127 -0.1724  0.0863 -0.1575
 1167ERGO    R213351  16.601  13.249   7.325  0.0264 -0.2231  0.0082
 1167ERGO    R313352  16.338  13.311   7.363  0.1085  0.2129 -0.0826
 1167ERGO    R413353  16.462  13.338   7.629 -0.0318 -0.5482  0.0807
 1167ERGO    R513354  16.287  13.218   7.578 -0.2373 -0.1174 -0.2981
 1167ERGO    C113355  16.135  13.448   7.842  0.0116 -0.3283  0.0377
 1167ERGO    C213356  16.180  13.820   7.944  0.0075 -0.1395  0.2284
 1168ERGO   ROH13357  17.588  16.546   6.923  0.2024 -0.1260  0.0814
 1168ERGO    R113358  17.504  16.438   7.171  0.0443 -0.0330  0.0696
 1168ERGO    R213359  17.683  16.354   7.365 -0.0777 -0.1678  0.1240
 1168ERGO    R313360  17.541  16.524   7.523  0.0239 -0.0324  0.0717
 1168ERGO    R413361  17.657  16.329   7.708 -0.1804 -0.1093  0.1215
 1168ERGO    R513362  17.447  16.383   7.692 -0.1334  0.0629  0.0657
 1168ERGO    C113363  17.510  16.474   8.057 -0.1449  0.0519  0.0709
 1168ERGO    C213364  17.634  16.454   8.361  0.0542 -0.4090  0.3396
 1169ERGO   ROH13365  17.017   4.553   6.290  0.0591  0.0870 -0.0488
 1169ERGO    R113366  17.168   4.668   6.500 -0.0401  0.0908  0.0220
 1169ERGO    R213367  17.069   4.870   6.661 -0.1508  0.0320  0.0336
 1169ERGO    R313368  17.138   4.700   6.861 -0.1642  0.0100  0.0186
 1169ERGO    R413369  17.079   4.954   6.996 -0.2533 -0.0322  0.0526
 1169ERGO    R513370  17.261   4.836   7.015 -0.2340  0.0059  0.0763
 1169ERGO    C113371  17.149   4.843   7.379 -0.3261 -0.0902  0.0495
 1169ERGO    C213372  16.976   4.804   7.587  0.1364  0.0345 -0.0962
 1170ERGO   ROH13373  18.163   8.998  10.460 -0.1752  0.2032 -0.1159
 1170ERGO    R113374  18.235   9.106  10.208 -0.1949  0.1717 -0.1348
 1170ERGO    R213375  18.385   8.966  10.024  0.1758  0.3091  0.0521
 1170ERGO    R313376  18.176   9.024   9.859  0.1766 -0.1538 -0.1271
 1170ERGO    R413377  18.406   8.991   9.680  0.3256 -0.0042  0.0344
 1170ERGO    R513378  18.272   9.163   9.689  0.0692 -0.1827 -0.2121
 1170ERGO    C113379  18.223   9.060   9.325  0.4134 -0.6212 -0.1441
 1170ERGO    C213380  18.191   9.304   9.077 -0.2431 -0.0208 -0.0597
 1171ERGO   ROH13381  15.600   1.649   6.386  0.2082  0.0768  0.0645
 1171ERGO    R113382  15.440   1.569   6.606  0.2403  0.1329  0.1081
 1171ERGO    R213383  15.353   1.309   6.640 -0.1059  0.2260 -0.0404
 1171ERGO    R313384  15.470   1.336   6.884  0.0979 -0.1298 -0.0923
 1171ERGO    R413385  15.223   1.185   6.935 -0.1658  0.2984 -0.0356
 1171ERGO    R513386  15.286   1.369   7.034  0.2428  0.1330  0.0358
 1171ERGO    C113387  15.258   1.137   7.336 -0.0093  0.0066 -0.0815
 1171ERGO    C213388  15.093   0.899   7.572  0.2036 -0.4321 -0.1600
 1172ERGO   ROH13389   7.727  15.344   9.792 -0.1169  0.1309 -0.0694
 1172ERGO    R113390   7.606  15.379   9.538  0.0092  0.2667 -0.1119
 1172ERGO    R213391   7.749  15.449   9.312  0.2019 -0.0884 -0.1017
 1172ERGO    R313392   7.632  15.226   9.209 -0.1972  0.0877 -0.0493
 1172ERGO    R413393   7.767  15.351   8.981  0.0262 -0.1860 -0.0840
 1172ERGO    R513394   7.557  15.293   8.992 -0.0872  0.1821 -0.0632
 1172ERGO    C113395   7.667  15.086   8.691 -0.4508 -0.0773 -0.0245
 1172ERGO    C213396   7.725  14.955   8.447  0.1090  0.4160 -0.0773
 1173ERGO   ROH13397   1.219   7.336  10.492 -0.3149 -0.2283 -0.0833
 1173ERGO    R113398   1.374   7.211  10.291 -0.2343 -0.1177 -0.0901
 1173ERGO    R213399   1.262   7.089  10.070 -0.1521 -0.1146 -0.1318
 1173ERGO    R313400   1.430   7.254   9.934 -0.2017 -0.0145 -0.0732
 1173ERGO    R413401   1.398   7.021   9.760 -0.0879  0.0098 -0.1320
 1173ERGO    R513402   1.586   7.107   9.829 -0.1290  0.0705 -0.0887
 1173ERGO    C113403   1.635   7.136   9.452 -0.0970  0.1762 -0.0771
 1173ERGO    C213404   1.840   7.102   9.193 -0.0815  0.0351 -0.2396
 1174ERGO   ROH13405  14.009   5.584   6.877 -0.1582  0.0539  0.0201
 1174ERGO    R113406  13.914   5.671   7.129 -0.1695 -0.1297  0.0817
 1174ERGO    R213407  13.931   5.515   7.356  0.0644 -0.1935  0.0265
 1174ERGO    R313408  14.057   5.733   7.458 -0.1268 -0.0962  0.0562
 1174ERGO    R413409  14.008   5.560   7.690 -0.1340 -0.0882  0.0586
 1174ERGO    R513410  13.951   5.770   7.669 -0.2573 -0.1289 -0.0041
 1174ERGO    C113411  14.172   5.792   7.980 -0.4291  0.0644  0.1053
 1174ERGO    C213412  14.311   5.694   8.176  0.1214 -0.2712 -0.1124
 1175ERGO   ROH13413  11.261   2.638   9.563 -0.0320  0.1167  0.0126
 1175ERGO    R113414  11.195   2.575   9.295  0.0817  0.0962 -0.0114
 1175ERGO    R213415  10.946   2.628   9.187  0.0657 -0.0823 -0.0664
 1175ERGO    R313416  11.091   2.759   8.999  0.0128  0.0522 -0.0147
 1175ERGO    R413417  10.876   2.629   8.849  0.2512 -0.2480 -0.1066
 1175ERGO    R513418  11.090   2.612   8.810  0.2967  0.0029  0.0166
 1175ERGO    C113419  10.972   2.752   8.475  0.3096 -0.2182 -0.0816
 1175ERGO    C213420  10.862   2.916   8.130 -0.2938  0.0480 -0.2765
 1176ERGO   ROH13421   8.717   9.989   7.356 -0.0893 -0.0386  0.0205
 1176ERGO    R113422   8.603  10.102   7.589  0.0070  0.2141 -0.0497
 1176ERGO    R213423   8.571   9.958   7.823 -0.4508  0.2746 -0.0578
 1176ERGO    R313424   8.711  10.165   7.931 -0.0546 -0.0197  0.0122
 1176ERGO    R413425   8.530  10.079   8.145 -0.3726  0.3979 -0.0947
 1176ERGO    R513426   8.551  10.281   8.066  0.1218  0.3485 -0.0943
 1176ERGO    C113427   8.637  10.344   8.433  0.0449  0.1934 -0.0504
 1176ERGO    C213428   8.660  10.454   8.805 -0.1635 -0.2071  0.1067
 1177ERGO   ROH13429  16.860   7.581   6.783 -0.3061 -0.0922  0.0964
 1177ERGO    R113430  16.828   7.611   7.063 -0.2299 -0.0408  0.1004
 1177ERGO    R213431  17.026   7.542   7.244 -0.2005 -0.0589  0.0633
 1177ERGO    R313432  16.991   7.797   7.329 -0.1196 -0.0373  0.0305
 1177ERGO    R413433  17.143   7.669   7.543 -0.1787 -0.0615  0.0556
 1177ERGO    R513434  16.956   7.778   7.565 -0.1423  0.0038  0.0297
 1177ERGO    C113435  17.179   7.983   7.797 -0.0905 -0.0426  0.0204
 1177ERGO    C213436  17.092   8.038   8.142  0.0448  0.1190 -0.1644
 1178ERGO   ROH13437   9.678   0.863   5.715  0.1748 -0.2876  0.0999
 1178ERGO    R113438   9.818   0.845   5.960  0.2252 -0.0196  0.0929
 1178ERGO    R213439   9.947   1.062   6.074  0.0164  0.1716 -0.0318
 1178ERGO    R313440   9.795   0.998   6.290  0.1104  0.1230  0.0208
 1178ERGO    R413441  10.058   1.063   6.401  0.2497 -0.1788 -0.1043
 1178ERGO    R513442   9.944   0.880   6.435  0.1216 -0.1182 -0.1749
 1178ERGO    C113443   9.980   1.003   6.794  0.4737 -0.4285 -0.0970
 1178ERGO    C213444   9.908   0.945   7.159 -0.0830  0.1592 -0.3308
 1179ERGO   ROH13445  11.281   6.893   6.919 -0.1765  0.0470  0.0120
 1179ERGO    R113446  11.216   7.022   7.162 -0.0751 -0.0430  0.0875
 1179ERGO    R213447  11.243   6.899   7.408  0.1273 -0.0972  0.0375
 1179ERGO    R313448  11.392   7.119   7.466  0.0767 -0.0537  0.0044
 1179ERGO    R413449  11.223   7.079   7.702  0.1565 -0.1199  0.0538
 1179ERGO    R513450  11.241   7.262   7.585  0.0654 -0.1066  0.0562
 1179ERGO    C113451  11.350   7.391   7.928  0.1260 -0.0923  0.0322
 1179ERGO    C213452  11.644   7.412   8.263  0.0614 -0.0037  0.2812
 1180ERGO   ROH13453   3.452   2.009   6.819 -0.0037 -0.3017  0.0983
 1180ERGO    R113454   3.514   1.974   7.093 -0.0470 -0.1998  0.1207
 1180ERGO    R213455   3.539   2.185   7.268 -0.0503 -0.1358  0.0375
 1180ERGO    R313456   3.355   2.047   7.412 -0.0836 -0.0580  0.0720
 1180ERGO    R413457   3.500   2.208   7.610 -0.0131 -0.0673  0.0381
 1180ERGO    R513458   3.468   1.992   7.615 -0.0801 -0.0615  0.0729
 1180ERGO    C113459   3.304   2.091   7.945 -0.0227  0.0456  0.0709
 1180ERGO    C213460   3.380   2.014   8.214  0.0152  0.0257  0.0760
 1181ERGO   ROH13461   4.739  14.258  10.038 -0.1209  0.0981  0.0037
 1181ERGO    R113462   4.813  14.153   9.786  0.0590 -0.0651  0.1213
 1181ERGO    R213463   4.732  13.903   9.699 -0.2156  0.0366  0.0665
 1181ERGO    R313464   4.641  14.042   9.485  0.2853  0.1456 -0.0892
 1181ERGO    R413465   4.704  13.776   9.379 -0.2398 -0.0698  0.1105
 1181ERGO    R513466   4.776  13.967   9.302  0.2721 -0.2697  0.0632
 1181ERGO    C113467   4.601  13.833   8.991  0.2163 -0.0295 -0.0099
 1181ERGO    C213468   4.569  13.693   8.723 -0.0263  0.0193 -0.0095
 1182ERGO   ROH13469   7.139   0.410   9.187 -0.2074 -0.3259 -0.0382
 1182ERGO    R113470   7.110   0.554   8.946 -0.2023 -0.2645 -0.0024
 1182ERGO    R213471   7.323   0.615   8.781 -0.1826 -0.1286  0.0703
 1182ERGO    R313472   7.171   0.494   8.592 -0.0852 -0.1339 -0.0051
 1182ERGO    R413473   7.409   0.585   8.448 -0.0542 -0.0589  0.0967
 1182ERGO    R513474   7.202   0.627   8.396 -0.0436 -0.0980  0.0269
 1182ERGO    C113475   7.316   0.454   8.076  0.1120 -0.0233  0.0412
 1182ERGO    C213476   7.191   0.269   7.901 -0.2241 -0.0572 -0.1941
 1183ERGO   ROH13477   0.884  12.740   6.566  0.2220 -0.1992 -0.0341
 1183ERGO    R113478   0.808  12.818   6.827  0.1301 -0.0894 -0.0916
 1183ERGO    R213479   0.737  12.636   7.022  0.0141 -0.0088 -0.0491
 1183ERGO    R313480   0.929  12.763   7.166 -0.0163  0.0067 -0.0243
 1183ERGO    R413481   0.707  12.725   7.354 -0.1289  0.2239 -0.1229
 1183ERGO    R513482   0.807  12.914   7.307 -0.0289  0.1485 -0.1895
 1183ERGO    C113483   0.870  12.897   7.683 -0.2407  0.3739 -0.1425
 1183ERGO    C213484   0.671  12.916   7.988 -0.1300  0.0590 -0.1292
 1184ERGO   ROH13485  17.789   9.029  10.070  0.0015  0.0491 -0.2045
 1184ERGO    R113486  17.703   8.944   9.814 -0.0504  0.0943 -0.2021
 1184ERGO    R213487  17.601   9.119   9.626  0.0884  0.1582 -0.2184
 1184ERGO    R313488  17.795   9.013   9.468  0.0172  0.0012 -0.2033
 1184ERGO    R413489  17.606   9.137   9.281  0.1607  0.2094 -0.2150
 1184ERGO    R513490  17.678   8.931   9.276 -0.0303  0.1411 -0.2360
 1184ERGO    C113491  17.792   9.048   8.932  0.1357  0.0918 -0.1990
 1184ERGO    C213492  17.706   9.128   8.532 -0.0598 -0.0478 -0.0218
 1185ERGO   ROH13493   4.639  10.401   6.944 -0.1064 -0.0760  0.0730
 1185ERGO    R113494   4.644  10.498   7.210 -0.0667  0.0959  0.0110
 1185ERGO    R213495   4.432  10.635   7.322 -0.2052 -0.1607  0.0755
 1185ERGO    R313496   4.453  10.444   7.515  0.2291 -0.0181  0.1790
 1185ERGO    R413497   4.412  10.696   7.662 -0.4596 -0.0349  0.0404
 1185ERGO    R513498   4.574  10.552   7.692 -0.0920  0.3881  0.1632
 1185ERGO    C113499   4.421  10.553   8.041 -0.1999  0.1724  0.1170
 1185ERGO    C213500   4.583  10.560   8.302 -0.0965  0.0520  0.4549
 1186ERGO   ROH13501   4.627   7.493   7.029 -0.1082 -0.1856  0.1310
 1186ERGO    R113502   4.679   7.514   7.307 -0.0075 -0.0080  0.1007
 1186ERGO    R213503   4.892   7.659   7.407 -0.0494  0.1792 -0.0588
 1186ERGO    R313504   4.698   7.783   7.552 -0.0709  0.1355 -0.0519
 1186ERGO    R413505   4.938   7.802   7.719 -0.1043  0.1085 -0.0185
 1186ERGO    R513506   4.744   7.722   7.779 -0.1023  0.0879 -0.0629
 1186ERGO    C113507   4.782   8.002   8.035 -0.1565  0.0262  0.0115
 1186ERGO    C213508   4.880   8.236   8.279 -0.2118  0.0535  0.2688
 1187ERGO   ROH13509   2.861   3.100  10.011 -0.3017 -0.0826 -0.0062
 1187ERGO    R113510   2.850   3.017   9.741 -0.2453  0.1396 -0.0790
 1187ERGO    R213511   2.892   3.191   9.529  0.2212  0.2346  0.0787
 1187ERGO    R313512   3.079   3.008   9.458 -0.0416 -0.0451  0.0890
 1187ERGO    R413513   2.912   3.037   9.221  0.1520  0.3853 -0.0021
 1187ERGO    R513514   2.961   2.851   9.322 -0.2261  0.2342 -0.0807
 1187ERGO    C113515   3.099   2.775   8.974 -0.1350  0.2105 -0.0393
 1187ERGO    C213516   3.062   2.700   8.667  0.2063  0.1173 -0.0795
 1188ERGO   ROH13517  15.994  17.169   9.616  0.0487 -0.2099  0.2344
 1188ERGO    R113518  16.125  17.009   9.423  0.1143  0.0642  0.0483
 1188ERGO    R213519  15.987  16.848   9.245  0.1902 -0.1276  0.1708
 1188ERGO    R313520  16.131  16.986   9.059 -0.2493  0.1676  0.0293
 1188ERGO    R413521  15.975  16.793   8.904  0.0570 -0.2479  0.1930
 1188ERGO    R513522  16.191  16.821   8.896  0.0083  0.2467  0.0302
 1188ERGO    C113523  16.103  16.889   8.531 -0.4332 -0.0405  0.0731
 1188ERGO    C213524  16.159  16.873   8.196  0.1838  0.0163  0.1267
 1189ERGO   ROH13525   3.831  14.208   6.634 -0.2723 -0.0048  0.0686
 1189ERGO    R113526   3.961  14.287   6.873 -0.0220 -0.0221 -0.0587
 1189ERGO    R213527   3.847  14.254   7.122  0.0558  0.3378  0.0277
 1189ERGO    R313528   4.080  14.124   7.175 -0.1087  0.0197 -0.0003
 1189ERGO    R413529   3.991  14.227   7.435  0.1600  0.3477 -0.0190
 1189ERGO    R513530   4.186  14.259   7.343  0.1744 -0.0102 -0.1427
 1189ERGO    C113531   4.294  14.090   7.667  0.0662  0.0546 -0.0726
 1189ERGO    C213532   4.199  13.982   7.970  0.1845  0.2165  0.1542
 1190ERGO   ROH13533  12.306  16.624   6.029 -0.0445 -0.0847 -0.1643
 1190ERGO    R113534  12.114  16.687   6.228  0.0054 -0.1465 -0.0960
 1190ERGO    R213535  11.989  16.494   6.381  0.1422 -0.1855 -0.0318
 1190ERGO    R313536  12.083  16.643   6.588  0.1611 -0.1306 -0.0797
 1190ERGO    R413537  11.907  16.445   6.713  0.1599 -0.0880 -0.0126
 1190ERGO    R513538  11.896  16.661   6.737  0.1708 -0.0804 -0.0733
 1190ERGO    C113539  11.947  16.556   7.100  0.1881  0.0204 -0.0463
 1190ERGO    C213540  12.021  16.621   7.435 -0.0536  0.0176  0.0031
 1191ERGO   ROH13541   2.965  14.575   9.706 -0.1963  0.1847  0.0301
 1191ERGO    R113542   2.855  14.562   9.445 -0.0745 -0.1597 -0.0092
 1191ERGO    R213543   2.828  14.785   9.284 -0.5091 -0.2700 -0.1048
 1191ERGO    R313544   2.969  14.634   9.107 -0.0992 -0.0359  0.0094
 1191ERGO    R413545   2.821  14.823   8.940 -0.3931 -0.3783 -0.1204
 1191ERGO    R513546   2.822  14.607   8.921  0.0578 -0.3868 -0.0683
 1191ERGO    C113547   2.949  14.704   8.575  0.0593 -0.2216 -0.0221
 1191ERGO    C213548   2.970  14.874   8.366  0.4116 -0.2508  0.0414
 1192ERGO   ROH13549  11.420   9.438  10.049 -0.0331  0.2735  0.1070
 1192ERGO    R113550  11.425   9.647   9.858  0.3288  0.0843 -0.1039
 1192ERGO    R213551  11.527   9.615   9.604 -0.0098 -0.4452 -0.1919
 1192ERGO    R313552  11.283   9.709   9.529  0.1422  0.1256 -0.0153
 1192ERGO    R413553  11.412   9.630   9.278 -0.3385 -0.4762 -0.0812
 1192ERGO    R513554  11.325   9.825   9.323  0.2215 -0.1896 -0.1756
 1192ERGO    C113555  11.117   9.728   9.018 -0.3873  0.0415  0.1489
 1192ERGO    C213556  10.964   9.803   8.786  0.1347  0.0209 -0.0758
 1193ERGO   ROH13557  14.418   7.099   6.929  0.2537 -0.1096 -0.0730
 1193ERGO    R113558  14.435   7.184   7.198  0.3345 -0.1802 -0.0561
 1193ERGO    R213559  14.229   7.147   7.379  0.2958 -0.0163 -0.0675
 1193ERGO    R313560  14.424   7.026   7.526  0.1784 -0.2365 -0.0877
 1193ERGO    R413561  14.250   7.155   7.724  0.2670 -0.1583 -0.0613
 1193ERGO    R513562  14.466   7.179   7.706  0.2909 -0.3361 -0.0284
 1193ERGO    C113563  14.445   7.046   8.063  0.1400 -0.4477 -0.0767
 1193ERGO    C213564  14.511   6.698   8.248  0.0955  0.0246 -0.2001
 1194ERGO   ROH13565   4.427   1.429   6.788  0.4190 -0.1320 -0.0976
 1194ERGO    R113566   4.331   1.308   7.025  0.0334  0.2453 -0.0517
 1194ERGO    R213567   4.468   1.105   7.155 -0.5604 -0.0856  0.0506
 1194ERGO    R313568   4.446   1.272   7.368 -0.1186  0.0698 -0.0094
 1194ERGO    R413569   4.592   1.042   7.471 -0.5272 -0.2489  0.0085
 1194ERGO    R513570   4.412   1.128   7.555 -0.3432  0.1819  0.0656
 1194ERGO    C113571   4.644   1.161   7.856 -0.0932 -0.1981 -0.0725
 1194ERGO    C213572   4.874   1.024   8.050 -0.0042  0.0751 -0.0610
 1195ERGO   ROH13573  13.065   3.804   9.621 -0.0491  0.0435 -0.0490
 1195ERGO    R113574  12.998   3.702   9.366 -0.2795  0.1344 -0.0253
 1195ERGO    R213575  12.842   3.841   9.186 -0.0112  0.4239 -0.0279
 1195ERGO    R313576  13.052   3.799   9.019 -0.1097 -0.0343 -0.0508
 1195ERGO    R413577  12.824   3.851   8.841 -0.0049  0.7242 -0.0232
 1195ERGO    R513578  12.957   3.678   8.835 -0.4602  0.3424 -0.1424
 1195ERGO    C113579  13.012   3.817   8.484 -0.0936  0.4689 -0.0419
 1195ERGO    C213580  13.025   3.819   8.162 -0.0712  0.0059  0.2635
 1196ERGO   ROH13581  17.221  14.005   6.735 -0.0148  0.0614 -0.1033
 1196ERGO    R113582  17.142  13.889   6.981 -0.0526  0.0494 -0.1221
 1196ERGO    R213583  17.297  13.905   7.209  0.0018 -0.1299 -0.1509
 1196ERGO    R313584  17.069  14.007   7.318  0.0978  0.0052 -0.0715
 1196ERGO    R413585  17.257  13.987   7.543  0.1043 -0.3182 -0.0904
 1196ERGO    R513586  17.055  13.904   7.533  0.0219 -0.1327 -0.1365
 1196ERGO    C113587  17.020  14.130   7.839  0.2538 -0.3008  0.0194
 1196ERGO    C213588  17.037  14.344   8.013  0.0171 -0.4523 -0.2861
 1197ERGO   ROH13589   5.539  15.147   6.783 -0.1835  0.1160  0.2049
 1197ERGO    R113590   5.725  15.134   6.997 -0.1793 -0.1410  0.1889
 1197ERGO    R213591   5.821  15.360   7.124  0.3309 -0.2542  0.0194
 1197ERGO    R313592   5.732  15.233   7.347  0.0771  0.0908  0.1224
 1197ERGO    R413593   5.933  15.424   7.444  0.4772 -0.2248 -0.0361
 1197ERGO    R513594   5.927  15.210   7.484  0.0451 -0.1978  0.1285
 1197ERGO    C113595   5.913  15.342   7.841  0.3242  0.1160  0.0282
 1197ERGO    C213596   6.059  15.259   8.139 -0.0965  0.1692 -0.1023
 1198ERGO   ROH13597  16.877   2.453   6.597 -0.1998  0.1646  0.0495
 1198ERGO    R113598  16.944   2.442   6.872 -0.1637  0.1455  0.0400
 1198ERGO    R213599  17.180   2.546   6.973 -0.1371  0.1113  0.0118
 1198ERGO    R313600  17.011   2.681   7.138 -0.0962  0.1264  0.0409
 1198ERGO    R413601  17.253   2.639   7.297 -0.1311 -0.0467  0.0564
 1198ERGO    R513602  17.050   2.585   7.354 -0.1653  0.0244  0.0104
 1198ERGO    C113603  17.138   2.820   7.641 -0.0894 -0.1245  0.1098
 1198ERGO    C213604  17.044   3.008   7.927 -0.1394 -0.3221  0.3146
 1199ERGO   ROH13605  16.043   2.310   9.155  0.0726 -0.0343 -0.1056
 1199ERGO    R113606  16.184   2.356   8.914  0.0384  0.0134 -0.1170
 1199ERGO    R213607  16.066   2.331   8.665 -0.0266  0.1643 -0.1046
 1199ERGO    R313608  16.157   2.585   8.632  0.0638  0.1441 -0.0140
 1199ERGO    R413609  16.127   2.480   8.359 -0.0560  0.2834 -0.0524
 1199ERGO    R513610  16.306   2.570   8.445  0.0034  0.1730 -0.0629
 1199ERGO    C113611  16.248   2.806   8.150  0.0117  0.3339  0.0630
 1199ERGO    C213612  16.198   2.958   7.927 -0.2545 -0.1519 -0.2472
 1200ERGO   ROH13613   3.829   3.724   7.072  0.2329 -0.0833 -0.1361
 1200ERGO    R113614   3.645   3.536   7.176  0.0865  0.0683 -0.1164
 1200ERGO    R213615   3.724   3.290   7.275 -0.1178 -0.0496 -0.2403
 1200ERGO    R313616   3.587   3.371   7.495  0.0690  0.0160 -0.1463
 1200ERGO    R413617   3.740   3.138   7.585 -0.1662 -0.2083 -0.3141
 1200ERGO    R513618   3.525   3.168   7.605 -0.1255  0.0374 -0.2124
 1200ERGO    C113619   3.620   3.127   7.972 -0.0191 -0.2390 -0.2688
 1200ERGO    C213620   3.733   3.168   8.305  0.1313  0.1396  0.0896
 1201ERGO   ROH13621  12.861   1.170   9.421 -0.0958 -0.0810 -0.0880
 1201ERGO    R113622  12.846   1.188   9.139  0.0218 -0.1391 -0.0988
 1201ERGO    R213623  12.842   1.430   9.005 -0.1382 -0.1617 -0.1365
 1201ERGO    R313624  13.052   1.322   8.871  0.0276  0.0109 -0.0203
 1201ERGO    R413625  12.928   1.506   8.679 -0.1042 -0.1927 -0.1349
 1201ERGO    R513626  12.972   1.295   8.647  0.1346 -0.1608 -0.0399
 1201ERGO    C113627  13.176   1.450   8.363  0.0713 -0.0486 -0.0248
 1201ERGO    C213628  13.192   1.413   8.054 -0.1642  0.2172  0.4106
 1202ERGO   ROH13629  14.738   4.847   6.384 -0.0180 -0.0499  0.0156
 1202ERGO    R113630  14.831   4.953   6.630  0.0687 -0.0250 -0.0272
 1202ERGO    R213631  14.660   5.051   6.824  0.1434  0.1165 -0.0304
 1202ERGO    R313632  14.791   4.874   6.983  0.0775  0.0956  0.0009
 1202ERGO    R413633  14.631   5.036   7.168  0.0410  0.1038 -0.0394
 1202ERGO    R513634  14.846   5.000   7.180  0.0333  0.0804  0.0224
 1202ERGO    C113635  14.737   4.861   7.518 -0.0805  0.0767 -0.0152
 1202ERGO    C213636  14.633   4.973   7.792 -0.1386 -0.2036 -0.3648
 1203ERGO   ROH13637  17.403  14.297  10.053  0.1109 -0.1271  0.0690
 1203ERGO    R113638  17.314  14.457   9.837 -0.0124 -0.2112  0.0552
 1203ERGO    R213639  17.405  14.715   9.796 -0.2449 -0.1230  0.0611
 1203ERGO    R313640  17.467  14.620   9.549 -0.1254 -0.0751  0.0725
 1203ERGO    R413641  17.388  14.899   9.503 -0.1460 -0.0855  0.0791
 1203ERGO    R513642  17.306  14.723   9.404 -0.0759 -0.0797  0.0185
 1203ERGO    C113643  17.436  14.916   9.101  0.0236 -0.0188  0.1002
 1203ERGO    C213644  17.465  15.142   8.861 -0.1343  0.0374  0.0741
 1204ERGO   ROH13645  16.733   5.978   6.796  0.0960 -0.0108  0.1515
 1204ERGO    R113646  16.631   6.043   7.051 -0.0435 -0.1295  0.1279
 1204ERGO    R213647  16.613   5.858   7.257  0.1219 -0.1551  0.1273
 1204ERGO    R313648  16.755   6.045   7.393 -0.1245  0.0141  0.1555
 1204ERGO    R413649  16.668   5.855   7.598  0.3837 -0.2981  0.0864
 1204ERGO    R513650  16.638   6.071   7.600 -0.0187 -0.3539  0.2636
 1204ERGO    C113651  16.833   6.030   7.925  0.3048 -0.2225  0.0890
 1204ERGO    C213652  16.900   6.026   8.216 -0.2809  0.1640 -0.1402
 1205ERGO   ROH13653  11.580   2.769   6.340 -0.1803  0.2424 -0.0247
 1205ERGO    R113654  11.713   2.611   6.533 -0.1036  0.1708 -0.1360
 1205ERGO    R213655  11.683   2.650   6.805 -0.0267  0.0444 -0.1111
 1205ERGO    R313656  11.617   2.387   6.803  0.0059  0.0360 -0.2065
 1205ERGO    R413657  11.638   2.456   7.087 -0.0412 -0.0489 -0.1768
 1205ERGO    R513658  11.741   2.293   6.985 -0.0052 -0.0056 -0.2171
 1205ERGO    C113659  11.550   2.095   7.249 -0.0190 -0.1109 -0.3045
 1205ERGO    C213660  11.447   1.720   7.375 -0.0619  0.1724 -0.1238
 1206ERGO   ROH13661   9.505  15.434   6.115 -0.0708  0.1315  0.0893
 1206ERGO    R113662   9.511  15.654   6.293 -0.1379  0.0772  0.1590
 1206ERGO    R213663   9.431  15.634   6.556  0.0216 -0.0724  0.1984
 1206ERGO    R313664   9.678  15.737   6.605 -0.0256  0.0962  0.0937
 1206ERGO    R413665   9.538  15.753   6.863  0.1229 -0.1280  0.1860
 1206ERGO    R513666   9.638  15.917   6.758 -0.0676 -0.0038  0.1987
 1206ERGO    C113667   9.831  15.919   7.087  0.1377 -0.0020  0.0806
 1206ERGO    C213668   9.812  15.940   7.462 -0.0332 -0.1445  0.2148
 1207ERGO   ROH13669   4.726  11.852  10.020 -0.3267  0.2087  0.1045
 1207ERGO    R113670   4.686  12.078   9.853 -0.1960  0.1385 -0.0239
 1207ERGO    R213671   4.879  12.169   9.678 -0.1132 -0.0248 -0.0178
 1207ERGO    R313672   4.679  12.145   9.496 -0.0712 -0.0424 -0.0621
 1207ERGO    R413673   4.904  12.259   9.345 -0.0849  0.0985  0.0171
 1207ERGO    R513674   4.701  12.339   9.357 -0.1207  0.0154  0.0082
 1207ERGO    C113675   4.730  12.289   8.980 -0.0289  0.1538 -0.0042
 1207ERGO    C213676   4.824  12.215   8.667 -0.1001 -0.2016  0.2840
 1208ERGO   ROH13677   2.242  12.871   6.967 -0.0838 -0.1111 -0.1116
 1208ERGO    R113678   2.034  12.926   7.151  0.0098  0.0382 -0.0496
 1208ERGO    R213679   1.879  12.727   7.263 -0.0767  0.1479  0.0204
 1208ERGO    R313680   1.958  12.842   7.497  0.0681  0.1234 -0.0151
 1208ERGO    R413681   1.771  12.631   7.577 -0.0508  0.2523  0.0625
 1208ERGO    R513682   1.761  12.842   7.633  0.1042  0.2683  0.0426
 1208ERGO    C113683   1.782  12.682   7.979  0.1001  0.2902  0.0538
 1208ERGO    C213684   1.704  12.791   8.249 -0.0593  0.2067  0.1247
 1209ERGO   ROH13685   3.091  10.049   6.777  0.3118 -0.2131  0.0367
 1209ERGO    R113686   3.142  10.114   7.047  0.2057 -0.0408  0.0183
 1209ERGO    R213687   3.067  10.355   7.159  0.0131 -0.0298 -0.1169
 1209ERGO    R313688   2.945  10.195   7.342  0.0793 -0.0268 -0.0712
 1209ERGO    R413689   3.004  10.443   7.488  0.0380  0.0020 -0.1214
 1209ERGO    R513690   3.060  10.241   7.547  0.0935  0.0309 -0.0968
 1209ERGO    C113691   2.852  10.344   7.850  0.1147  0.0235 -0.0811
 1209ERGO    C213692   2.573  10.346   8.058 -0.0222 -0.0571  0.1100
 1210ERGO   ROH13693   1.682  17.468   9.402  0.3442 -0.1004 -0.1998
 1210ERGO    R113694   1.665  17.595   9.150  0.2062  0.0847 -0.0988
 1210ERGO    R213695   1.602  17.459   8.918  0.4021  0.1895 -0.2118
 1210ERGO    R313696   1.409  17.649   8.897  0.1589 -0.0345 -0.0786
 1210ERGO    R413697   1.459  17.563   8.621  0.4702  0.3975 -0.1744
 1210ERGO    R513698   1.464  17.767   8.696  0.1464  0.3143  0.1121
 1210ERGO    C113699   1.195  17.802   8.428  0.2816  0.3082 -0.0274
 1210ERGO    C213700   1.005  17.717   8.143 -0.0008  0.2154  0.0910
 1211ERGO   ROH13701   2.365   2.430   9.949 -0.1586  0.1718 -0.1293
 1211ERGO    R113702   2.259   2.364   9.694 -0.1937  0.1615 -0.1123
 1211ERGO    R213703   2.289   2.528   9.474 -0.0532  0.0641 -0.1676
 1211ERGO    R313704   2.392   2.304   9.361 -0.2159 -0.0591 -0.0841
 1211ERGO    R413705   2.210   2.414   9.158  0.1007  0.1839 -0.2511
 1211ERGO    R513706   2.209   2.210   9.237 -0.2221  0.1722 -0.2616
 1211ERGO    C113707   2.262   2.136   8.867  0.0375  0.1382 -0.2211
 1211ERGO    C213708   2.252   2.162   8.504  0.0903 -0.2258  0.3317
 1212ERGO   ROH13709   6.781   8.241   6.565  0.1901 -0.2315  0.1448
 1212ERGO    R113710   6.730   8.374   6.810 -0.0226 -0.0609  0.0126
 1212ERGO    R213711   6.504   8.325   6.961 -0.0014 -0.1915  0.0063
 1212ERGO    R313712   6.685   8.277   7.158  0.0161  0.2070  0.0938
 1212ERGO    R413713   6.428   8.301   7.297 -0.1017 -0.2848 -0.0232
 1212ERGO    R513714   6.610   8.412   7.342 -0.3381  0.0942  0.0384
 1212ERGO    C113715   6.553   8.242   7.678 -0.1436  0.0351  0.0417
 1212ERGO    C213716   6.313   8.211   7.946 -0.2173  0.0046  0.1489
 1213ERGO   ROH13717  10.425  13.626   6.473  0.0648 -0.3000  0.0707
 1213ERGO    R113718  10.480  13.765   6.713  0.0229 -0.1897  0.0180
 1213ERGO    R213719  10.334  13.725   6.945  0.0472 -0.1601  0.0406
 1213ERGO    R313720  10.579  13.677   7.052  0.0710 -0.0284  0.0461
 1213ERGO    R413721  10.395  13.661   7.279  0.0590 -0.2606  0.0189
 1213ERGO    R513722  10.573  13.784   7.266 -0.0299 -0.1253  0.0916
 1213ERGO    C113723  10.660  13.577   7.574  0.0883 -0.1955  0.0115
 1213ERGO    C213724  10.860  13.507   7.838 -0.1154  0.0868  0.0170
 1214ERGO   ROH13725   6.038   2.477   9.902  0.0025 -0.2140  0.0418
 1214ERGO    R113726   5.940   2.434   9.640 -0.0530 -0.1229  0.0456
 1214ERGO    R213727   5.711   2.555   9.544  0.0930  0.1596  0.0279
 1214ERGO    R313728   5.877   2.637   9.344  0.2051 -0.0720  0.0249
 1214ERGO    R413729   5.607   2.689   9.243  0.2818  0.4327  0.0813
 1214ERGO    R513730   5.762   2.574   9.143  0.0638  0.1870  0.0256
 1214ERGO    C113731   5.701   2.844   8.880  0.4971  0.3743  0.1096
 1214ERGO    C213732   5.409   2.864   8.699 -0.1470  0.0879  0.1917
 1215ERGO   ROH13733   5.250  13.876   7.011  0.0402 -0.0155  0.0932
 1215ERGO    R113734   5.020  14.002   7.118  0.0007 -0.0030 -0.0050
 1215ERGO    R213735   4.860  13.882   7.309 -0.0556  0.0290 -0.0298
 1215ERGO    R313736   4.907  14.112   7.446 -0.1068  0.0590 -0.0626
 1215ERGO    R413737   4.700  13.975   7.601 -0.0682  0.0329 -0.0382
 1215ERGO    R513738   4.692  14.179   7.526 -0.1190  0.0195 -0.0654
 1215ERGO    C113739   4.651  14.245   7.899 -0.1236  0.0632 -0.0739
 1215ERGO    C213740   4.377  14.366   8.164  0.0310  0.0921 -0.0726
 1216ERGO   ROH13741  12.308   0.467   5.951  0.0016  0.0759 -0.0329
 1216ERGO    R113742  12.091   0.472   6.133  0.0272  0.0591  0.0002
 1216ERGO    R213743  12.103   0.353   6.382  0.0514  0.0033 -0.0192
 1216ERGO    R313744  12.030   0.600   6.468  0.0940 -0.0040  0.0342
 1216ERGO    R413745  11.958   0.420   6.688 -0.0547 -0.0390 -0.0605
 1216ERGO    R513746  11.826   0.563   6.589  0.0369  0.0303 -0.0632
 1216ERGO    C113747  11.805   0.692   6.948 -0.0765 -0.0705 -0.0344
 1216ERGO    C213748  11.858   0.776   7.354  0.3005  0.4314  0.2223
 1217ERGO   ROH13749  10.944   9.101   7.252 -0.2482 -0.1385  0.2065
 1217ERGO    R113750  11.036   9.064   7.517 -0.0858 -0.0144  0.1693
 1217ERGO    R213751  11.225   9.229   7.634 -0.1041  0.1171  0.0202
 1217ERGO    R313752  11.035   9.256   7.826 -0.0160  0.0767  0.1130
 1217ERGO    R413753  11.247   9.441   7.906 -0.0104  0.1042  0.0225
 1217ERGO    R513754  11.158   9.284   8.029  0.0738  0.0853  0.0555
 1217ERGO    C113755  11.081   9.588   8.246  0.1267  0.0587  0.1111
 1217ERGO    C213756  10.836   9.871   8.264 -0.0992 -0.1822  0.0285
 1218ERGO   ROH13757  17.873   3.359  10.036  0.3178 -0.0105  0.0836
 1218ERGO    R113758  17.928   3.325   9.760  0.1388  0.0006  0.0452
 1218ERGO    R213759  17.730   3.270   9.574  0.0290 -0.0916  0.1849
 1218ERGO    R313760  17.833   3.488   9.449 -0.1504 -0.0524  0.1037
 1218ERGO    R413761  17.761   3.305   9.232 -0.0312 -0.1736  0.1709
 1218ERGO    R513762  17.955   3.398   9.264 -0.1006 -0.0154  0.1207
 1218ERGO    C113763  17.875   3.530   8.915 -0.2347 -0.1845  0.0867
 1218ERGO    C213764  17.928   3.385   8.715 -0.1512 -0.1943  0.2057
 1219ERGO   ROH13765   7.417  16.671   9.280  0.0563 -0.1424 -0.0710
 1219ERGO    R113766   7.236  16.603   9.074  0.0007 -0.0958 -0.0381
 1219ERGO    R213767   7.118  16.792   8.910 -0.0108 -0.0620  0.0082
 1219ERGO    R313768   7.222  16.639   8.712 -0.0753 -0.0546 -0.0312
 1219ERGO    R413769   7.048  16.831   8.574 -0.0296  0.0246  0.0221
 1219ERGO    R513770   7.042  16.614   8.556 -0.0968  0.0303 -0.0199
 1219ERGO    C113771   7.105  16.709   8.192 -0.1011  0.0821 -0.0068
 1219ERGO    C213772   7.126  16.677   7.853 -0.2331 -0.0217  0.0719
 1220ERGO   ROH13773  12.860  13.505   6.542 -0.1537 -0.1665 -0.2143
 1220ERGO    R113774  12.818  13.531   6.821 -0.0253 -0.0267 -0.2074
 1220ERGO    R213775  12.617  13.395   6.955  0.0274  0.0582 -0.0528
 1220ERGO    R313776  12.824  13.310   7.110  0.0853  0.1164 -0.0957
 1220ERGO    R413777  12.595  13.320   7.291  0.0750 -0.0606 -0.0748
 1220ERGO    R513778  12.788  13.416   7.321  0.0343  0.0365 -0.0566
 1220ERGO    C113779  12.775  13.197   7.633  0.1571 -0.0750 -0.1279
 1220ERGO    C213780  12.621  12.998   7.925 -0.2753  0.0788 -0.3120
 1221ERGO   ROH13781   8.410   8.734   9.911  0.3149  0.1858  0.0784
 1221ERGO    R113782   8.515   8.723   9.648  0.1789  0.0859  0.0273
 1221ERGO    R213783   8.656   8.505   9.554  0.0501  0.0107  0.0050
 1221ERGO    R313784   8.471   8.511   9.355 -0.0483  0.0341  0.0964
 1221ERGO    R413785   8.679   8.328   9.258 -0.1942 -0.1139  0.0589
 1221ERGO    R513786   8.600   8.502   9.153 -0.1542 -0.1111  0.0332
 1221ERGO    C113787   8.517   8.230   8.899 -0.4288 -0.1645  0.1762
 1221ERGO    C213788   8.250   7.976   8.733 -0.1335 -0.1587 -0.1658
 1222ERGO   ROH13789  11.203   3.715   9.603 -0.2248 -0.5035  0.0776
 1222ERGO    R113790  11.184   3.633   9.333 -0.2442 -0.3392  0.0273
 1222ERGO    R213791  10.947   3.644   9.190 -0.1990 -0.0180 -0.0277
 1222ERGO    R313792  11.097   3.787   9.014 -0.0076 -0.0776  0.0843
 1222ERGO    R413793  10.876   3.680   8.854  0.1562 -0.1366 -0.1202
 1222ERGO    R513794  11.089   3.659   8.812  0.2086 -0.1517  0.1158
 1222ERGO    C113795  10.975   3.836   8.494  0.5426 -0.2615 -0.0689
 1222ERGO    C213796  10.714   3.796   8.168 -0.0484 -0.0626 -0.6582
 1223ERGO   ROH13797   8.635  11.522   7.243 -0.1966  0.1867 -0.0619
 1223ERGO    R113798   8.501  11.472   7.488  0.0804 -0.0201  0.0513
 1223ERGO    R213799   8.630  11.480   7.732  0.2467  0.3239 -0.0449
 1223ERGO    R313800   8.432  11.656   7.795 -0.0850 -0.0640  0.0423
 1223ERGO    R413801   8.587  11.624   8.043  0.5081  0.7175 -0.1829
 1223ERGO    R513802   8.371  11.598   8.019  0.5023  0.1284  0.2735
 1223ERGO    C113803   8.376  11.874   8.283  0.3491  0.5825 -0.1814
 1223ERGO    C213804   8.182  12.069   8.437 -0.2114 -0.0149  0.1145
 1224ERGO   ROH13805   7.142   4.966   6.746 -0.1400 -0.0213  0.2016
 1224ERGO    R113806   7.423   4.987   6.772 -0.1345 -0.1235  0.2374
 1224ERGO    R213807   7.561   5.219   6.711 -0.0087 -0.2569 -0.0159
 1224ERGO    R313808   7.656   5.190   6.964 -0.0846  0.0031  0.0443
 1224ERGO    R413809   7.838   5.382   6.838  0.0394 -0.2387 -0.1443
 1224ERGO    R513810   7.894   5.198   6.939 -0.0758 -0.1437  0.0933
 1224ERGO    C113811   8.088   5.450   7.149 -0.0037  0.0160 -0.1625
 1224ERGO    C213812   8.294   5.514   7.355 -0.0914  0.0031  0.2115
 1225ERGO   ROH13813  10.216   4.400   6.610  0.0314 -0.0079  0.2390
 1225ERGO    R113814  10.227   4.379   6.892 -0.0669 -0.0232  0.2422
 1225ERGO    R213815  10.059   4.522   7.058 -0.1942 -0.1092  0.1895
 1225ERGO    R313816  10.001   4.276   7.159 -0.1237 -0.1421  0.1494
 1225ERGO    R413817  10.026   4.449   7.394  0.0669 -0.2230  0.1923
 1225ERGO    R513818  10.132   4.262   7.359  0.0339 -0.2155  0.0437
 1225ERGO    C113819   9.953   4.176   7.684  0.2849 -0.3202  0.1563
 1225ERGO    C213820   9.829   4.148   8.016 -0.2494  0.5090 -0.1162
 1226ERGO   ROH13821  10.573  14.664   9.517  0.1881  0.2199  0.0346
 1226ERGO    R113822  10.783  14.682   9.329  0.1919  0.1712  0.0343
 1226ERGO    R213823  10.996  14.505   9.327  0.0784  0.0343 -0.0562
 1226ERGO    R313824  10.923  14.471   9.067  0.0448  0.2021 -0.0699
 1226ERGO    R413825  11.208  14.405   9.073  0.0243  0.1056 -0.1303
 1226ERGO    R513826  11.111  14.549   8.942  0.0594  0.2109 -0.0425
 1226ERGO    C113827  11.263  14.315   8.682 -0.0388  0.3047 -0.1862
 1226ERGO    C213828  11.465  14.114   8.545 -0.1961  0.0192 -0.3636
 1227ERGO   ROH13829   9.827   8.474   7.158  0.0387  0.1689 -0.2040
 1227ERGO    R113830   9.937   8.539   7.411 -0.0152  0.1919 -0.1859
 1227ERGO    R213831   9.967   8.353   7.612 -0.1290  0.2257 -0.1350
 1227ERGO    R313832  10.226   8.437   7.608 -0.1019  0.1483 -0.0806
 1227ERGO    R413833  10.162   8.409   7.893 -0.2095  0.2859 -0.0903
 1227ERGO    R513834  10.243   8.586   7.795 -0.1236  0.2218 -0.1365
 1227ERGO    C113835  10.517   8.521   8.052 -0.2309  0.2482 -0.0133
 1227ERGO    C213836  10.596   8.496   8.396 -0.0057 -0.0270  0.2877
 1228ERGO   ROH13837   1.659  16.446   9.789  0.1734  0.0125  0.0741
 1228ERGO    R113838   1.584  16.432   9.516  0.1835  0.1133  0.0655
 1228ERGO    R213839   1.731  16.552   9.315  0.3045  0.0171  0.0923
 1228ERGO    R313840   1.728  16.302   9.209  0.1003  0.0309  0.0614
 1228ERGO    R413841   1.838  16.472   8.996  0.1887 -0.0275  0.0647
 1228ERGO    R513842   1.669  16.336   8.979  0.0854  0.1006  0.0771
 1228ERGO    C113843   1.897  16.190   8.711 -0.0703 -0.0407  0.0197
 1228ERGO    C213844   2.100  15.894   8.656 -0.3806 -0.0976 -0.6567
 1229ERGO   ROH13845   0.310   3.732   6.841 -0.0184 -0.0545 -0.0484
 1229ERGO    R113846   0.492   3.860   7.016  0.0355  0.0052 -0.1467
 1229ERGO    R213847   0.452   4.117   7.111 -0.0178 -0.0226 -0.0953
 1229ERGO    R313848   0.482   3.997   7.353  0.1845 -0.0356 -0.1244
 1229ERGO    R413849   0.521   4.283   7.406 -0.1702  0.0138 -0.0796
 1229ERGO    R513850   0.657   4.121   7.459  0.0517  0.1723 -0.1385
 1229ERGO    C113851   0.589   4.268   7.805 -0.0690  0.0229 -0.0979
 1229ERGO    C213852   0.529   4.616   8.013 -0.3581 -0.1024 -0.1193
 1230ERGO   ROH13853   0.086  15.130   9.884 -0.0774  0.1470 -0.0997
 1230ERGO    R113854   0.047  15.009   9.631 -0.1090  0.0723 -0.0602
 1230ERGO    R213855   0.012  15.157   9.399 -0.2673  0.0064 -0.0828
 1230ERGO    R313856   0.220  15.007   9.311 -0.2217  0.0919 -0.1208
 1230ERGO    R413857   0.097  15.112   9.067 -0.1894  0.1879 -0.0884
 1230ERGO    R513858   0.139  14.903   9.111 -0.1584  0.1768 -0.1881
 1230ERGO    C113859   0.342  14.945   8.791 -0.1012  0.3735 -0.1272
 1230ERGO    C213860   0.464  15.016   8.494  0.0326  0.0745  0.0279
 1231ERGO   ROH13861  13.770  12.057   7.250 -0.0686  0.0121 -0.0239
 1231ERGO    R113862  13.928  12.250   7.385 -0.1836  0.1518 -0.0852
 1231ERGO    R213863  13.819  12.447   7.545 -0.2890 -0.0481  0.0976
 1231ERGO    R313864  13.991  12.347   7.730  0.0044  0.0783 -0.0977
 1231ERGO    R413865  13.881  12.589   7.854 -0.2129 -0.1276  0.1190
 1231ERGO    R513866  14.092  12.540   7.828 -0.1659  0.1621 -0.0862
 1231ERGO    C113867  14.078  12.577   8.208  0.1069 -0.0552 -0.0519
 1231ERGO    C213868  13.870  12.645   8.468 -0.1344 -0.1056  0.0226
 1232ERGO   ROH13869   1.521   0.807   6.986  0.2403 -0.1371  0.1932
 1232ERGO    R113870   1.297   0.792   7.159  0.1267 -0.3664  0.0273
 1232ERGO    R213871   1.302   0.652   7.397  0.2598  0.0237  0.2476
 1232ERGO    R313872   1.219   0.890   7.500 -0.3820  0.0171 -0.1804
 1232ERGO    R413873   1.113   0.687   7.684  0.4782 -0.0004  0.3987
 1232ERGO    R513874   0.999   0.845   7.584 -0.1709 -0.5448  0.1607
 1232ERGO    C113875   0.925   0.930   7.949  0.0028 -0.0205  0.0849
 1232ERGO    C213876   0.893   0.999   8.328  0.0484  0.2426  0.1282
 1233ERGO   ROH13877   7.015  12.834   6.990 -0.1212  0.0122 -0.0283
 1233ERGO    R113878   6.952  12.677   7.217 -0.1292  0.0331 -0.0161
 1233ERGO    R213879   7.137  12.514   7.342 -0.1666 -0.0522 -0.0707
 1233ERGO    R313880   7.064  12.654   7.563 -0.0459 -0.0262 -0.0467
 1233ERGO    R413881   7.152  12.395   7.666 -0.4712 -0.2030 -0.1086
 1233ERGO    R513882   6.961  12.492   7.706 -0.3462  0.0675 -0.1493
 1233ERGO    C113883   7.092  12.458   8.062 -0.5353 -0.2664 -0.1082
 1233ERGO    C213884   6.980  12.545   8.394 -0.0423  0.0233 -0.0209
 1234ERGO   ROH13885   9.551  12.896   9.987 -0.2195  0.0081 -0.0282
 1234ERGO    R113886   9.568  12.640   9.868 -0.3932 -0.0041 -0.0295
 1234ERGO    R213887   9.384  12.550   9.683 -0.2714  0.2573 -0.2871
 1234ERGO    R313888   9.605  12.508   9.531 -0.1148 -0.0134  0.0018
 1234ERGO    R413889   9.392  12.361   9.394 -0.1661  0.3826 -0.3669
 1234ERGO    R513890   9.585  12.281   9.456 -0.3699  0.0484 -0.1303
 1234ERGO    C113891   9.604  12.212   9.082  0.0421  0.2014 -0.1421
 1234ERGO    C213892   9.516  11.992   8.738 -0.0250 -0.0562 -0.0573
 1235ERGO   ROH13893  17.581   2.667   9.303 -0.0230 -0.3186 -0.0207
 1235ERGO    R113894  17.706   2.742   9.061  0.0278 -0.0444  0.0861
 1235ERGO    R213895  17.657   2.613   8.821  0.2817  0.0463 -0.0209
 1235ERGO    R313896  17.599   2.864   8.735  0.0703  0.0429  0.1052
 1235ERGO    R413897  17.598   2.700   8.492  0.1208  0.1532  0.0353
 1235ERGO    R513898  17.712   2.882   8.525 -0.0055  0.2223  0.0807
 1235ERGO    C113899  17.509   2.987   8.219 -0.1715  0.2123  0.1864
 1235ERGO    C213900  17.553   2.901   7.911 -0.4182 -0.1319 -0.1576
 1236ERGO   ROH13901   3.744   7.484   9.967  0.3171 -0.1386  0.0646
 1236ERGO    R113902   3.631   7.286   9.799  0.2917 -0.2820  0.2521
 1236ERGO    R213903   3.607   7.318   9.525 -0.1174 -0.3453  0.2859
 1236ERGO    R313904   3.742   7.082   9.519  0.1173 -0.2144  0.1279
 1236ERGO    R413905   3.607   7.096   9.260  0.1162 -0.1488  0.1130
 1236ERGO    R513906   3.596   6.933   9.403  0.2604 -0.2730  0.0021
 1236ERGO    C113907   3.733   6.746   9.100  0.4725  0.0885 -0.1361
 1236ERGO    C213908   3.987   6.480   8.903  0.1409  0.0975 -0.0207
 1237ERGO   ROH13909   8.536   0.863   9.091  0.1161  0.0940  0.0299
 1237ERGO    R113910   8.512   0.966   8.828  0.0602  0.0988  0.0375
 1237ERGO    R213911   8.620   0.839   8.608  0.1182  0.1669  0.0304
 1237ERGO    R313912   8.365   0.856   8.514  0.1079  0.0480  0.0320
 1237ERGO    R413913   8.535   0.892   8.277  0.0898 -0.1753 -0.0219
 1237ERGO    R513914   8.376   1.025   8.344  0.0812 -0.1184 -0.1428
 1237ERGO    C113915   8.246   0.940   7.996  0.0634 -0.4861 -0.0509
 1237ERGO    C213916   8.078   0.705   7.737  0.0842  0.0096 -0.1435
 1238ERGO   ROH13917   3.762   5.754   7.112  0.1343 -0.0267 -0.0344
 1238ERGO    R113918   3.857   5.901   7.334 -0.1367 -0.0218  0.0820
 1238ERGO    R213919   3.741   5.884   7.585 -0.0343 -0.5347  0.1047
 1238ERGO    R313920   3.995   5.825   7.662  0.1337 -0.0365 -0.0338
 1238ERGO    R413921   3.864   5.918   7.906 -0.0220 -0.5953  0.1068
 1238ERGO    R513922   4.050   5.994   7.822 -0.2102 -0.0738  0.1298
 1238ERGO    C113923   4.174   5.884   8.165  0.1429 -0.1627 -0.0219
 1238ERGO    C213924   4.256   5.717   8.389  0.2088  0.0706 -0.0709
 1239ERGO   ROH13925  12.812   1.790   6.376 -0.1525  0.0057 -0.0280
 1239ERGO    R113926  12.885   1.806   6.649 -0.1324 -0.0802 -0.0281
 1239ERGO    R213927  12.722   1.920   6.840 -0.1201 -0.1416  0.0208
 1239ERGO    R313928  12.755   1.681   6.965 -0.1085 -0.1820 -0.0586
 1239ERGO    R413929  12.677   1.866   7.179  0.0056 -0.2348  0.0235
 1239ERGO    R513930  12.853   1.737   7.176 -0.0172 -0.2605 -0.0813
 1239ERGO    C113931  12.682   1.610   7.493  0.0897 -0.3268 -0.0495
 1239ERGO    C213932  12.555   1.420   7.756 -0.1022  0.0123  0.0858
 1240ERGO   ROH13933  18.027   1.920   6.928 -0.0772 -0.1374 -0.1331
 1240ERGO    R113934  18.079   1.895   7.205 -0.0033  0.0246 -0.1307
 1240ERGO    R213935  18.023   1.663   7.345 -0.0214  0.1263  0.0316
 1240ERGO    R313936  18.285   1.683   7.417  0.0046  0.1060 -0.0568
 1240ERGO    R413937  18.165   1.507   7.619  0.0350  0.2067  0.0490
 1240ERGO    R513938  18.281   1.688   7.656  0.0802  0.2000 -0.0571
 1240ERGO    C113939  18.493   1.434   7.845  0.0923  0.2344 -0.0239
 1240ERGO    C213940  18.630   1.207   8.104  0.3410 -0.0550  0.0554
 1241ERGO   ROH13941   7.241  12.886  10.033 -0.1834 -0.1282  0.1339
 1241ERGO    R113942   7.085  12.784   9.820 -0.0928 -0.1040  0.0551
 1241ERGO    R213943   7.131  12.853   9.556  0.0251 -0.0802  0.0795
 1241ERGO    R313944   7.145  12.584   9.522  0.0339 -0.0769  0.0621
 1241ERGO    R413945   7.123  12.693   9.250  0.0218 -0.0616  0.0705
 1241ERGO    R513946   6.996  12.539   9.339  0.0308 -0.0713  0.0644
 1241ERGO    C113947   7.132  12.347   9.040  0.0282 -0.0480  0.0488
 1241ERGO    C213948   7.223  12.299   8.746 -0.1270  0.1768  0.3100
 1242ERGO   ROH13949  13.557   3.048   6.334  0.0404  0.2896  0.0514
 1242ERGO    R113950  13.576   2.900   6.575 -0.0276  0.1166 -0.0474
 1242ERGO    R213951  13.770   2.949   6.765 -0.0058 -0.1004 -0.0110
 1242ERGO    R313952  13.556   2.972   6.931  0.0034 -0.1163  0.0030
 1242ERGO    R413953  13.790   2.986   7.108  0.0182  0.0136 -0.0242
 1242ERGO    R513954  13.620   2.850   7.127  0.0626 -0.0349  0.0352
 1242ERGO    C113955  13.601   3.029   7.464  0.0408  0.0651 -0.0187
 1242ERGO    C213956  13.689   3.177   7.825  0.3701  0.0665  0.0631
 1243ERGO   ROH13957   1.843  10.115   6.863 -0.1202 -0.1692 -0.1306
 1243ERGO    R113958   1.988  10.180   7.097  0.0419 -0.2773 -0.1996
 1243ERGO    R213959   1.864  10.243   7.336  0.1820  0.2958 -0.2674
 1243ERGO    R313960   2.022  10.045   7.433 -0.3115 -0.0113 -0.0473
 1243ERGO    R413961   1.998  10.235   7.655  0.3759  0.4745 -0.3424
 1243ERGO    R513962   2.183  10.158   7.569  0.1189 -0.2134 -0.3573
 1243ERGO    C113963   2.225  10.044   7.931  0.0255  0.2902 -0.1794
 1243ERGO    C213964   2.204  10.079   8.291 -0.1026 -0.1317  0.0216
 1244ERGO   ROH13965  17.880  17.393   6.954  0.0332 -0.2033 -0.0459
 1244ERGO    R113966  17.930  17.423   7.231  0.1182 -0.3732 -0.0435
 1244ERGO    R213967  17.729  17.431   7.419  0.1492 -0.0311 -0.0307
 1244ERGO    R313968  17.871  17.229   7.533 -0.2285 -0.3406 -0.0838
 1244ERGO    R413969  17.771  17.389   7.759  0.5566  0.1803 -0.0489
 1244ERGO    R513970  17.979  17.333   7.721  0.3669 -0.4461 -0.3377
 1244ERGO    C113971  17.929  17.176   8.065  0.4389  0.0129 -0.1092
 1244ERGO    C213972  17.721  16.927   8.374  0.0290 -0.0668  0.2938
 1245ERGO   ROH13973  10.336   6.057   6.773 -0.0125 -0.3198  0.0585
 1245ERGO    R113974  10.235   6.130   7.027  0.0588 -0.1957  0.0525
 1245ERGO    R213975   9.979   6.067   7.109  0.0065  0.0288  0.0757
 1245ERGO    R313976  10.109   5.956   7.321 -0.0721 -0.0471  0.0841
 1245ERGO    R413977   9.866   6.074   7.436  0.0429  0.1836  0.0856
 1245ERGO    R513978  10.071   6.110   7.501  0.0786  0.0160  0.0606
 1245ERGO    C113979   9.923   5.974   7.825 -0.0096  0.2024  0.0992
 1245ERGO    C213980   9.903   5.846   8.120 -0.2338  0.0750 -0.0023
 1246ERGO   ROH13981  15.342   3.610   6.647  0.0845  0.1572  0.1309
 1246ERGO    R113982  15.176   3.475   6.833 -0.0062  0.1493  0.0442
 1246ERGO    R213983  15.278   3.316   7.034 -0.1120 -0.0043 -0.0266
 1246ERGO    R313984  15.128   3.477   7.193 -0.0467 -0.0089  0.0412
 1246ERGO    R413985  15.113   3.213   7.320  0.0418 -0.0083  0.0625
 1246ERGO    R513986  14.945   3.339   7.262 -0.0010 -0.0248  0.1398
 1246ERGO    C113987  14.877   3.304   7.636  0.1926 -0.0148  0.1781
 1246ERGO    C213988  14.741   3.271   8.052 -0.0027 -0.1377  0.2415
 1247ERGO   ROH13989  13.990   4.899   9.412 -0.2839 -0.0758  0.0578
 1247ERGO    R113990  13.818   4.815   9.204 -0.1707 -0.0445 -0.0495
 1247ERGO    R213991  13.828   4.922   8.949 -0.0406  0.0037 -0.0238
 1247ERGO    R313992  13.855   4.661   8.876  0.0089  0.0183 -0.0599
 1247ERGO    R413993  13.745   4.794   8.639 -0.1614  0.0005  0.0085
 1247ERGO    R513994  13.664   4.618   8.738 -0.0498 -0.0354  0.0372
 1247ERGO    C113995  13.722   4.475   8.390 -0.1852  0.0123 -0.0065
 1247ERGO    C213996  13.876   4.421   8.111  0.0313 -0.2586 -0.0922
 1248ERGO   ROH13997   7.858  11.963  10.242  0.0088  0.2084 -0.1443
 1248ERGO    R113998   7.857  11.859   9.979  0.1235  0.0160 -0.0719
 1248ERGO    R213999   7.778  12.009   9.760 -0.1662 -0.2617 -0.1711
 1248ERGO    R314000   8.022  11.937   9.664 -0.0613  0.0637 -0.1561
 1248ERGO    R414001   7.850  11.946   9.428 -0.0705 -0.2343 -0.1548
 1248ERGO    R514002   7.974  11.779   9.490  0.1674 -0.0426 -0.1203
 1248ERGO    C114003   8.121  11.843   9.144  0.0837  0.0871 -0.1313
 1248ERGO    C214004   8.272  11.820   8.867 -0.1398  0.0031 -0.1888
 1249ERGO   ROH14005   5.642  10.597   6.956 -0.4003  0.0755  0.1702
 1249ERGO    R114006   5.800  10.609   7.190 -0.2392 -0.1675  0.0781
 1249ERGO    R214007   5.742  10.779   7.400  0.1906 -0.0134  0.0811
 1249ERGO    R314008   5.751  10.550   7.546 -0.1479 -0.0071  0.1187
 1249ERGO    R414009   5.824  10.761   7.736  0.5194 -0.1060 -0.0001
 1249ERGO    R514010   5.937  10.580   7.693  0.0884 -0.3707 -0.0889
 1249ERGO    C114011   5.879  10.535   8.068  0.3931 -0.1539 -0.0121
 1249ERGO    C214012   5.728  10.446   8.346  0.0184  0.3347  0.1456
 1250ERGO   ROH14013   4.347  12.846   6.857  0.2288  0.0523  0.1692
 1250ERGO    R114014   4.185  12.774   7.077  0.1347 -0.0148  0.0786
 1250ERGO    R214015   4.218  12.537   7.215  0.1772  0.0145  0.1141
 1250ERGO    R314016   4.235  12.702   7.430 -0.0383  0.0391  0.1166
 1250ERGO    R414017   4.161  12.440   7.542  0.1740 -0.0394  0.0979
 1250ERGO    R514018   4.057  12.630   7.574 -0.0171 -0.1298  0.0660
 1250ERGO    C114019   4.143  12.539   7.934 -0.0302 -0.0476  0.0907
 1250ERGO    C214020   4.217  12.523   8.235 -0.1632 -0.2646 -0.3447
 1251ERGO   ROH14021   9.760  10.353   7.059  0.0794  0.1338  0.1226
 1251ERGO    R114022   9.775  10.443   7.327 -0.0156  0.0591  0.1534
 1251ERGO    R214023   9.550  10.491   7.480 -0.0669 -0.1208  0.1328
 1251ERGO    R314024   9.672  10.320   7.653  0.0051 -0.1029  0.1006
 1251ERGO    R414025   9.534  10.515   7.825 -0.1812 -0.2577  0.1381
 1251ERGO    R514026   9.746  10.460   7.833 -0.1419 -0.1147  0.1743
 1251ERGO    C114027   9.639  10.368   8.188 -0.1802 -0.3207  0.1110
 1251ERGO    C214028   9.578  10.374   8.514 -0.1618 -0.1495 -0.0010
 1252ERGO   ROH14029  11.741  12.382   6.633 -0.0804  0.0700  0.1314
 1252ERGO    R114030  11.913  12.306   6.844  0.0483  0.1011  0.0409
 1252ERGO    R214031  12.099  12.478   6.955 -0.0553  0.2008  0.0735
 1252ERGO    R314032  11.973  12.412   7.187  0.0620 -0.0216  0.0753
 1252ERGO    R414033  12.243  12.492   7.269  0.0507  0.0268  0.0334
 1252ERGO    R514034  12.143  12.305   7.318  0.1505 -0.0472 -0.0654
 1252ERGO    C114035  12.209  12.439   7.669  0.2226 -0.2834  0.0119
 1252ERGO    C214036  12.364  12.578   7.903 -0.1276 -0.1774  0.0390
 1253ERGO   ROH14037   3.278  17.670   6.332  0.0489  0.0893 -0.0262
 1253ERGO    R114038   3.265  17.741   6.605 -0.0049 -0.0140 -0.0021
 1253ERGO    R214039   3.209  17.998   6.689  0.0291 -0.0381  0.0814
 1253ERGO    R314040   3.014  17.875   6.832 -0.0332 -0.0490 -0.0111
 1253ERGO    R414041   3.107  18.091   7.006 -0.2137  0.0451 -0.0182
 1253ERGO    R514042   3.093  17.880   7.058 -0.1851  0.0539  0.0445
 1253ERGO    C114043   2.864  18.030   7.325 -0.4136  0.0832 -0.1630
 1253ERGO    C214044   2.798  18.048   7.718  0.0644  0.0248 -0.0959
 1254ERGO   ROH14045  17.726   4.577   9.766 -0.0395  0.1589  0.1783
 1254ERGO    R114046  17.799   4.433   9.534  0.1793  0.0143  0.3336
 1254ERGO    R214047  17.746   4.525   9.279 -0.1035 -0.4108  0.2327
 1254ERGO    R314048  18.013   4.490   9.245 -0.0306  0.0996  0.1918
 1254ERGO    R414049  17.907   4.521   8.973 -0.1767 -0.3004  0.1914
 1254ERGO    R514050  18.031   4.357   9.046  0.1780 -0.0112  0.2787
 1254ERGO    C114051  18.252   4.485   8.763 -0.1512  0.2429  0.1289
 1254ERGO    C214052  18.576   4.645   8.490 -0.2541  0.0359  0.0284
 1255ERGO   ROH14053   3.660   8.773   7.074  0.2548 -0.0752  0.0323
 1255ERGO    R114054   3.564   8.908   7.304  0.0343 -0.0466 -0.0723
 1255ERGO    R214055   3.463   8.775   7.523 -0.1175 -0.0258 -0.1179
 1255ERGO    R314056   3.648   8.921   7.657 -0.2536  0.0452 -0.0071
 1255ERGO    R414057   3.515   8.763   7.865 -0.1221 -0.1924 -0.1231
 1255ERGO    R514058   3.541   8.979   7.864 -0.3074 -0.1773  0.0212
 1255ERGO    C114059   3.720   8.893   8.189 -0.2526 -0.2228 -0.0222
 1255ERGO    C214060   3.753   8.876   8.555 -0.0453  0.2021 -0.1379
 1256ERGO   ROH14061   3.040   5.325  10.231  0.0977 -0.0991  0.0688
 1256ERGO    R114062   3.004   5.231   9.966 -0.0460  0.0185  0.0444
 1256ERGO    R214063   2.946   5.399   9.755  0.0365  0.1399  0.1149
 1256ERGO    R314064   3.164   5.282   9.643 -0.0842 -0.0012  0.0228
 1256ERGO    R414065   3.105   5.511   9.469  0.0863  0.1314  0.1396
 1256ERGO    R514066   3.129   5.304   9.407 -0.1067  0.1387  0.0390
 1256ERGO    C114067   3.403   5.467   9.198  0.0020 -0.0060  0.0675
 1256ERGO    C214068   3.688   5.552   9.068 -0.3227  0.0301  0.1248
 1257ERGO   ROH14069   5.048  16.649   6.441 -0.2407 -0.0027  0.0703
 1257ERGO    R114070   5.042  16.517   6.691 -0.2110 -0.1135  0.0142
 1257ERGO    R214071   5.052  16.653   6.932 -0.0214 -0.2264  0.0767
 1257ERGO    R314072   4.825  16.514   6.983 -0.0860 -0.1093  0.1067
 1257ERGO    R414073   4.891  16.642   7.237  0.0265 -0.1732  0.1032
 1257ERGO    R514074   4.854  16.430   7.205 -0.0925 -0.1470  0.0902
 1257ERGO    C114075   4.583  16.505   7.463 -0.0062 -0.0324  0.1469
 1257ERGO    C214076   4.455  16.259   7.718  0.0408 -0.0163 -0.3841
 1258ERGO   ROH14077   2.583  11.462   9.933  0.2059  0.2359  0.0412
 1258ERGO    R114078   2.496  11.320   9.705  0.1361  0.1091  0.1458
 1258ERGO    R214079   2.330  11.432   9.515  0.1807  0.0464  0.0712
 1258ERGO    R314080   2.527  11.354   9.344  0.1411 -0.1651  0.1174
 1258ERGO    R414081   2.318  11.466   9.171  0.3835  0.2576  0.0822
 1258ERGO    R514082   2.410  11.269   9.153  0.0886  0.1193  0.0169
 1258ERGO    C114083   2.495  11.414   8.810  0.4643  0.1821  0.1319
 1258ERGO    C214084   2.484  11.530   8.463  0.3300  0.1186  0.1737
 1259ERGO   ROH14085  12.580  16.059   9.129  0.1405  0.4812  0.2168
 1259ERGO    R114086  12.503  16.039   8.858  0.2189  0.2564  0.2093
 1259ERGO    R214087  12.326  16.216   8.740  0.1068  0.0458  0.0619
 1259ERGO    R314088  12.527  16.248   8.560  0.1226  0.0976  0.0874
 1259ERGO    R414089  12.285  16.326   8.415  0.1215  0.0669  0.0665
 1259ERGO    R514090  12.432  16.179   8.352  0.1567  0.0972  0.0700
 1259ERGO    C114091  12.450  16.421   8.057  0.1448  0.1278  0.0933
 1259ERGO    C214092  12.436  16.675   7.852  0.1282  0.0471  0.1440
 1260ERGO   ROH14093   8.360  13.270  10.286 -0.1838  0.0609 -0.0901
 1260ERGO    R114094   8.436  13.325  10.019  0.1180 -0.2059 -0.0626
 1260ERGO    R214095   8.571  13.142   9.862 -0.2959 -0.6222  0.0639
 1260ERGO    R314096   8.365  13.187   9.690 -0.0892 -0.0906 -0.0715
 1260ERGO    R414097   8.592  13.119   9.518 -0.1002 -0.5869  0.0693
 1260ERGO    R514098   8.466  13.296   9.503  0.3141 -0.2692  0.0204
 1260ERGO    C114099   8.410  13.147   9.156  0.2077 -0.0672 -0.0547
 1260ERGO    C214100   8.406  13.021   8.845  0.0761 -0.0090  0.0668
 1261ERGO   ROH14101   1.666   8.319   7.215  0.0428  0.2691  0.0710
 1261ERGO    R114102   1.538   8.214   7.444 -0.0579  0.1659 -0.0299
 1261ERGO    R214103   1.662   8.198   7.691 -0.0772 -0.1731 -0.0315
 1261ERGO    R314104   1.444   8.337   7.773  0.0404 -0.0538  0.0808
 1261ERGO    R414105   1.581   8.262   8.021 -0.0314 -0.3748  0.0191
 1261ERGO    R514106   1.373   8.224   7.972 -0.0606 -0.1551 -0.0161
 1261ERGO    C114107   1.329   8.429   8.290  0.1057 -0.3804  0.1539
 1261ERGO    C214108   1.173   8.665   8.480 -0.0178  0.0067 -0.1992
 1262ERGO   ROH14109  17.549   0.106   6.754 -0.1057  0.3610 -0.0949
 1262ERGO    R114110  17.415   0.088   7.003 -0.0326  0.2374 -0.0642
 1262ERGO    R214111  17.549   0.067   7.243  0.0406  0.2892 -0.1033
 1262ERGO    R314112  17.398   0.283   7.309 -0.0850  0.1820 -0.0305
 1262ERGO    R414113  17.476   0.165   7.566  0.0484  0.1796 -0.0670
 1262ERGO    R514114  17.274   0.212   7.501  0.0008  0.0628 -0.0150
 1262ERGO    C114115  17.293   0.426   7.817 -0.0649  0.0152  0.0225
 1262ERGO    C214116  17.316   0.363   8.175 -0.1064  0.2790  0.0536
 1263ERGO   ROH14117   4.896   2.294   7.177  0.0434 -0.2274  0.0820
 1263ERGO    R114118   4.981   2.260   7.444  0.0619 -0.0410  0.1009
 1263ERGO    R214119   5.101   2.462   7.589 -0.1510  0.1367  0.0322
 1263ERGO    R314120   4.903   2.409   7.767 -0.1088  0.0034  0.0413
 1263ERGO    R414121   5.094   2.574   7.916 -0.2012  0.1247  0.0355
 1263ERGO    R514122   5.016   2.379   7.976 -0.0743  0.0699  0.0346
 1263ERGO    C114123   4.903   2.589   8.274 -0.1907 -0.0074  0.0457
 1263ERGO    C214124   4.955   2.780   8.544 -0.1400  0.1129  0.1572
 1264ERGO   ROH14125   3.673  11.411   7.031  0.0937 -0.0385  0.0694
 1264ERGO    R114126   3.731  11.455   7.305  0.0972 -0.1084  0.0806
 1264ERGO    R214127   3.538  11.534   7.486  0.1414  0.0568  0.0599
 1264ERGO    R314128   3.624  11.315   7.623 -0.0760 -0.0335  0.0564
 1264ERGO    R414129   3.436  11.447   7.805  0.0182  0.1234  0.0388
 1264ERGO    R514130   3.642  11.390   7.850 -0.0396 -0.0670  0.0638
 1264ERGO    C114131   3.458  11.192   8.120 -0.2577  0.0775  0.0233
 1264ERGO    C214132   3.247  11.104   8.416 -0.0356  0.1592 -0.1513
 1265ERGO   ROH14133   8.883  17.525   8.723  0.0395 -0.1258  0.0759
 1265ERGO    R114134   9.052  17.368   8.559  0.0132 -0.0566 -0.0195
 1265ERGO    R214135   9.008  17.336   8.288 -0.0096  0.0886 -0.0367
 1265ERGO    R314136   9.265  17.423   8.268 -0.0042  0.0771 -0.0066
 1265ERGO    R414137   9.238  17.220   8.057  0.0908 -0.1049  0.1580
 1265ERGO    R514138   9.390  17.226   8.214  0.0247  0.0341  0.2155
 1265ERGO    C114139   9.613  17.234   7.905  0.1545 -0.2285  0.2997
 1265ERGO    C214140   9.773  17.078   7.671  0.1985  0.1742  0.0484
 1266ERGO   ROH14141  15.506   4.817   6.275  0.1713  0.0436 -0.0710
 1266ERGO    R114142  15.513   4.887   6.549  0.0943  0.0251 -0.0640
 1266ERGO    R214143  15.627   4.725   6.742  0.0370  0.0108 -0.0428
 1266ERGO    R314144  15.770   4.948   6.799  0.0239  0.0047  0.0139
 1266ERGO    R414145  15.759   4.801   7.052 -0.1461  0.0396  0.0292
 1266ERGO    R514146  15.701   5.008   7.020 -0.1069  0.0418 -0.0356
 1266ERGO    C114147  15.970   5.055   7.287 -0.2650  0.0507  0.1242
 1266ERGO    C214148  16.030   5.132   7.654 -0.0443 -0.3294 -0.0522
 1267ERGO   ROH14149   6.541  14.400   6.329 -0.0852 -0.2093 -0.0535
 1267ERGO    R114150   6.707  14.572   6.481 -0.0389 -0.1506 -0.1696
 1267ERGO    R214151   6.610  14.797   6.609 -0.0118 -0.1389 -0.1735
 1267ERGO    R314152   6.726  14.683   6.827  0.1101 -0.0711 -0.2017
 1267ERGO    R414153   6.736  14.972   6.879 -0.1974 -0.0650 -0.1328
 1267ERGO    R514154   6.904  14.832   6.884 -0.0459  0.1087 -0.1677
 1267ERGO    C114155   6.918  14.966   7.241 -0.1909  0.0417 -0.1356
 1267ERGO    C214156   6.864  14.996   7.602  0.0886  0.1623 -0.2653
 1268ERGO   ROH14157   6.092   0.189   6.063 -0.1035  0.4525  0.0009
 1268ERGO    R114158   6.226   0.187   6.312 -0.2542  0.3112  0.0822
 1268ERGO    R214159   6.497   0.239   6.336 -0.1758 -0.1389  0.2236
 1268ERGO    R314160   6.413   0.426   6.514  0.0341  0.0717  0.1085
 1268ERGO    R414161   6.691   0.373   6.588  0.0097 -0.1312  0.0798
 1268ERGO    R514162   6.518   0.364   6.720  0.0269  0.1229  0.1307
 1268ERGO    C114163   6.725   0.627   6.902  0.3148  0.0711 -0.1120
 1268ERGO    C214164   6.997   0.767   7.060 -0.2606  0.0677  0.4001
 1269ERGO   ROH14165  15.739   6.767  10.092 -0.1607 -0.0745 -0.0341
 1269ERGO    R114166  15.785   6.838   9.822 -0.0642  0.1387  0.0356
 1269ERGO    R214167  15.624   6.750   9.615  0.0926  0.1781 -0.1109
 1269ERGO    R314168  15.605   7.016   9.561 -0.0411  0.2062  0.0670
 1269ERGO    R414169  15.558   6.883   9.303  0.0187  0.3626 -0.0176
 1269ERGO    R514170  15.705   7.039   9.344 -0.0606  0.4059  0.0813
 1269ERGO    C114171  15.502   7.210   9.070 -0.1498  0.4964  0.2037
 1269ERGO    C214172  15.425   7.452   8.905 -0.1853 -0.1620 -0.1498
 1270ERGO   ROH14173   0.213   6.593   6.689  0.0646 -0.0180 -0.0234
 1270ERGO    R114174   0.305   6.635   6.954 -0.0669  0.0502  0.0124
 1270ERGO    R214175   0.166   6.789   7.136 -0.2128  0.0126 -0.0617
 1270ERGO    R314176   0.183   6.565   7.290 -0.1836  0.0347 -0.0333
 1270ERGO    R414177   0.126   6.782   7.480 -0.2570  0.0382 -0.0664
 1270ERGO    R514178   0.291   6.639   7.491 -0.2287  0.0783 -0.0277
 1270ERGO    C114179   0.119   6.568   7.824 -0.2551  0.0739 -0.0427
 1270ERGO    C214180  -0.066   6.494   8.021  0.1128 -0.0610  0.2696
 1271ERGO   ROH14181   1.025   3.438   9.756 -0.2432  0.4905  0.1962
 1271ERGO    R114182   0.987   3.423   9.476 -0.3297  0.4235  0.2106
 1271ERGO    R214183   0.922   3.643   9.322  0.2145  0.5180  0.0932
 1271ERGO    R314184   1.141   3.568   9.180  0.0115 -0.1404  0.0980
 1271ERGO    R414185   0.972   3.708   8.987  0.3604  0.2425  0.0590
 1271ERGO    R514186   1.055   3.508   8.965 -0.1773 -0.0046  0.1347
 1271ERGO    C114187   1.206   3.675   8.658  0.2548 -0.5360  0.0437
 1271ERGO    C214188   1.377   3.689   8.367  0.0198 -0.1057 -0.2399
 1272ERGO   ROH14189  17.414   6.743   6.553 -0.1211  0.0113  0.1238
 1272ERGO    R114190  17.320   6.680   6.812 -0.1485  0.1386  0.1446
 1272ERGO    R214191  17.467   6.532   6.992 -0.2539  0.0507  0.1558
 1272ERGO    R314192  17.423   6.746   7.155 -0.0617  0.1180  0.1231
 1272ERGO    R414193  17.501   6.528   7.336  0.2266  0.2099  0.1193
 1272ERGO    R514194  17.321   6.651   7.350  0.2214  0.1870  0.3131
 1272ERGO    C114195  17.479   6.726   7.689  0.6864  0.3657  0.0675
 1272ERGO    C214196  17.666   6.680   8.017  0.0696  0.2472  0.2023
 1273ERGO   ROH14197  15.294  10.508   7.004 -0.0046 -0.0613  0.0040
 1273ERGO    R114198  15.418  10.533   7.258  0.0299  0.0062 -0.0190
 1273ERGO    R214199  15.277  10.602   7.485  0.0665  0.1000 -0.0234
 1273ERGO    R314200  15.387  10.374   7.584  0.0484  0.1173  0.0371
 1273ERGO    R414201  15.331  10.537   7.821 -0.3658 -0.0079  0.0313
 1273ERGO    R514202  15.523  10.447   7.767 -0.2422  0.1132  0.2590
 1273ERGO    C114203  15.466  10.285   8.108 -0.6346 -0.0544  0.1200
 1273ERGO    C214204  15.378  10.137   8.417 -0.1034 -0.0017 -0.0696
 1274ERGO   ROH14205  11.416  13.520   6.684 -0.2090  0.0065  0.0068
 1274ERGO    R114206  11.388  13.468   6.961 -0.0931  0.1841  0.0540
 1274ERGO    R214207  11.523  13.264   7.088 -0.3586 -0.0076  0.0363
 1274ERGO    R314208  11.604  13.463   7.253  0.1324 -0.0701 -0.1119
 1274ERGO    R414209  11.640  13.217   7.410 -0.6614 -0.0472  0.1450
 1274ERGO    R514210  11.528  13.395   7.470 -0.1919  0.3471 -0.0811
 1274ERGO    C114211  11.785  13.377   7.752 -0.3766 -0.1289  0.0693
 1274ERGO    C214212  11.833  13.304   8.116  0.2938 -0.0797  0.5886
 1275ERGO   ROH14213   8.276   3.189   9.557 -0.2000 -0.0603  0.0187
 1275ERGO    R114214   8.332   3.245   9.285 -0.0774 -0.0677  0.0419
 1275ERGO    R214215   8.500   3.088   9.132 -0.0117 -0.0742  0.1207
 1275ERGO    R314216   8.285   3.078   8.965  0.0624 -0.0741  0.0241
 1275ERGO    R414217   8.509   2.979   8.804  0.1220 -0.1394  0.1453
 1275ERGO    R514218   8.373   3.140   8.751  0.1699 -0.1288  0.0513
 1275ERGO    C114219   8.313   2.906   8.457  0.2695 -0.1773  0.0690
 1275ERGO    C214220   8.201   2.768   8.035  0.1911 -0.0298 -0.0242
 1276ERGO   ROH14221  14.630   0.130   6.118  0.1402 -0.0923 -0.0792
 1276ERGO    R114222  14.695   0.216   6.379  0.0301  0.0611 -0.1016
 1276ERGO    R214223  14.506   0.314   6.555 -0.0899 -0.0955 -0.1429
 1276ERGO    R314224  14.606   0.122   6.719  0.1169  0.0644 -0.0776
 1276ERGO    R414225  14.676   0.375   6.849 -0.2159  0.1867 -0.1251
 1276ERGO    R514226  14.813   0.213   6.798 -0.0061  0.3386 -0.0607
 1276ERGO    C114227  14.870   0.230   7.175 -0.0954  0.5011 -0.0535
 1276ERGO    C214228  14.969   0.403   7.544  0.0921  0.0512  0.1745
 1277ERGO   ROH14229  16.267  14.273  10.086  0.0554 -0.1401  0.0810
 1277ERGO    R114230  16.259  14.320   9.807  0.0247 -0.0969  0.0894
 1277ERGO    R214231  16.420  14.183   9.628 -0.0222 -0.0944  0.0487
 1277ERGO    R314232  16.183  14.125   9.509 -0.0463 -0.0393  0.0686
 1277ERGO    R414233  16.385  14.015   9.328 -0.0793 -0.0579  0.0345
 1277ERGO    R514234  16.225  14.153   9.275 -0.0628 -0.0216  0.0652
 1277ERGO    C114235  16.142  13.863   9.041 -0.1352  0.0149  0.0448
 1277ERGO    C214236  16.222  13.782   8.752 -0.0202 -0.1712  0.0076
 1278ERGO   ROH14237   8.697   6.926   9.899  0.2153  0.0173  0.1219
 1278ERGO    R114238   8.866   6.878   9.677  0.1040 -0.0322  0.0467
 1278ERGO    R214239   8.803   6.698   9.478 -0.0426 -0.0034  0.0674
 1278ERGO    R314240   8.845   6.912   9.316 -0.0400 -0.0123  0.0562
 1278ERGO    R414241   8.815   6.683   9.133  0.0444 -0.0375  0.0717
 1278ERGO    R514242   8.981   6.825   9.138  0.0192 -0.0075  0.0982
 1278ERGO    C114243   8.862   6.875   8.779  0.0977 -0.0657  0.0636
 1278ERGO    C214244   8.943   6.932   8.478 -0.3218 -0.0472  0.0279
 1279ERGO   ROH14245  16.753  13.465  10.227  0.4076 -0.2637  0.3201
 1279ERGO    R114246  16.816  13.470   9.951  0.0891 -0.2090  0.2464
 1279ERGO    R214247  17.042  13.349   9.847  0.0622 -0.0316 -0.0118
 1279ERGO    R314248  16.861  13.224   9.686 -0.0251 -0.1664  0.1842
 1279ERGO    R414249  17.110  13.225   9.531 -0.1165 -0.1994  0.0124
 1279ERGO    R514250  16.916  13.300   9.466 -0.1848 -0.2772  0.0986
 1279ERGO    C114251  16.980  13.037   9.197 -0.3023 -0.4238  0.2103
 1279ERGO    C214252  17.114  12.966   8.841  0.2464 -0.1026 -0.1018
 1280ERGO   ROH14253  17.028  14.954   9.951  0.0300 -0.1631  0.0335
 1280ERGO    R114254  16.990  14.913   9.674  0.1646 -0.1224  0.0077
 1280ERGO    R214255  16.800  15.051   9.528 -0.0285 -0.3700  0.0122
 1280ERGO    R314256  17.013  15.115   9.372 -0.0834  0.0348  0.0922
 1280ERGO    R414257  16.781  15.136   9.194 -0.0609 -0.3543  0.0182
 1280ERGO    R514258  16.961  15.019   9.159  0.1637 -0.0285  0.0609
 1280ERGO    C114259  16.970  15.246   8.852 -0.1311  0.0347  0.0970
 1280ERGO    C214260  17.063  15.246   8.500 -0.0684  0.0611  0.0095
 1281ERGO   ROH14261   5.584   7.353   6.880  0.0896  0.1792 -0.1840
 1281ERGO    R114262   5.700   7.292   7.130  0.0216  0.0747 -0.1779
 1281ERGO    R214263   5.889   7.453   7.250  0.0330 -0.0062 -0.0879
 1281ERGO    R314264   5.716   7.446   7.460 -0.0131 -0.0310 -0.1261
 1281ERGO    R414265   5.914   7.651   7.533 -0.2149  0.1968 -0.2036
 1281ERGO    R514266   5.855   7.478   7.652 -0.0872  0.2167 -0.1093
 1281ERGO    C114267   5.765   7.759   7.894 -0.4026  0.2917 -0.3069
 1281ERGO    C214268   5.844   7.989   8.115  0.1081  0.1984  0.2066
 1282ERGO   ROH14269   1.417   9.451   7.010  0.3026  0.0359  0.0243
 1282ERGO    R114270   1.289   9.455   7.262  0.2895 -0.0520  0.0196
 1282ERGO    R214271   1.385   9.317   7.480  0.2721 -0.1374 -0.0262
 1282ERGO    R314272   1.374   9.561   7.600  0.2765 -0.1807  0.0634
 1282ERGO    R414273   1.340   9.369   7.819  0.0302 -0.2560 -0.0379
 1282ERGO    R514274   1.208   9.535   7.771  0.1331 -0.1846 -0.0744
 1282ERGO    C114275   1.303   9.628   8.128 -0.1066 -0.3657  0.0394
 1282ERGO    C214276   1.235   9.604   8.570  0.1576 -0.2233  0.0454
 1283ERGO   ROH14277   4.322  17.814   6.441 -0.1075 -0.3632 -0.0731
 1283ERGO    R114278   4.326  17.911   6.707 -0.0123 -0.1375 -0.1533
 1283ERGO    R214279   4.132  17.842   6.893 -0.0321  0.1380 -0.0637
 1283ERGO    R314280   4.348  17.766   7.041 -0.0570  0.1295 -0.0327
 1283ERGO    R414281   4.123  17.754   7.227 -0.0853  0.0913 -0.0778
 1283ERGO    R514282   4.309  17.862   7.256 -0.0996  0.0955 -0.0279
 1283ERGO    C114283   4.319  17.631   7.560 -0.1395  0.0563 -0.0570
 1283ERGO    C214284   4.103  17.614   7.834  0.0713  0.3083  0.3608
 1284ERGO   ROH14285  15.283   5.733   9.825  0.0964  0.0831  0.2472
 1284ERGO    R114286  15.135   5.757   9.585  0.0694  0.2743  0.2832
 1284ERGO    R214287  15.218   5.915   9.375  0.2815  0.0829  0.2277
 1284ERGO    R314288  15.189   5.685   9.233 -0.1494  0.0929  0.2823
 1284ERGO    R414289  15.215   5.895   9.030  0.3378  0.0079  0.2303
 1284ERGO    R514290  15.055   5.747   9.045  0.0216  0.3277  0.2275
 1284ERGO    C114291  15.187   5.667   8.696 -0.0341 -0.0263  0.2831
 1284ERGO    C214292  15.117   5.453   8.438  0.0502  0.0893 -0.2534
 1285ERGO   ROH14293  16.161   0.670   9.494  0.0602  0.0092  0.0161
 1285ERGO    R114294  16.060   0.809   9.269 -0.1643 -0.1531  0.0156
 1285ERGO    R214295  16.223   0.942   9.090 -0.3810  0.1802  0.0677
 1285ERGO    R314296  16.095   0.787   8.907 -0.0572 -0.0426  0.0173
 1285ERGO    R414297  16.190   1.020   8.755 -0.5676  0.2422  0.0981
 1285ERGO    R514298  15.985   0.945   8.763 -0.4165 -0.2163  0.0837
 1285ERGO    C114299  16.050   0.920   8.388 -0.3724  0.0692  0.0683
 1285ERGO    C214300  16.022   1.039   7.947 -0.1512  0.1408 -0.0071
 1286ERGO   ROH14301  18.192   2.272   9.944 -0.2302 -0.1553 -0.0965
 1286ERGO    R114302  18.418   2.255   9.775 -0.1899  0.0745 -0.0671
 1286ERGO    R214303  18.515   2.015   9.678  0.2517  0.1378  0.1963
 1286ERGO    R314304  18.488   2.138   9.437  0.0338 -0.1649  0.0581
 1286ERGO    R414305  18.758   2.025   9.433  0.1183  0.0257  0.0566
 1286ERGO    R514306  18.704   2.232   9.394 -0.0541 -0.0543 -0.1638
 1286ERGO    C114307  18.874   2.147   9.064 -0.1639 -0.3237 -0.1544
 1286ERGO    C214308  18.897   2.094   8.734 -0.3681 -0.0613 -0.1891
 1287ERGO   ROH14309  10.656  11.169  10.473 -0.2342  0.0696 -0.0597
 1287ERGO    R114310  10.589  10.965  10.289 -0.1441 -0.0485  0.0378
 1287ERGO    R214311  10.583  11.007  10.016 -0.2848 -0.1479  0.0245
 1287ERGO    R314312  10.754  10.796  10.012 -0.1164 -0.0144  0.0336
 1287ERGO    R414313  10.624  10.791   9.749 -0.1220 -0.1394  0.0411
 1287ERGO    R514314  10.636  10.626   9.891  0.0146 -0.1191  0.0523
 1287ERGO    C114315  10.808  10.467   9.590  0.1310 -0.0091  0.0594
 1287ERGO    C214316  11.004  10.157   9.471  0.0413  0.0051  0.2150
 1288ERGO   ROH14317   5.093  10.838  10.006  0.1782  0.1344  0.1229
 1288ERGO    R114318   5.301  10.849   9.814  0.0880  0.2486  0.0300
 1288ERGO    R214319   5.261  10.789   9.547  0.0113  0.1828  0.0551
 1288ERGO    R314320   5.369  11.036   9.509 -0.1723  0.2524 -0.0279
 1288ERGO    R414321   5.332  10.929   9.239 -0.0466  0.1144  0.0103
 1288ERGO    R514322   5.517  11.008   9.323 -0.1209  0.2913  0.0080
 1288ERGO    C114323   5.475  11.242   9.025 -0.2527  0.1401 -0.0938
 1288ERGO    C214324   5.332  11.424   8.750  0.1121 -0.1845 -0.0996
 1289ERGO   ROH14325   3.389   5.969  10.631 -0.0309 -0.0399  0.1138
 1289ERGO    R114326   3.527   6.083  10.412  0.2031 -0.1012  0.2240
 1289ERGO    R214327   3.787   6.013  10.347  0.1273 -0.4599  0.2463
 1289ERGO    R314328   3.678   5.962  10.103  0.0972 -0.1359  0.1883
 1289ERGO    R414329   3.961   6.017  10.048  0.0873 -0.1303  0.2241
 1289ERGO    R514330   3.789   6.114   9.955  0.1068  0.0177  0.3609
 1289ERGO    C114331   3.960   5.970   9.646  0.0358  0.3659  0.1568
 1289ERGO    C214332   4.104   5.854   9.409 -0.0671  0.1075  0.2894
 1290ERGO   ROH14333  12.940  17.805   6.081 -0.2034 -0.0466  0.1184
 1290ERGO    R114334  12.945  17.971   6.310 -0.2790  0.0375  0.0599
 1290ERGO    R214335  13.161  18.131   6.373 -0.1976 -0.1226  0.2010
 1290ERGO    R314336  12.972  18.327   6.377 -0.0381  0.0420 -0.0545
 1290ERGO    R414337  13.193  18.433   6.539 -0.1241 -0.1106  0.1650
 1290ERGO    R514338  12.984  18.416   6.599 -0.2084  0.0826 -0.0611
 1290ERGO    C114339  13.034  18.792   6.640  0.0684  0.0511 -0.0959
 1290ERGO    C214340  12.824  19.072   6.658  0.1433 -0.0512  0.1408
 1291ERGO   ROH14341   1.043  14.464  10.024 -0.0615  0.0581  0.0189
 1291ERGO    R114342   1.098  14.459   9.747 -0.0009  0.0595  0.0314
 1291ERGO    R214343   1.125  14.224   9.604 -0.0622  0.0632  0.0202
 1291ERGO    R314344   0.933  14.336   9.447  0.0188  0.1505 -0.0184
 1291ERGO    R414345   1.062  14.134   9.277 -0.1643 -0.0536  0.0708
 1291ERGO    R514346   1.034  14.345   9.229  0.0137 -0.0475 -0.0338
 1291ERGO    C114347   0.845  14.186   8.938 -0.1477 -0.0398  0.0641
 1291ERGO    C214348   0.623  14.012   8.593 -0.0965  0.2319 -0.0044
 1292ERGO   ROH14349  14.042   1.339   9.358  0.1961 -0.2366 -0.1181
 1292ERGO    R114350  13.988   1.500   9.132  0.1644 -0.0834 -0.0013
 1292ERGO    R214351  14.184   1.644   9.002  0.2111 -0.2790 -0.1420
 1292ERGO    R314352  14.092   1.511   8.783 -0.1772 -0.0810 -0.1078
 1292ERGO    R414353  14.190   1.767   8.678  0.4002 -0.2956 -0.1472
 1292ERGO    R514354  13.991   1.681   8.648  0.1741  0.1629 -0.0809
 1292ERGO    C114355  14.106   1.713   8.286  0.1458 -0.1192 -0.1181
 1292ERGO    C214356  14.188   1.874   8.038  0.2887 -0.3212 -0.1508
 1293ERGO   ROH14357   5.947   3.118   6.436 -0.0058  0.1464  0.1141
 1293ERGO    R114358   6.051   3.181   6.691 -0.1013  0.0639  0.1745
 1293ERGO    R214359   5.963   3.058   6.923 -0.0224 -0.1824  0.0781
 1293ERGO    R314360   6.227   3.005   6.956  0.0239  0.0385  0.0742
 1293ERGO    R414361   6.109   2.962   7.221  0.0087 -0.3708  0.0039
 1293ERGO    R514362   6.278   3.091   7.174 -0.1065 -0.1514  0.1813
 1293ERGO    C114363   6.443   2.857   7.426  0.0702 -0.2730 -0.0430
 1293ERGO    C214364   6.820   2.799   7.657 -0.1111  0.3535  0.3367
 1294ERGO   ROH14365   8.798   4.112   6.265 -0.0030  0.0596  0.0851
 1294ERGO    R114366   8.610   4.042   6.464  0.1160 -0.0902  0.1460
 1294ERGO    R214367   8.683   3.921   6.702  0.3143  0.1386  0.2018
 1294ERGO    R314368   8.549   4.130   6.812  0.0383  0.0172  0.1068
 1294ERGO    R414369   8.556   3.927   7.023  0.3265  0.1178  0.2075
 1294ERGO    R514370   8.379   4.028   6.946  0.1801 -0.1531  0.1655
 1294ERGO    C114371   8.356   4.126   7.314  0.0747 -0.0083  0.1216
 1294ERGO    C214372   8.383   4.029   7.633  0.0646 -0.1649 -0.0868
 1295ERGO   ROH14373  17.061  10.400   7.102 -0.2738  0.0824 -0.0706
 1295ERGO    R114374  17.134  10.482   7.362 -0.1141  0.0214 -0.0961
 1295ERGO    R214375  16.949  10.571   7.548  0.0022 -0.0164  0.0325
 1295ERGO    R314376  17.060  10.377   7.703  0.0901 -0.0515 -0.0712
 1295ERGO    R414377  16.893  10.533   7.887 -0.0012 -0.2268  0.0104
 1295ERGO    R514378  17.105  10.486   7.911  0.0264 -0.1390 -0.0066
 1295ERGO    C114379  16.965  10.329   8.230  0.0795 -0.3824 -0.0997
 1295ERGO    C214380  16.969  10.095   8.482 -0.2094  0.2670  0.0422
 1296ERGO   ROH14381  16.892  17.318   9.833 -0.1352 -0.0929 -0.1573
 1296ERGO    R114382  16.907  17.297   9.551  0.0972 -0.1154 -0.1441
 1296ERGO    R214383  17.148  17.299   9.415  0.2239 -0.3687  0.0729
 1296ERGO    R314384  17.053  17.066   9.311  0.0751 -0.2745 -0.0075
 1296ERGO    R414385  17.184  17.200   9.085  0.1241 -0.2562  0.0268
 1296ERGO    R514386  16.980  17.125   9.090  0.0781 -0.1413  0.0240
 1296ERGO    C114387  17.116  16.924   8.796 -0.0739 -0.1020 -0.0756
 1296ERGO    C214388  17.297  16.823   8.611  0.2606 -0.1137  0.1979
 1297ERGO   ROH14389  15.325   6.643   6.973  0.2571  0.0500  0.0200
 1297ERGO    R114390  15.256   6.655   7.247  0.0666 -0.0281 -0.0222
 1297ERGO    R214391  15.437   6.596   7.449 -0.0857 -0.1340  0.0871
 1297ERGO    R314392  15.367   6.843   7.539 -0.0968 -0.1490  0.1190
 1297ERGO    R414393  15.479   6.708   7.773 -0.0350 -0.1497  0.0858
 1297ERGO    R514394  15.285   6.804   7.760 -0.0477 -0.1726  0.1320
 1297ERGO    C114395  15.438   7.004   8.047 -0.0160 -0.1730  0.1151
 1297ERGO    C214396  15.480   7.180   8.309  0.1842 -0.0595  0.2363
 1298ERGO   ROH14397  11.269  13.693   9.847  0.0464 -0.2846 -0.0466
 1298ERGO    R114398  11.344  13.643   9.579  0.1245 -0.0986 -0.0611
 1298ERGO    R214399  11.548  13.780   9.453  0.2159 -0.0678  0.1202
 1298ERGO    R314400  11.643  13.530   9.405  0.1481 -0.0631 -0.0444
 1298ERGO    R414401  11.820  13.707   9.253  0.3229  0.0106  0.2355
 1298ERGO    R514402  11.711  13.535   9.175  0.3046  0.1222  0.0031
 1298ERGO    C114403  12.068  13.430   9.091  0.3216  0.0606  0.1481
 1298ERGO    C214404  12.356  13.485   8.855 -0.0100 -0.0727  0.0032
 1299ERGO   ROH14405   2.435   3.449   6.802 -0.0668  0.0739 -0.0130
 1299ERGO    R114406   2.427   3.358   7.070 -0.0489  0.0472 -0.0213
 1299ERGO    R214407   2.619   3.425   7.256 -0.0740  0.0877 -0.0075
 1299ERGO    R314408   2.405   3.508   7.400 -0.1046  0.0119 -0.0092
 1299ERGO    R414409   2.589   3.396   7.599 -0.1305 -0.0491 -0.0234
 1299ERGO    R514410   2.380   3.342   7.571 -0.1196 -0.0560 -0.0786
 1299ERGO    C114411   2.369   3.458   7.934 -0.1921 -0.1999 -0.0343
 1299ERGO    C214412   2.403   3.585   8.340 -0.0308  0.1263  0.1811
 1300ERGO   ROH14413   0.214  10.787   9.804 -0.0784 -0.1227 -0.1165
 1300ERGO    R114414   0.053  10.751   9.575 -0.1083  0.0836 -0.1291
 1300ERGO    R214415   0.082  10.904   9.346  0.1488  0.0067 -0.1472
 1300ERGO    R314416   0.105  10.662   9.226 -0.2014 -0.0507 -0.1104
 1300ERGO    R414417   0.011  10.841   9.014  0.3970  0.1530 -0.2312
 1300ERGO    R514418  -0.081  10.653   9.074 -0.0594  0.3263 -0.3246
 1300ERGO    C114419  -0.009  10.577   8.707  0.2129  0.1842 -0.2456
 1300ERGO    C214420   0.085  10.440   8.412 -0.1546 -0.2213  0.3734
 1301ERGO   ROH14421  14.932   8.161  10.185 -0.0551 -0.0118  0.2449
 1301ERGO    R114422  14.858   8.008   9.959 -0.0227  0.0124  0.2178
 1301ERGO    R214423  14.840   8.115   9.705 -0.0536  0.0559  0.2376
 1301ERGO    R314424  15.010   7.913   9.642 -0.0057  0.1084  0.1972
 1301ERGO    R414425  14.909   8.009   9.383 -0.1210  0.0533  0.2237
 1301ERGO    R514426  14.905   7.803   9.456 -0.0279  0.0583  0.2402
 1301ERGO    C114427  15.108   7.757   9.137 -0.1152  0.1009  0.1779
 1301ERGO    C214428  15.083   7.837   8.819  0.4285  0.1246  0.0712
 1302ERGO   ROH14429   1.807   2.100   6.854  0.2513  0.0147 -0.0738
 1302ERGO    R114430   1.806   2.195   7.120  0.0298 -0.1452 -0.0136
 1302ERGO    R214431   1.725   2.039   7.333  0.0941 -0.3644 -0.1386
 1302ERGO    R314432   1.969   2.106   7.433 -0.0161 -0.1662  0.0021
 1302ERGO    R414433   1.837   1.960   7.651  0.0112 -0.3195 -0.0986
 1302ERGO    R514434   1.927   2.158   7.663 -0.1737 -0.2472 -0.0127
 1302ERGO    C114435   2.131   1.977   7.929 -0.1405 -0.1072  0.0568
 1302ERGO    C214436   2.290   1.753   8.130 -0.0550  0.0252 -0.3941
 1303ERGO   ROH14437   3.361   6.724   7.200  0.0082  0.0127 -0.0645
 1303ERGO    R114438   3.512   6.823   7.417 -0.2156  0.3519 -0.0560
 1303ERGO    R214439   3.400   6.969   7.623 -0.6716 -0.3077  0.1957
 1303ERGO    R314440   3.516   6.779   7.779  0.1820 -0.0767 -0.1012
 1303ERGO    R414441   3.530   7.026   7.938 -0.7062 -0.1710  0.1867
 1303ERGO    R514442   3.696   6.894   7.887 -0.1832  0.5234 -0.0769
 1303ERGO    C114443   3.715   6.880   8.268  0.0751  0.1252 -0.0973
 1303ERGO    C214444   3.797   6.749   8.487 -0.3216 -0.1392  0.0200
 1304ERGO   ROH14445   5.068   3.590   6.893 -0.0175  0.1067  0.1136
 1304ERGO    R114446   5.195   3.586   7.146  0.0809  0.0386  0.0652
 1304ERGO    R214447   5.066   3.507   7.377  0.1111  0.1564  0.1312
 1304ERGO    R314448   5.275   3.335   7.397 -0.0078  0.0027  0.0555
 1304ERGO    R414449   5.239   3.441   7.668  0.3269  0.2112  0.0156
 1304ERGO    R514450   5.424   3.440   7.553  0.2202 -0.0153 -0.1513
 1304ERGO    C114451   5.537   3.240   7.857  0.3409  0.0989 -0.1228
 1304ERGO    C214452   5.390   2.978   8.175 -0.0847  0.1164  0.3395
 1305ERGO   ROH14453  15.211   1.338   9.721 -0.1878  0.0706  0.0747
 1305ERGO    R114454  15.297   1.508   9.513 -0.1089  0.1530  0.1730
 1305ERGO    R214455  15.321   1.423   9.251  0.1093  0.2213  0.1669
 1305ERGO    R314456  15.159   1.635   9.200  0.0581  0.1668  0.1044
 1305ERGO    R414457  15.228   1.528   8.936  0.0560  0.0892  0.1384
 1305ERGO    R514458  15.251   1.734   9.003  0.0160  0.1172  0.0612
 1305ERGO    C114459  15.021   1.788   8.704 -0.0232 -0.0388  0.0631
 1305ERGO    C214460  14.965   1.946   8.428  0.0730  0.0056  0.0449
 1306ERGO   ROH14461   3.417   5.085  10.219  0.0304 -0.3538  0.0465
 1306ERGO    R114462   3.490   5.199   9.970  0.1958 -0.2293  0.1499
 1306ERGO    R214463   3.717   5.121   9.832  0.0641 -0.4678  0.0625
 1306ERGO    R314464   3.540   5.079   9.630 -0.0250  0.0128  0.0290
 1306ERGO    R414465   3.801   5.091   9.498  0.0028 -0.3701  0.0377
 1306ERGO    R514466   3.626   5.209   9.448  0.2141 -0.0008  0.1271
 1306ERGO    C114467   3.684   5.034   9.114 -0.1165  0.1381 -0.0082
 1306ERGO    C214468   3.691   5.150   8.841  0.1351  0.0551 -0.1326
 1307ERGO   ROH14469  17.755   8.994   7.146 -0.1371 -0.1742 -0.1028
 1307ERGO    R114470  17.606   8.860   7.347 -0.2494 -0.0178 -0.0801
 1307ERGO    R214471  17.685   8.855   7.611 -0.1875 -0.1405 -0.1027
 1307ERGO    R314472  17.434   8.952   7.654 -0.0637  0.1569 -0.0251
 1307ERGO    R414473  17.529   8.870   7.920 -0.1891 -0.2696 -0.0967
 1307ERGO    R514474  17.343   8.809   7.823 -0.2721  0.0864 -0.1886
 1307ERGO    C114475  17.203   8.970   8.139 -0.0740 -0.0657 -0.0203
 1307ERGO    C214476  16.986   9.109   8.536  0.2346  0.0870 -0.4222
 1308ERGO   ROH14477  16.415   2.645   6.785  0.0044 -0.0562 -0.0846
 1308ERGO    R114478  16.570   2.740   7.002 -0.0669 -0.0535 -0.0347
 1308ERGO    R214479  16.459   2.878   7.215 -0.1465 -0.1064 -0.0410
 1308ERGO    R314480  16.581   2.685   7.362 -0.1405 -0.1014 -0.0397
 1308ERGO    R414481  16.505   2.889   7.557 -0.1146 -0.0880 -0.0459
 1308ERGO    R514482  16.704   2.805   7.528 -0.1210 -0.0967 -0.0583
 1308ERGO    C114483  16.647   2.715   7.895 -0.0902 -0.0727 -0.0475
 1308ERGO    C214484  16.753   2.698   8.243  0.0647  0.2254  0.1452
 1309ERGO   ROH14485  12.922   5.299   9.742 -0.2216  0.0175  0.1575
 1309ERGO    R114486  12.965   5.275   9.463 -0.1586 -0.0559  0.1751
 1309ERGO    R214487  12.780   5.159   9.294 -0.2076  0.0942  0.1401
 1309ERGO    R314488  12.805   5.394   9.159  0.0457  0.0524  0.1049
 1309ERGO    R414489  12.669   5.216   8.971 -0.2548  0.1806  0.1698
 1309ERGO    R514490  12.850   5.330   8.934 -0.1113 -0.0473  0.0919
 1309ERGO    C114491  12.627   5.469   8.658 -0.0444  0.1916  0.1539
 1309ERGO    C214492  12.657   5.440   8.382 -0.0627 -0.0533  0.2058
 1310ERGO   ROH14493   7.306   1.459   9.157  0.1667 -0.1582  0.0393
 1310ERGO    R114494   7.158   1.563   8.939 -0.0209 -0.2566  0.1180
 1310ERGO    R214495   7.279   1.677   8.717 -0.2186  0.1375  0.2063
 1310ERGO    R314496   7.129   1.494   8.583  0.1126 -0.0374  0.0616
 1310ERGO    R414497   7.210   1.686   8.379 -0.1593  0.2401  0.1967
 1310ERGO    R514498   7.007   1.623   8.422 -0.0712 -0.1320  0.1183
 1310ERGO    C114499   7.030   1.520   8.055  0.1861  0.1356  0.0552
 1310ERGO    C214500   6.900   1.387   7.816  0.1515  0.2609  0.1512
 1311ERGO   ROH14501   3.189  14.909   6.514  0.1236 -0.0685 -0.0129
 1311ERGO    R114502   3.163  14.881   6.795  0.1360 -0.0684 -0.0118
 1311ERGO    R214503   3.293  15.047   6.974  0.0295  0.0230 -0.0195
 1311ERGO    R314504   3.043  15.085   7.071  0.0034 -0.1275 -0.0247
 1311ERGO    R414505   3.217  15.097   7.307  0.0096  0.0999 -0.0354
 1311ERGO    R514506   3.042  14.969   7.281  0.1030 -0.0451  0.0231
 1311ERGO    C114507   2.938  15.162   7.593 -0.0265  0.0034 -0.0496
 1311ERGO    C214508   2.903  15.170   7.953  0.0127 -0.1206  0.0725
 1312ERGO   ROH14509  17.082   3.701   6.559 -0.1616  0.0588 -0.2280
 1312ERGO    R114510  17.013   3.734   6.832 -0.1699  0.1852 -0.2446
 1312ERGO    R214511  17.136   3.591   7.034 -0.3044  0.1425 -0.1915
 1312ERGO    R314512  17.182   3.839   7.136 -0.1240  0.1354 -0.2531
 1312ERGO    R414513  17.271   3.655   7.346 -0.3038  0.1246 -0.1878
 1312ERGO    R514514  17.130   3.819   7.369 -0.1778  0.2434 -0.2563
 1312ERGO    C114515  17.394   3.925   7.623 -0.1342  0.1076 -0.2436
 1312ERGO    C214516  17.493   3.890   7.967  0.1005 -0.0993  0.1429
 1313ERGO   ROH14517  16.364  12.171   9.959  0.0660 -0.2945  0.0783
 1313ERGO    R114518  16.450  12.056   9.715  0.0706 -0.1709  0.0200
 1313ERGO    R214519  16.274  11.942   9.535  0.0854 -0.1888  0.0139
 1313ERGO    R314520  16.392  12.114   9.360 -0.0274 -0.0722  0.0522
 1313ERGO    R414521  16.208  11.956   9.196  0.2331 -0.3044 -0.0199
 1313ERGO    R514522  16.421  11.986   9.160  0.2180 -0.0629  0.0806
 1313ERGO    C114523  16.281  12.126   8.835  0.2132 -0.2622 -0.0037
 1313ERGO    C214524  16.228  12.174   8.438  0.0695  0.1266 -0.3264
 1314ERGO   ROH14525   8.382  10.189  10.267 -0.2345  0.1889 -0.0050
 1314ERGO    R114526   8.520  10.098  10.037 -0.1208  0.3921 -0.0197
 1314ERGO    R214527   8.452   9.865   9.905  0.2961  0.2082  0.0700
 1314ERGO    R314528   8.438  10.029   9.689 -0.0986  0.1261  0.0257
 1314ERGO    R414529   8.500   9.765   9.577  0.2182  0.1820  0.0667
 1314ERGO    R514530   8.610   9.950   9.543 -0.0789  0.3391 -0.0678
 1314ERGO    C114531   8.515   9.862   9.184 -0.1977  0.0897  0.0232
 1314ERGO    C214532   8.487   9.959   8.878  0.2064 -0.5594  0.2421
 1315ERGO   ROH14533   3.621   4.374   6.980 -0.1452  0.3553 -0.0908
 1315ERGO    R114534   3.574   4.321   7.254 -0.0187  0.1693 -0.1026
 1315ERGO    R214535   3.773   4.238   7.426  0.0574  0.0240 -0.2544
 1315ERGO    R314536   3.690   4.452   7.573  0.1518 -0.0662 -0.0664
 1315ERGO    R414537   3.865   4.301   7.753  0.2069 -0.2146 -0.2487
 1315ERGO    R514538   3.660   4.364   7.794  0.2359 -0.2136 -0.1143
 1315ERGO    C114539   3.841   4.537   8.081  0.3826 -0.4382 -0.0689
 1315ERGO    C214540   4.121   4.568   8.363 -0.0553 -0.0191 -0.1513
 1316ERGO   ROH14541   4.921   5.098   7.041 -0.1364  0.1397  0.0005
 1316ERGO    R114542   5.000   5.208   7.290  0.0275  0.0437 -0.0078
 1316ERGO    R214543   4.945   5.085   7.531 -0.0060  0.0592 -0.0092
 1316ERGO    R314544   5.214   5.109   7.567  0.0262 -0.1689 -0.0805
 1316ERGO    R414545   5.110   5.021   7.827  0.0080 -0.0364 -0.0373
 1316ERGO    R514546   5.236   5.195   7.789  0.1539 -0.1489 -0.0982
 1316ERGO    C114547   5.458   5.005   8.034  0.0465 -0.3061 -0.1207
 1316ERGO    C214548   5.661   5.110   8.274 -0.2559 -0.0459  0.0001
 1317ERGO   ROH14549  17.060   5.526   9.784 -0.0627 -0.0863  0.1014
 1317ERGO    R114550  17.073   5.398   9.532  0.0259 -0.1149  0.1198
 1317ERGO    R214551  16.991   5.520   9.298 -0.2146 -0.2605  0.1214
 1317ERGO    R314552  17.241   5.455   9.215 -0.1496  0.0568  0.0561
 1317ERGO    R414553  17.077   5.435   8.974 -0.1855 -0.1519  0.1007
 1317ERGO    R514554  17.208   5.281   9.054  0.0317  0.0135  0.0659
 1317ERGO    C114555  17.362   5.325   8.708 -0.1074  0.2092  0.0275
 1317ERGO    C214556  17.397   5.309   8.400 -0.0471  0.2588  0.0202
 1318ERGO   ROH14557   8.283  14.158   8.083  0.1638 -0.0803 -0.2202
 1318ERGO    R114558   8.282  14.101   7.805  0.1118 -0.2505 -0.1879
 1318ERGO    R214559   8.205  13.855   7.705 -0.1667 -0.2380 -0.0461
 1318ERGO    R314560   8.035  14.006   7.556  0.0098 -0.1238 -0.1313
 1318ERGO    R414561   8.054  13.751   7.412 -0.2740 -0.1981 -0.0032
 1318ERGO    R514562   8.089  13.949   7.329 -0.0502 -0.2871 -0.0965
 1318ERGO    C114563   7.806  13.832   7.102 -0.1710 -0.0677 -0.0582
 1318ERGO    C214564   7.593  13.728   6.838  0.2882  0.0760  0.2067
 1319ERGO   ROH14565   3.688  15.926   9.467 -0.2276 -0.1721  0.0528
 1319ERGO    R114566   3.697  15.891   9.186 -0.2835 -0.1716  0.0508
 1319ERGO    R214567   3.479  15.940   9.023 -0.2532  0.0376  0.0698
 1319ERGO    R314568   3.655  16.101   8.892 -0.1117 -0.1209  0.0619
 1319ERGO    R414569   3.443  16.048   8.697 -0.3116  0.2921  0.1581
 1319ERGO    R514570   3.657  16.017   8.668 -0.3687  0.0141  0.0062
 1319ERGO    C114571   3.587  16.262   8.384 -0.2127  0.2914  0.2021
 1319ERGO    C214572   3.396  16.393   8.090  0.3445  0.2320  0.2858
 1320ERGO   ROH14573   4.936   6.506   7.130  0.0470  0.0872 -0.0228
 1320ERGO    R114574   5.053   6.625   7.358  0.0993  0.1334 -0.0722
 1320ERGO    R214575   4.982   6.555   7.616  0.0441  0.2935 -0.0366
 1320ERGO    R314576   5.250   6.514   7.643  0.0205  0.1583 -0.0099
 1320ERGO    R414577   5.151   6.549   7.917  0.0032  0.0874 -0.0171
 1320ERGO    R514578   5.314   6.659   7.823  0.0652  0.0489  0.0576
 1320ERGO    C114579   5.500   6.507   8.119 -0.0428 -0.1595  0.0192
 1320ERGO    C214580   5.675   6.599   8.437  0.0317  0.2426 -0.0721
 1321ERGO   ROH14581   5.295   6.319  10.024  0.1062 -0.0047  0.1145
 1321ERGO    R114582   5.389   6.379   9.763  0.0229  0.1103  0.1096
 1321ERGO    R214583   5.436   6.183   9.573  0.2376  0.1654  0.0990
 1321ERGO    R314584   5.268   6.334   9.423  0.0501 -0.0215  0.1176
 1321ERGO    R414585   5.419   6.176   9.228  0.1248  0.0717  0.1065
 1321ERGO    R514586   5.396   6.393   9.229 -0.0699  0.0504  0.0611
 1321ERGO    C114587   5.251   6.314   8.886 -0.1169 -0.1582  0.1284
 1321ERGO    C214588   5.201   6.402   8.538 -0.0243 -0.1367  0.0011
 1322ERGO   ROH14589   9.526  11.826   6.953  0.1136 -0.1250 -0.0380
 1322ERGO    R114590   9.429  11.788   7.216 -0.2433  0.1236 -0.1296
 1322ERGO    R214591   9.589  11.818   7.441 -0.3777 -0.2873  0.0047
 1322ERGO    R314592   9.392  11.989   7.516 -0.0222  0.2229 -0.1598
 1322ERGO    R414593   9.550  11.947   7.758 -0.5160 -0.5677  0.1094
 1322ERGO    R514594   9.335  11.922   7.738 -0.6086  0.0867 -0.3150
 1322ERGO    C114595   9.343  12.184   8.014 -0.2629 -0.2519  0.0158
 1322ERGO    C214596   9.378  12.250   8.314  0.1859 -0.2491 -0.0666
 1323ERGO   ROH14597   6.503  15.492   9.512 -0.1841 -0.1569 -0.2231
 1323ERGO    R114598   6.679  15.495   9.290 -0.0550  0.0437 -0.1208
 1323ERGO    R214599   6.634  15.345   9.062  0.2444 -0.0044 -0.1549
 1323ERGO    R314600   6.659  15.586   8.939  0.0479  0.0303 -0.1292
 1323ERGO    R414601   6.769  15.393   8.748  0.0745  0.1355 -0.2081
 1323ERGO    R514602   6.867  15.572   8.822  0.0010  0.1777 -0.2264
 1323ERGO    C114603   6.870  15.646   8.448 -0.2088  0.2496 -0.2151
 1323ERGO    C214604   6.885  15.739   8.060  0.0681  0.0690 -0.1012
 1324ERGO   ROH14605   7.647   7.650   6.950 -0.0263  0.0027  0.1393
 1324ERGO    R114606   7.823   7.635   7.171 -0.0066 -0.0835  0.1180
 1324ERGO    R214607   7.868   7.849   7.341  0.1415 -0.0966  0.0941
 1324ERGO    R314608   7.797   7.670   7.533  0.0609 -0.0384  0.1196
 1324ERGO    R414609   7.953   7.872   7.675  0.4235 -0.2421  0.0346
 1324ERGO    R514610   7.988   7.657   7.676  0.1601 -0.2918 -0.0243
 1324ERGO    C114611   7.937   7.717   8.049  0.5120 -0.2724  0.0239
 1324ERGO    C214612   7.947   7.831   8.333  0.2915  0.2260 -0.3173
 1325ERGO   ROH14613  12.528  17.028   9.350 -0.1154  0.2312  0.1900
 1325ERGO    R114614  12.429  17.033   9.085  0.0225  0.1096  0.1367
 1325ERGO    R214615  12.250  17.224   8.997  0.0386  0.0373 -0.0280
 1325ERGO    R314616  12.438  17.264   8.804  0.1243 -0.0011  0.0442
 1325ERGO    R414617  12.198  17.398   8.703  0.1650  0.0335 -0.0546
 1325ERGO    R514618  12.317  17.248   8.598  0.1905  0.0030 -0.0044
 1325ERGO    C114619  12.345  17.537   8.351  0.3190 -0.0048 -0.0023
 1325ERGO    C214620  12.475  17.650   7.986 -0.1854  0.1408  0.0918
 1326ERGO   ROH14621   1.850   6.952   7.018  0.0844  0.1084 -0.0265
 1326ERGO    R114622   1.639   6.975   7.205 -0.1001 -0.0707 -0.2051
 1326ERGO    R214623   1.463   6.769   7.258  0.1238 -0.2874 -0.2338
 1326ERGO    R314624   1.540   6.812   7.515 -0.1200 -0.0407 -0.1996
 1326ERGO    R414625   1.304   6.639   7.536  0.1235 -0.3557 -0.2671
 1326ERGO    R514626   1.334   6.830   7.636 -0.2212 -0.2663 -0.3490
 1326ERGO    C114627   1.283   6.604   7.939 -0.1055 -0.1640 -0.2543
 1326ERGO    C214628   1.103   6.474   8.186  0.1937  0.1676  0.0131
 1327ERGO   ROH14629   8.836  15.001   6.400  0.1953  0.0807  0.0116
 1327ERGO    R114630   8.781  14.974   6.676  0.0383  0.2655  0.0012
 1327ERGO    R214631   8.920  14.799   6.839 -0.3193  0.0727  0.1163
 1327ERGO    R314632   8.963  15.023   6.988  0.0075  0.0584  0.0519
 1327ERGO    R414633   8.982  14.802   7.179 -0.3572  0.0905  0.1229
 1327ERGO    R514634   8.854  14.977   7.196 -0.0894  0.2944  0.0528
 1327ERGO    C114635   9.058  15.013   7.517 -0.0726  0.0875  0.0662
 1327ERGO    C214636   9.246  14.961   7.804  0.5832  0.1512  0.3199
 1328ERGO   ROH14637  12.838   7.707   7.432 -0.0424 -0.0620  0.1022
 1328ERGO    R114638  12.909   7.704   7.706 -0.2452  0.0542  0.1564
 1328ERGO    R214639  12.725   7.656   7.906 -0.3111 -0.3114  0.0058
 1328ERGO    R314640  12.902   7.462   7.978  0.0091  0.0162  0.1339
 1328ERGO    R414641  12.729   7.496   8.213 -0.4558 -0.5157 -0.0946
 1328ERGO    R514642  12.947   7.507   8.209 -0.4495 -0.0345  0.2478
 1328ERGO    C114643  12.898   7.222   8.459 -0.2395 -0.3271 -0.0329
 1328ERGO    C214644  12.669   7.069   8.660  0.0626  0.1663 -0.0023
 1329ERGO   ROH14645  14.027   3.904   9.540  0.2767 -0.1710  0.0664
 1329ERGO    R114646  13.934   3.855   9.278  0.1128  0.0140  0.0872
 1329ERGO    R214647  14.104   3.805   9.066 -0.0222  0.0329 -0.0302
 1329ERGO    R314648  13.952   3.582   9.037 -0.1545  0.1276 -0.0654
 1329ERGO    R414649  14.100   3.604   8.785 -0.1194  0.0608 -0.0485
 1329ERGO    R514650  13.884   3.586   8.807 -0.1316  0.1893 -0.0701
 1329ERGO    C114651  13.954   3.278   8.594 -0.3002  0.1659 -0.0920
 1329ERGO    C214652  13.812   3.099   8.316  0.3424 -0.0394  0.1161
 1330ERGO   ROH14653  12.951   5.399   6.536 -0.2457 -0.0090  0.0594
 1330ERGO    R114654  12.919   5.229   6.759 -0.2758 -0.0023  0.0602
 1330ERGO    R214655  13.082   5.242   6.982 -0.0909 -0.2184 -0.0579
 1330ERGO    R314656  12.846   5.268   7.114  0.0326  0.0373  0.1225
 1330ERGO    R414657  13.021   5.129   7.303 -0.0619 -0.4587 -0.1348
 1330ERGO    R514658  12.824   5.064   7.238 -0.2200 -0.0649 -0.0799
 1330ERGO    C114659  12.764   5.088   7.614  0.0710 -0.3587 -0.0104
 1330ERGO    C214660  12.732   5.131   8.036 -0.1000 -0.0356 -0.0267
 1331ERGO   ROH14661  17.253   9.128   7.060  0.2169  0.1282  0.0094
 1331ERGO    R114662  17.251   9.192   7.335  0.1162  0.0197  0.0347
 1331ERGO    R214663  17.215   9.449   7.429  0.2785  0.0156  0.1153
 1331ERGO    R314664  17.015   9.334   7.573  0.1001  0.1221 -0.0424
 1331ERGO    R414665  17.137   9.528   7.756  0.1957 -0.0919  0.1222
 1331ERGO    R514666  17.105   9.316   7.794 -0.0223 -0.0839 -0.0081
 1331ERGO    C114667  16.904   9.466   8.082 -0.0199 -0.0547 -0.0218
 1331ERGO    C214668  16.834   9.620   8.330  0.4454  0.0894 -0.0685
 1332ERGO   ROH14669  15.798   2.632   9.659  0.1846  0.0129 -0.0230
 1332ERGO    R114670  15.979   2.773   9.493  0.2212 -0.0030  0.0031
 1332ERGO    R214671  16.197   2.652   9.374  0.1153 -0.0671 -0.1267
 1332ERGO    R314672  16.089   2.754   9.147  0.1117  0.1227 -0.0392
 1332ERGO    R414673  16.374   2.818   9.128  0.1464 -0.0264 -0.0765
 1332ERGO    R514674  16.209   2.958   9.110  0.2183  0.0774  0.0473
 1332ERGO    C114675  16.376   3.010   8.772  0.1610  0.1755  0.0350
 1332ERGO    C214676  16.508   3.091   8.503 -0.2359 -0.0963  0.2332
 1333ERGO   ROH14677  11.127  11.893   7.215  0.0374 -0.2087  0.1212
 1333ERGO    R114678  11.045  11.816   7.475 -0.0546 -0.1824  0.1008
 1333ERGO    R214679  11.140  11.940   7.703 -0.1085 -0.1809  0.1259
 1333ERGO    R314680  10.876  11.975   7.756 -0.1206 -0.1413  0.0375
 1333ERGO    R414681  11.009  12.014   8.014 -0.2067 -0.1898  0.0864
 1333ERGO    R514682  10.845  11.876   7.972 -0.2142 -0.1565  0.0160
 1333ERGO    C114683  10.684  12.090   8.245 -0.2751 -0.1578 -0.0196
 1333ERGO    C214684  10.406  12.264   8.325  0.2522 -0.1274  0.0003
 1334ERGO   ROH14685   5.978   4.416   6.847  0.1898  0.1267 -0.0771
 1334ERGO    R114686   5.949   4.297   7.102  0.0811  0.2298 -0.0404
 1334ERGO    R214687   6.038   4.041   7.158 -0.0364  0.2137  0.0723
 1334ERGO    R314688   6.171   4.166   7.360 -0.0328  0.2309  0.0598
 1334ERGO    R414689   6.149   3.886   7.446  0.1172  0.2000  0.0070
 1334ERGO    R514690   6.087   4.062   7.559  0.0705  0.1496  0.0631
 1334ERGO    C114691   6.339   3.914   7.804  0.2100  0.2081 -0.0428
 1334ERGO    C214692   6.593   3.712   7.865  0.1055  0.2383  0.2665
 1335ERGO   ROH14693  14.190   8.982   7.140 -0.2803 -0.0414 -0.0739
 1335ERGO    R114694  14.169   8.994   7.422 -0.1462  0.0965 -0.0689
 1335ERGO    R214695  14.238   9.219   7.566 -0.1698  0.2006 -0.2208
 1335ERGO    R314696  13.986   9.194   7.665 -0.1107  0.1452 -0.0809
 1335ERGO    R414697  14.144   9.298   7.890 -0.0306  0.3077 -0.2053
 1335ERGO    R514698  14.018   9.120   7.891  0.0371  0.2562 -0.0621
 1335ERGO    C114699  13.852   9.320   8.170  0.1061  0.3180 -0.0649
 1335ERGO    C214700  13.892   9.414   8.592  0.1308  0.0940  0.0285
 1336ERGO   ROH14701  12.195  10.611   7.293 -0.0279  0.1627 -0.1357
 1336ERGO    R114702  12.200  10.858   7.431 -0.0252  0.1127 -0.0448
 1336ERGO    R214703  12.021  10.919   7.633  0.0273  0.0092  0.0358
 1336ERGO    R314704  12.248  10.968   7.774  0.0647 -0.0083 -0.0182
 1336ERGO    R414705  12.033  10.976   7.973  0.1282 -0.0960  0.0505
 1336ERGO    R514706  12.182  11.131   7.937  0.0974 -0.0681  0.0533
 1336ERGO    C114707  12.253  11.056   8.304  0.2220 -0.1737  0.0083
 1336ERGO    C214708  12.136  11.060   8.647  0.1425  0.0120  0.3055
 1337ERGO   ROH14709  15.416   3.545   9.514 -0.0291 -0.0818 -0.1866
 1337ERGO    R114710  15.406   3.599   9.237 -0.0276 -0.1599 -0.2025
 1337ERGO    R214711  15.598   3.751   9.108 -0.1577  0.0132 -0.1989
 1337ERGO    R314712  15.616   3.532   8.947  0.1069 -0.0106 -0.1403
 1337ERGO    R414713  15.742   3.748   8.793 -0.1193  0.0924 -0.1818
 1337ERGO    R514714  15.581   3.618   8.726  0.0342 -0.1084 -0.1664
 1337ERGO    C114715  15.843   3.542   8.460  0.1515  0.1162 -0.1169
 1337ERGO    C214716  16.045   3.309   8.254  0.2791 -0.2016 -0.1182
 1338ERGO   ROH14717  10.972  15.388   6.283 -0.0164  0.0544 -0.1703
 1338ERGO    R114718  11.111  15.336   6.524 -0.0137  0.0498 -0.1730
 1338ERGO    R214719  11.129  15.521   6.728  0.0409  0.0681 -0.1955
 1338ERGO    R314720  11.028  15.318   6.878  0.0041  0.1083 -0.1655
 1338ERGO    R414721  11.164  15.492   7.071 -0.0196  0.1479 -0.1822
 1338ERGO    R514722  11.196  15.278   7.044 -0.0257  0.1390 -0.1267
 1338ERGO    C114723  11.090  15.285   7.411 -0.0893  0.2320 -0.1462
 1338ERGO    C214724  11.340  15.438   7.728  0.0936  0.2076 -0.1054
 1339ERGO   ROH14725   4.775   9.586  10.119 -0.0467 -0.3608 -0.0519
 1339ERGO    R114726   4.866   9.661   9.862  0.0296 -0.2612  0.0038
 1339ERGO    R214727   5.117   9.767   9.818  0.0303 -0.2166  0.1239
 1339ERGO    R314728   5.137   9.564   9.639  0.1147 -0.1518  0.0581
 1339ERGO    R414729   5.252   9.795   9.501  0.0217 -0.0576  0.1331
 1339ERGO    R514730   5.093   9.666   9.427  0.0737 -0.1000  0.0903
 1339ERGO    C114731   5.349   9.621   9.148  0.0959  0.0957  0.0767
 1339ERGO    C214732   5.431   9.502   8.778  0.2870 -0.1356  0.0443
 1340ERGO   ROH14733  11.877   5.188   6.355  0.1390 -0.1484  0.0571
 1340ERGO    R114734  11.816   5.279   6.616  0.2245 -0.0111  0.0297
 1340ERGO    R214735  11.700   5.117   6.807  0.0120  0.1727  0.0585
 1340ERGO    R314736  11.915   5.194   6.955  0.0927 -0.0473  0.0599
 1340ERGO    R414737  11.696   5.169   7.149 -0.0013  0.3952  0.0260
 1340ERGO    R514738  11.823   5.343   7.119  0.2658  0.1946 -0.0558
 1340ERGO    C114739  11.894   5.272   7.487  0.0667  0.3183  0.0085
 1340ERGO    C214740  11.787   5.068   7.830  0.0640  0.1598 -0.1276
 1341ERGO   ROH14741  12.533   9.952   6.793  0.1758  0.2002 -0.0878
 1341ERGO    R114742  12.594   9.927   7.068 -0.0891  0.1226 -0.0326
 1341ERGO    R214743  12.854   9.923   7.163 -0.1682 -0.2327  0.1862
 1341ERGO    R314744  12.766  10.126   7.320 -0.0227 -0.1027  0.1030
 1341ERGO    R414745  12.997  10.017   7.463  0.0024 -0.1000  0.0654
 1341ERGO    R514746  12.797  10.047   7.543  0.0485  0.0226  0.1389
 1341ERGO    C114747  12.998  10.263   7.785  0.2382  0.0993 -0.0831
 1341ERGO    C214748  13.106  10.319   8.033  0.1530 -0.3349 -0.0920
 1342ERGO   ROH14749   1.867   5.110   7.622 -0.0802  0.0289  0.0477
 1342ERGO    R114750   1.890   5.297   7.833 -0.0809  0.1773 -0.0811
 1342ERGO    R214751   1.671   5.419   7.947 -0.1032  0.0594  0.0081
 1342ERGO    R314752   1.777   5.322   8.178  0.1546  0.2858 -0.0099
 1342ERGO    R414753   1.611   5.550   8.262 -0.2152  0.0221  0.0021
 1342ERGO    R514754   1.822   5.518   8.309 -0.1347  0.3961 -0.0680
 1342ERGO    C114755   1.676   5.535   8.661 -0.0385  0.2131 -0.0183
 1342ERGO    C214756   1.476   5.653   8.948  0.1174  0.2339 -0.0007
 1343W        W14757   0.552  13.318  12.648 -0.0283 -0.1140  0.0748
 1344W        W14758  10.450  10.575   2.231 -0.0394 -0.0809  0.2279
 1345W        W14759   9.952   8.459   2.490 -0.0316 -0.0981  0.0076
 1346W        W14760   6.430   0.059  15.189 -0.0381 -0.1771 -0.1697
 1347W        W14761   1.876   5.483   1.727  0.2792 -0.2227 -0.0152
 1348W        W14762   2.748  14.489   2.440  0.1747  0.3029 -0.1157
 1349W        W14763   8.323   7.410  10.873 -0.1813 -0.0227  0.2982
 1350W        W14764   0.426   6.817   4.198 -0.0564 -0.5572  0.1757
 1351W        W14765   2.837  11.168   1.516  0.1264 -0.1217 -0.2060
 1352W        W14766  10.478   5.711  12.711 -0.2683 -0.2692 -0.2511
 1353W        W14767   2.321  11.988   4.580 -0.2612 -0.0182  0.1874
 1354W        W14768  17.832  10.736  13.166  0.0801 -0.0762 -0.3249
 1355W        W14769   7.599  16.625  15.754 -0.2207 -0.3201  0.1922
 1356W        W14770   1.550  17.303  12.161 -0.0610 -0.0887  0.2572
 1357W        W14771  13.842   0.141   5.281 -0.2755  0.1947 -0.2019
 1358W        W14772   3.602   5.883   0.872  0.1426 -0.0183 -0.3258
 1359W        W14773  14.130   0.660   1.625  0.1681 -0.0596  0.4823
 1360W        W14774  17.960  16.170   0.866  0.0653  0.0982 -0.3844
 1361W        W14775   0.187  12.406  12.941  0.0134 -0.1504 -0.0545
 1362W        W14776   1.291   0.077   2.386  0.0373 -0.1668  0.2644
 1363W        W14777  13.830   4.318   3.876  0.2992  0.2030  0.0171
 1364W        W14778   6.687  10.124   1.013 -0.1231 -0.2278  0.0520
 1365W        W14779   3.269   7.912  13.047 -0.0813 -0.1029  0.0289
 1366W        W14780  13.148   4.872  15.983 -0.1071 -0.1012 -0.0574
 1367W        W14781  10.215   1.801  14.225  0.0275 -0.1121  0.0171
 1368W        W14782  14.371  13.381  13.793  0.1728  0.1173 -0.0560
 1369W        W14783   4.152   0.829   4.647  0.0533  0.1915 -0.0217
 1370W        W14784  17.017   4.054   5.062 -0.0515 -0.0728 -0.0035
 1371W        W14785   3.871  11.590   0.323 -0.0033  0.2554  0.3793
 1372W        W14786   7.307  14.245  11.928 -0.1394 -0.1526 -0.1856
 1373W        W14787  12.942   5.690  16.152  0.1603 -0.1192  0.1089
 1374W        W14788   2.192   5.778   3.399  0.0512 -0.0101  0.1632
 1375W        W14789  14.575  11.156  16.194  0.0335 -0.1329  0.1320
 1376W        W14790  11.094   5.589   1.032 -0.2278  0.2203 -0.0578
 1377W        W14791   1.386   3.925  15.552 -0.1152  0.2487  0.4181
 1378W        W14792   5.799  17.484   1.575  0.1214  0.0179  0.0553
 1379W        W14793  14.742   0.271   4.306 -0.0255  0.1167 -0.0250
 1380W        W14794   5.153   7.131   3.367  0.0299  0.0912 -0.1062
 1381W        W14795  11.389   2.786  16.509  0.2014 -0.3350  0.1721
 1382W        W14796   4.050   7.480   0.477 -0.1574 -0.0476  0.0385
 1383W        W14797   0.719   6.657  13.431  0.2608 -0.0492 -0.1491
 1384W        W14798  16.510   5.323   0.080  0.1945  0.2607  0.1773
 1385W        W14799   9.463   3.120  10.612  0.1575  0.2171  0.2581
 1386W        W14800  17.698   7.346   5.048  0.2823  0.0016  0.2355
 1387W        W14801   2.920  12.903  14.119 -0.4973  0.1455 -0.0769
 1388W        W14802   6.191   0.618  11.600 -0.0287  0.2169 -0.2372
 1389W        W14803  10.242   5.801   1.361 -0.2579  0.0506 -0.1107
 1390W        W14804   0.164  12.574   3.100  0.0259 -0.2261  0.1243
 1391W        W14805  10.787  11.989  14.660  0.0790 -0.0455 -0.1264
 1392W        W14806  14.930   2.395   9.830 -0.1416  0.2260  0.0964
 1393W        W14807  12.483  17.607  11.461 -0.0453  0.6671  0.2111
 1394W        W14808   4.106   1.838  15.167  0.1326 -0.3115 -0.5295
 1395W        W14809  12.717  15.888  15.223 -0.4804 -0.2377 -0.1850
 1396W        W14810  10.312   2.272   0.855 -0.3604 -0.3973  0.1092
 1397W        W14811   8.332  11.421  15.025 -0.2657  0.0649  0.2403
 1398W        W14812   8.504   5.021   3.377  0.0626  0.3055  0.2520
 1399W        W14813   4.292  13.312  16.282  0.2778  0.3269 -0.0785
 1400W        W14814   8.828  17.437  11.391 -0.2000  0.0154  0.1519
 1401W        W14815  16.145   2.021  11.157  0.0412  0.0798 -0.1752
 1402W        W14816   8.089  13.500   5.436  0.1204  0.1588  0.3312
 1403W        W14817  11.630  13.732   4.729 -0.2674  0.2025  0.0101
 1404W        W14818   9.508  11.080   3.127 -0.1165 -0.0217 -0.1534
 1405W        W14819   0.182  17.964  15.792 -0.0452  0.2790  0.3242
 1406W        W14820   8.181   6.553   2.880 -0.1793  0.0727 -0.5167
 1407W        W14821   2.479   0.108   4.998 -0.5316 -0.1806  0.1655
 1408W        W14822   6.127  14.172  11.185 -0.0668 -0.0227  0.3224
 1409W        W14823  13.379  17.257  14.560  0.1057  0.2383 -0.2437
 1410W        W14824  13.891   9.968  14.493 -0.2605  0.0371  0.2946
 1411W        W14825  12.957   1.284   1.989  0.0221  0.3450 -0.0322
 1412W        W14826  11.307   2.375   4.157  0.2723 -0.5160  0.2592
 1413W        W14827   8.322  10.355   1.602  0.2053  0.2465 -0.0579
 1414W        W14828  16.686  14.077   2.106 -0.0244  0.0584  0.3273
 1415W        W14829   2.332  12.860  15.495 -0.3204 -0.0668  0.0324
 1416W        W14830   9.836  10.797   0.453  0.1823  0.0545  0.1100
 1417W        W14831  12.824  12.000   4.261 -0.0875 -0.0595  0.0941
 1418W        W14832  14.371  15.519  16.436 -0.0546  0.3041  0.2542
 1419W        W14833   4.331   4.052  16.040  0.0070  0.1424  0.2028
 1420W        W14834  13.240  12.167  12.831  0.0923 -0.0797 -0.1806
 1421W        W14835   0.912   6.706  14.896  0.0357 -0.0551 -0.0544
 1422W        W14836  16.609  18.146   4.168 -0.1256 -0.3957  0.2496
 1423W        W14837   7.945   6.716   1.082 -0.1968  0.0077 -0.0838
 1424W        W14838   7.009  16.506   0.472 -0.1620 -0.0193  0.0888
 1425W        W14839  12.481  12.244  16.500  0.1126 -0.3965 -0.0647
 1426W        W14840  14.710  15.974   4.078  0.3417  0.3083 -0.3456
 1427W        W14841   8.885  10.433   2.859  0.1417  0.0134 -0.1253
 1428W        W14842  16.478  16.091  11.457 -0.2503  0.0534 -0.0103
 1429W        W14843  16.005  16.602  12.352  0.1816 -0.0976  0.0381
 1430W        W14844   1.159   3.494  15.663 -0.0321  0.2081  0.0131
 1431W        W14845   8.196  11.792   1.557 -0.0953  0.2042 -0.1262
 1432W        W14846   3.947   7.727   2.828  0.3137 -0.1098  0.3651
 1433W        W14847  14.953   3.365   0.858  0.0843 -0.1285 -0.1946
 1434W        W14848  14.415   3.492  11.005  0.2779  0.1347  0.1240
 1435W        W14849   9.716  13.114  14.025  0.0363  0.1153  0.1550
 1436W        W14850   0.727   0.693   2.006  0.2021 -0.0087 -0.4804
 1437W        W14851   7.052  14.252   2.514  0.1662 -0.4013  0.3719
 1438W        W14852  13.815  17.544   2.307 -0.1224  0.2847  0.2250
 1439W        W14853  13.622   1.482  10.193  0.1076  0.0595  0.0971
 1440W        W14854   5.681   2.689   0.741  0.2545 -0.1186  0.2165
 1441W        W14855   4.999  18.037   4.634 -0.0659 -0.0705  0.1853
 1442W        W14856   3.809  12.747  12.057 -0.1010 -0.1021  0.1325
 1443W        W14857   3.439   8.208   4.448  0.0463  0.1494 -0.3350
 1444W        W14858  13.780   4.672   0.200 -0.1976  0.2807 -0.3021
 1445W        W14859  14.795   9.587   1.058 -0.2293 -0.0382 -0.2751
 1446W        W14860   3.244   3.134   3.693  0.1759  0.0331  0.2563
 1447W        W14861   6.824   8.992  16.183 -0.0635  0.0740 -0.0557
 1448W        W14862  16.445   9.613  15.607  0.4574  0.0157 -0.3010
 1449W        W14863  15.260  17.217  12.427  0.2714 -0.1422 -0.1212
 1450W        W14864  17.852   4.352  14.728 -0.1837 -0.1512 -0.0333
 1451W        W14865   3.569  10.168  14.567  0.2156 -0.3062  0.2128
 1452W        W14866  13.140  17.114  10.109 -0.0362 -0.2128 -0.2848
 1453W        W14867  16.793   0.187   5.996 -0.0765  0.0852  0.0237
 1454W        W14868  11.365   3.709  12.428 -0.1019  0.1346 -0.1423
 1455W        W14869  14.894   3.480  12.923 -0.5340 -0.1162 -0.0269
 1456W        W14870   9.276   2.335   0.570 -0.1075 -0.0335 -0.0483
 1457W        W14871   3.406  12.128  16.474 -0.2047 -0.0559  0.3448
 1458W        W14872   3.154   5.857   1.088 -0.0595 -0.2703  0.1712
 1459W        W14873   7.369  11.751   1.884 -0.0438 -0.0486 -0.1782
 1460W        W14874  14.323  14.284   4.016 -0.0430 -0.2189 -0.0344
 1461W        W14875   2.775   4.920   1.126 -0.0073 -0.1028  0.0331
 1462W        W14876   4.913  11.948  13.983 -0.1991  0.0517  0.1952
 1463W        W14877   2.592  16.841  14.954  0.0714  0.1778  0.2053
 1464W        W14878   2.301   5.101  15.209  0.1037 -0.0589  0.0375
 1465W        W14879   5.389   6.790  10.158 -0.2996  0.1522  0.2394
 1466W        W14880  16.793   7.543   2.623  0.0083 -0.1614  0.1035
 1467W        W14881   6.992   8.168   5.200 -0.3612 -0.1723 -0.1520
 1468W        W14882  16.106   7.913   6.354 -0.0302  0.0382  0.1816
 1469W        W14883   9.014   6.598   3.393 -0.0550  0.2936  0.3377
 1470W        W14884   6.121   8.029   0.648 -0.0224  0.1332 -0.0621
 1471W        W14885   3.013   1.385   2.307 -0.0349  0.0053 -0.1712
 1472W        W14886  14.389  10.002  11.637 -0.1441  0.0059  0.0810
 1473W        W14887  12.391  17.368   0.735 -0.1059 -0.2053  0.1548
 1474W        W14888   4.457   4.670  11.685  0.0625 -0.2258  0.2109
 1475W        W14889  16.086   2.596   0.019 -0.1658  0.1978 -0.1154
 1476W        W14890   5.156  10.816   5.421 -0.0084 -0.5729  0.0305
 1477W        W14891  12.129   5.726   5.537 -0.3375 -0.0506 -0.0813
 1478W        W14892   0.817   1.401  12.445 -0.0762 -0.1217  0.3654
 1479W        W14893   2.262   5.726  13.266 -0.0799 -0.5976 -0.1241
 1480W        W14894   5.869  18.172  13.338  0.0192  0.2048 -0.0438
 1481W        W14895   9.995   0.832  14.439 -0.0243 -0.3754 -0.1798
 1482W        W14896   5.643  15.207  11.539 -0.2407  0.1082 -0.2673
 1483W        W14897  12.552   1.984   3.628  0.2626  0.3741 -0.0772
 1484W        W14898  12.462  13.771   1.164  0.0646  0.3508 -0.3479
 1485W        W14899   9.102  12.842  13.070  0.1413 -0.1731 -0.0082
 1486W        W14900   8.543   1.497   3.051  0.0219 -0.3227  0.1039
 1487W        W14901   9.315   1.747  14.355  0.0142 -0.0808 -0.0960
 1488W        W14902  15.385   6.716  11.609  0.1809 -0.0667 -0.0725
 1489W        W14903  12.821   6.379  15.364 -0.2439 -0.3545 -0.0438
 1490W        W14904   3.354   8.227  15.965 -0.2195 -0.1566 -0.1014
 1491W        W14905  13.330   9.322  15.085 -0.2470 -0.1336  0.0065
 1492W        W14906   9.762  16.574   4.123  0.0330 -0.0817 -0.2755
 1493W        W14907  13.443   8.936  10.657  0.2324  0.1251  0.0765
 1494W        W14908  10.183  10.725  12.083  0.2489  0.1204  0.1152
 1495W        W14909   4.820  13.072   1.487 -0.1326  0.1769 -0.0333
 1496W        W14910   3.492  17.111  13.400  0.2122  0.3232  0.0677
 1497W        W14911  18.101  17.621   2.070 -0.0049 -0.1112 -0.1066
 1498W        W14912   0.365   4.719   0.445 -0.3387  0.0682 -0.2487
 1499W        W14913   4.938   3.996   4.414  0.3497  0.1941 -0.1314
 1500W        W14914  13.610   8.275   2.597  0.1371  0.1166 -0.0894
 1501W        W14915   4.947  16.905  13.330  0.3371 -0.1165 -0.0264
 1502W        W14916   1.788  11.997   0.308  0.0294  0.0200 -0.1295
 1503W        W14917  10.794  15.719   3.095  0.1146 -0.3711 -0.1888
 1504W        W14918  13.221  13.781  15.210  0.2031  0.1373  0.1322
 1505W        W14919  14.345   9.993  12.692  0.2169 -0.1990 -0.2882
 1506W        W14920   8.509  16.722   5.519  0.0120 -0.0723  0.1515
 1507W        W14921   5.520  14.682  11.429  0.2516 -0.0798  0.2995
 1508W        W14922   0.116   9.336   1.136 -0.1280 -0.1384 -0.1277
 1509W        W14923  13.446  13.427  13.563  0.1101  0.0562  0.2882
 1510W        W14924  11.220  16.517   5.118  0.2824 -0.1342 -0.1148
 1511W        W14925   5.832   7.339  11.934  0.1840  0.0547 -0.1081
 1512W        W14926  10.698  14.355   5.474 -0.4129  0.0399 -0.1718
 1513W        W14927  11.211  12.085  11.316  0.1026  0.1684  0.0936
 1514W        W14928   2.435   7.299   0.853  0.1521  0.0017  0.2615
 1515W        W14929   1.203   8.785  10.855  0.0060  0.1702 -0.2732
 1516W        W14930  14.882   2.258   3.474 -0.3714  0.1027  0.0460
 1517W        W14931   6.082  10.457   5.911  0.1257  0.0121  0.1342
 1518W        W14932  11.900   0.473  10.361 -0.1309  0.1044  0.1691
 1519W        W14933  14.425   6.419   5.028  0.1239 -0.1533  0.1843
 1520W        W14934   3.635  13.915  11.212  0.0338 -0.2790 -0.0213
 1521W        W14935  11.259   1.963   3.818  0.0328 -0.0153 -0.0682
 1522W        W14936  17.641  16.364   3.684  0.1314 -0.0197 -0.2376
 1523W        W14937   3.850  13.808   1.247  0.0982  0.1571  0.0280
 1524W        W14938   6.530  13.349  10.909 -0.2763  0.0623  0.0350
 1525W        W14939   5.160   0.514   3.630  0.1760 -0.0682 -0.0439
 1526W        W14940  13.954  15.058  15.012  0.0242  0.0300  0.0225
 1527W        W14941  11.754   8.499  12.183 -0.2044  0.0772 -0.0048
 1528W        W14942   4.290   2.758  14.954 -0.1450  0.5503 -0.2226
 1529W        W14943  13.343   6.504  15.294  0.1528 -0.3162  0.0130
 1530W        W14944  14.135   0.547  10.280 -0.0622 -0.0957 -0.1086
 1531W        W14945   9.939  13.332  10.649 -0.1724  0.2318 -0.0899
 1532W        W14946  10.588  14.368   2.735 -0.0107  0.1823  0.3827
 1533W        W14947   5.647  13.788   2.795 -0.1780  0.3550 -0.1383
 1534W        W14948   1.969   7.184  12.937 -0.1170  0.3093 -0.4620
 1535W        W14949  15.935   0.868  10.403  0.0812  0.0828 -0.4785
 1536W        W14950  10.925  14.201  10.335 -0.0787  0.0063 -0.0893
 1537W        W14951  16.163  11.204  14.654 -0.0529 -0.0385  0.3190
 1538W        W14952   1.468  12.992  12.235 -0.1562 -0.1365  0.0282
 1539W        W14953   2.365  12.695   4.379  0.0122 -0.3666  0.3049
 1540W        W14954   5.518   1.042  14.554  0.1015  0.2602 -0.0092
 1541W        W14955   0.328  13.432   3.571 -0.2798  0.0989  0.2523
 1542W        W14956   8.935  18.040  12.073 -0.1163  0.0065 -0.3371
 1543W        W14957  11.801   2.595  14.341  0.0698  0.2275  0.1582
 1544W        W14958  11.018  15.780   0.191  0.1410 -0.1206 -0.0238
 1545W        W14959  10.916   8.763  11.431 -0.2089 -0.0862 -0.1089
 1546W        W14960  11.362   8.998  13.718 -0.0104  0.2609 -0.0187
 1547W        W14961  17.434  15.338   1.162 -0.0339  0.1013  0.0759
 1548W        W14962   0.404  14.308   6.614 -0.2702  0.2443  0.3366
 1549W        W14963  11.295   1.426   4.063 -0.0959 -0.1063 -0.1187
 1550W        W14964   6.743   2.505  14.765  0.2894  0.2074 -0.1562
 1551W        W14965  10.154  13.229   6.342 -0.0652  0.1012 -0.1434
 1552W        W14966   3.353   8.781  13.503  0.0981  0.2987 -0.3343
 1553W        W14967  15.677   2.150   2.843 -0.0698  0.0946  0.0678
 1554W        W14968  14.743  15.439  11.682  0.1017 -0.0427 -0.0171
 1555W        W14969  13.916  16.861  16.486 -0.1191  0.0787 -0.0908
 1556W        W14970   3.233   0.788  11.189  0.1022 -0.1507 -0.0085
 1557W        W14971   7.926   0.301  14.647  0.0517 -0.2207  0.0838
 1558W        W14972  11.417   6.994  11.271  0.0652 -0.0432  0.1366
 1559W        W14973   7.043  11.398   3.717 -0.0538  0.0365  0.2003
 1560W        W14974   6.362  18.222  13.444 -0.0670  0.0010 -0.2092
 1561W        W14975  11.483   5.466  11.145  0.1047  0.0883 -0.1332
 1562W        W14976  14.168   1.186  13.966 -0.0612 -0.1786 -0.0250
 1563W        W14977   4.839  13.880   3.310 -0.0543 -0.1741 -0.1209
 1564W        W14978  10.387   9.112   4.131  0.0194  0.1637 -0.0650
 1565W        W14979   8.832   8.688   5.634 -0.3125  0.1906  0.3481
 1566W        W14980  14.139   6.578   1.738  0.2184  0.0344  0.5037
 1567W        W14981  13.185   0.344  16.304  0.0202  0.1604 -0.0008
 1568W        W14982  18.169   0.502   4.100  0.1478 -0.4458  0.1873
 1569W        W14983   6.646  13.377   5.890  0.0578 -0.1667  0.0982
 1570W        W14984   7.630  11.936  16.009 -0.1314  0.3496  0.0800
 1571W        W14985  12.832  16.228  10.874 -0.0324  0.0203  0.0233
 1572W        W14986   9.083   4.467   3.791 -0.0959 -0.1185 -0.0505
 1573W        W14987  17.845  15.044  11.922 -0.0933 -0.2076 -0.0397
 1574W        W14988   3.154  11.288  10.064 -0.1185 -0.0175 -0.0832
 1575W        W14989   5.162   6.455   1.803 -0.2298 -0.1726 -0.1352
 1576W        W14990   0.997   2.450  11.887  0.0393 -0.0508  0.1011
 1577W        W14991   9.888   8.797   0.748  0.3080  0.1806  0.0737
 1578W        W14992   2.766   5.578  13.472  0.0953 -0.4664 -0.4369
 1579W        W14993   9.399   0.433   3.076 -0.1204  0.1789  0.3994
 1580W        W14994  17.088  11.716  14.769 -0.2649  0.1439 -0.2877
 1581W        W14995  10.281  10.489   1.119  0.0836  0.0972  0.0517
 1582W        W14996   7.625  14.607  15.698 -0.1679  0.3790  0.2648
 1583W        W14997  15.724   2.988  12.671  0.2004 -0.1251  0.2816
 1584W        W14998   6.787  18.026  14.536  0.0307  0.0686 -0.2974
 1585W        W14999   5.451   2.786   1.844  0.0525  0.2409  0.0094
 1586W        W15000   0.211  14.725   1.320 -0.3423  0.0042  0.4147
 1587W        W15001   2.783   0.536  12.185 -0.3517 -0.0228  0.3089
 1588W        W15002  10.762   5.504  16.007 -0.1070 -0.2435  0.1930
 1589W        W15003  14.449   6.648  10.358  0.0959  0.0149  0.2476
 1590W        W15004   7.041   3.957  13.841 -0.1880 -0.2621  0.1472
 1591W        W15005  12.127  10.474   2.323  0.3442  0.0752 -0.1265
 1592W        W15006   4.827  12.945   5.693  0.2268 -0.1997 -0.2866
 1593W        W15007   0.011   1.827   2.661 -0.1054  0.3990 -0.3142
 1594W        W15008   2.763  15.155  11.278 -0.2337  0.1558 -0.1878
 1595W        W15009   5.530  16.384   4.272  0.2033 -0.2091 -0.1683
 1596W        W15010   8.303   8.240  11.499 -0.1267 -0.2048  0.0466
 1597W        W15011  16.670  10.338  14.497  0.2673 -0.1474 -0.0535
 1598W        W15012  11.756   2.678  15.189  0.0836  0.0863 -0.0968
 1599W        W15013   5.250  10.088   0.340 -0.1163 -0.0939 -0.0647
 1600W        W15014   9.586  10.543   6.176  0.1695 -0.3037  0.0837
 1601W        W15015   4.962   3.759  15.396 -0.2763  0.1091 -0.2095
 1602W        W15016   1.861  12.469  13.695  0.0427  0.0185 -0.1067
 1603W        W15017  12.112  10.756  14.462 -0.0417  0.0530 -0.4064
 1604W        W15018   6.733  16.677  13.466  0.2838  0.0353  0.0138
 1605W        W15019  11.646   3.289  12.458 -0.0054 -0.3232 -0.1865
 1606W        W15020   4.264   0.421  13.298 -0.0375  0.1052 -0.3699
 1607W        W15021   9.836  11.994  16.314 -0.1149 -0.2483 -0.0108
 1608W        W15022  15.991  10.596  13.216 -0.2338  0.1491 -0.1331
 1609W        W15023   0.204   7.544  14.843  0.0846 -0.0644  0.1531
 1610W        W15024   8.150  11.124  12.117 -0.2595 -0.1137  0.1543
 1611W        W15025  12.109   8.452  15.555  0.0581 -0.0040 -0.3525
 1612W        W15026  13.287  11.689  14.007  0.0029  0.2677  0.0827
 1613W        W15027  13.466   6.584   0.221 -0.2244  0.1725 -0.0763
 1614W        W15028   6.243  13.650  12.094  0.0062 -0.0864  0.1303
 1615W        W15029   9.173   9.530   0.569  0.0894 -0.0853 -0.1585
 1616W        W15030  11.703   4.782   2.520  0.1024  0.1739  0.0945
 1617W        W15031  11.345   4.379  13.761  0.1245 -0.0788  0.0371
 1618W        W15032   9.908  15.876  14.886  0.1448 -0.0863  0.2281
 1619W        W15033   6.316   2.228  11.033 -0.1559 -0.1010  0.0041
 1620W        W15034  13.685  16.959   5.015  0.1050  0.1811 -0.0307
 1621W        W15035  13.391  17.783   0.919 -0.1062 -0.0793  0.0679
 1622W        W15036  13.810   4.792  13.823 -0.0738  0.1454 -0.1269
 1623W        W15037  16.875   2.408   3.602  0.2310 -0.1144 -0.3284
 1624W        W15038   8.257   5.440   5.052  0.1761  0.1258 -0.1062
 1625W        W15039   2.238   9.187  14.334 -0.0241 -0.3156  0.1602
 1626W        W15040  11.231   5.912   0.282  0.1226 -0.1037  0.1789
 1627W        W15041   8.531   4.479   0.184 -0.0797 -0.1068 -0.0003
 1628W        W15042  12.701  13.563   4.485  0.1362  0.3508  0.0698
 1629W        W15043  13.896   5.849  14.721  0.2604 -0.0921  0.1263
 1630W        W15044   1.116   2.414   5.246  0.0288  0.2540  0.1338
 1631W        W15045   3.840   5.310   1.490  0.2190  0.1667 -0.2170
 1632W        W15046   7.132   3.576   1.104 -0.2318 -0.0644  0.3006
 1633W        W15047   4.877   5.019   2.938  0.0202  0.1104  0.0645
 1634W        W15048  15.243  11.450   1.941  0.3334 -0.3241 -0.4403
 1635W        W15049  13.009   3.888   3.634 -0.1899  0.0337 -0.0564
 1636W        W15050  17.102  16.409  10.737 -0.3124 -0.0807  0.1323
 1637W        W15051  15.796  15.423  14.924 -0.0583 -0.1093  0.0292
 1638W        W15052   0.852  12.165  13.518  0.3184  0.2049  0.0261
 1639W        W15053   4.616   0.618   3.301 -0.0797 -0.0285 -0.1502
 1640W        W15054   7.319  17.267   4.398 -0.0784 -0.1071  0.0013
 1641W        W15055  17.623   8.512   0.559  0.0914  0.0284 -0.0690
 1642W        W15056   8.200  13.347  13.628 -0.0381 -0.0449 -0.2053
 1643W        W15057   3.446  13.941   3.550  0.0162  0.2316  0.0316
 1644W        W15058  13.852  11.039  14.766  0.1667  0.3275 -0.0430
 1645W        W15059  16.325  13.043  14.047  0.0299  0.1754  0.2425
 1646W        W15060  12.290   6.511  15.583 -0.3533  0.2961 -0.1279
 1647W        W15061   8.441  16.791  10.251 -0.0108  0.2423  0.1981
 1648W        W15062   6.120   7.144  11.532  0.3440 -0.4260 -0.0922
 1649W        W15063   3.972  10.448  14.661 -0.1737  0.1982  0.0356
 1650W        W15064   9.334   4.160   2.795  0.0273 -0.2037 -0.0441
 1651W        W15065   8.990  16.500   5.256 -0.0207 -0.2288 -0.0542
 1652W        W15066  13.292   0.373  15.414 -0.1526 -0.0450  0.1413
 1653W        W15067   7.021   1.188  12.928 -0.1155  0.1568 -0.0649
 1654W        W15068  10.267   0.872   3.248 -0.1800 -0.0512 -0.2474
 1655W        W15069  15.310  10.464  12.233  0.1947 -0.0273 -0.2840
 1656W        W15070   3.495  16.080  13.443  0.2161  0.0028  0.1798
 1657W        W15071   1.221  13.111   5.238  0.0924 -0.1168 -0.0332
 1658W        W15072  10.088  12.669   4.507 -0.0503 -0.0419  0.1697
 1659W        W15073   0.930   3.051   0.533 -0.2074 -0.1882 -0.0633
 1660W        W15074  10.568  10.668  11.305 -0.1424 -0.0561 -0.0628
 1661W        W15075   4.854   5.876   0.922 -0.0616 -0.0342  0.0046
 1662W        W15076  16.882   0.364   2.842  0.1156 -0.0841 -0.2073
 1663W        W15077  11.350  14.476   3.616 -0.0467  0.0803  0.0927
 1664W        W15078  13.327  14.791   2.571  0.0162  0.1303 -0.0951
 1665W        W15079   2.305   6.297  13.220 -0.0773  0.1950 -0.0419
 1666W        W15080  13.539   7.094   5.835  0.1178 -0.0135 -0.2197
 1667W        W15081  12.640   9.518  13.990 -0.1872 -0.0619 -0.1852
 1668W        W15082  13.191   6.238   0.033  0.3370 -0.0168 -0.2113
 1669W        W15083  10.315   3.094  13.099 -0.0223  0.2925 -0.0147
 1670W        W15084  15.595  16.029  13.107 -0.2852 -0.1351 -0.2533
 1671W        W15085   1.726   8.844   1.771  0.1496 -0.2347 -0.0919
 1672W        W15086   7.924   0.506   1.777 -0.2808 -0.0142 -0.1673
 1673W        W15087   3.489   5.574   1.292 -0.1216 -0.1073 -0.0320
 1674W        W15088  10.857   5.462  13.082 -0.1985 -0.0191 -0.0063
 1675W        W15089  14.349   9.621  14.911 -0.3779  0.1044  0.2987
 1676W        W15090   0.614   0.738   1.543  0.0035  0.0379 -0.0105
 1677W        W15091  11.646   6.529  15.329  0.1006 -0.3947 -0.0584
 1678W        W15092   2.761   5.353  12.987 -0.1249  0.2654 -0.1373
 1679W        W15093   8.945   4.416   3.059  0.0386 -0.5130  0.2183
 1680W        W15094  10.495   2.792  12.317  0.1983  0.1377 -0.1319
 1681W        W15095  13.240  18.021   4.185  0.1216 -0.1617 -0.2119
 1682W        W15096  13.759  15.773  13.374 -0.0749  0.0437  0.0725
 1683W        W15097  17.067   6.493  13.554 -0.1231  0.0750  0.2512
 1684W        W15098  11.715   5.700   3.024  0.4854 -0.0535 -0.0036
 1685W        W15099  15.446  10.472   2.801  0.1648 -0.1197  0.3340
 1686W        W15100   1.070   6.687  15.811  0.0963  0.2156  0.2599
 1687W        W15101   8.778  11.490   0.536  0.1030 -0.0239  0.0994
 1688W        W15102   9.484  12.943   1.083 -0.1178  0.0959 -0.1865
 1689W        W15103  17.081  17.778  16.061  0.1081  0.1535  0.1844
 1690W        W15104  11.858   7.465   5.491 -0.1149 -0.0716  0.4487
 1691W        W15105  15.691  10.170  12.258  0.0503  0.0965  0.3592
 1692W        W15106  11.798   9.046  13.086 -0.1506  0.0763 -0.2971
 1693W        W15107  14.030  12.324   2.369 -0.1102  0.0652  0.0775
 1694W        W15108   4.895   1.356  13.811  0.2891  0.1910 -0.2051
 1695W        W15109   1.028  17.844  14.994 -0.0878  0.4998 -0.2205
 1696W        W15110   3.283  12.059   5.477 -0.0717 -0.2625 -0.2404
 1697W        W15111   7.147   1.205  11.942  0.1353  0.2051  0.1519
 1698W        W15112   0.707   9.326   6.238 -0.0305  0.0637  0.3462
 1699W        W15113   2.313   5.757  15.235 -0.0365  0.2607 -0.2418
 1700W        W15114  12.139   9.566  15.742  0.2392  0.1222  0.0102
 1701W        W15115   9.012   4.987  16.226 -0.0475  0.1922 -0.0592
 1702W        W15116   0.942  15.525  14.832 -0.3873  0.1138 -0.0032
 1703W        W15117   6.413   3.344  11.269  0.1253  0.1647  0.1474
 1704W        W15118  16.512   8.306   3.500 -0.2579  0.1144  0.0847
 1705W        W15119   5.721   2.347  15.523  0.1461 -0.1672 -0.1449
 1706W        W15120   5.980   6.404  13.764 -0.0668  0.0220 -0.3065
 1707W        W15121  13.134  17.539  12.072 -0.2862  0.0343  0.0395
 1708W        W15122   6.501  15.630   3.241 -0.1543  0.0827  0.2846
 1709W        W15123  12.556   8.177  13.300 -0.2132 -0.1925 -0.1332
 1710W        W15124   4.892  11.408   0.467  0.0331 -0.0338  0.0354
 1711W        W15125  12.130   4.152   1.602  0.2632  0.2350  0.2857
 1712W        W15126   9.719   0.567  10.289 -0.1539 -0.1215  0.1286
 1713W        W15127   9.842   5.396   3.062  0.2751  0.0624 -0.2231
 1714W        W15128  14.719  13.036   1.476  0.3143  0.0251  0.0884
 1715W        W15129  11.343   8.569   4.133 -0.0230 -0.0016 -0.0077
 1716W        W15130  17.054  13.693  11.862 -0.2053  0.1357 -0.1975
 1717W        W15131  14.837   3.976  14.262 -0.0034  0.0996 -0.2732
 1718W        W15132  18.091  12.533  10.559  0.0459  0.0456  0.0881
 1719W        W15133  17.824  14.368   5.789 -0.1520  0.1444 -0.0672
 1720W        W15134   0.362   3.644   4.206 -0.0394  0.0665  0.2351
 1721W        W15135  13.822   0.774   2.866  0.0046 -0.4632  0.1176
 1722W        W15136   6.021  18.175  10.773 -0.0599  0.1126  0.0466
 1723W        W15137   7.536  18.160   5.369  0.1754  0.0470  0.5368
 1724W        W15138   0.636  13.446  12.100 -0.0290  0.2111 -0.0824
 1725W        W15139   3.046  13.653   5.588  0.1021  0.1317  0.0725
 1726W        W15140   5.733   3.277   2.319  0.0481  0.0023  0.0291
 1727W        W15141   6.401   0.305  13.817  0.1937 -0.1062 -0.0292
 1728W        W15142   4.891  12.150  15.465  0.0237 -0.2329 -0.2043
 1729W        W15143   7.591  16.910  14.539  0.0596 -0.1950  0.1986
 1730W        W15144  14.274   3.868  12.236  0.2107 -0.1359  0.2063
 1731W        W15145   7.220  10.235  16.312  0.1872 -0.1510  0.2443
 1732W        W15146   9.326   8.689   4.785 -0.1237  0.2001  0.0203
 1733W        W15147  15.481   9.928   2.092  0.1193  0.3405 -0.0189
 1734W        W15148  10.882   5.305  11.261 -0.1201 -0.0813 -0.0103
 1735W        W15149   3.814  17.758   5.029 -0.2929  0.1911  0.0317
 1736W        W15150  14.421  16.288  11.318  0.0989 -0.2312 -0.1180
 1737W        W15151   4.742  13.116  16.378 -0.1545 -0.1614 -0.1039
 1738W        W15152  16.676   5.301  12.101 -0.2110 -0.1127 -0.2927
 1739W        W15153   7.232  16.972  13.834  0.0280  0.1820  0.1928
 1740W        W15154   1.185   1.246   3.233  0.3882 -0.3448  0.2160
 1741W        W15155  16.013  14.020  12.621  0.0654 -0.1231 -0.0229
 1742W        W15156  11.052  12.252  10.868  0.0240 -0.1873 -0.2134
 1743W        W15157  14.417   4.611   4.386  0.1482 -0.0305  0.0732
 1744W        W15158  14.759  17.832  13.451  0.4967 -0.0123  0.0996
 1745W        W15159   3.841  12.380  15.367  0.1233  0.3288  0.2443
 1746W        W15160   6.760  16.798  10.858 -0.2086  0.0974  0.2125
 1747W        W15161   0.871   4.728   4.924 -0.1895  0.0068  0.0658
 1748W        W15162  10.172  17.779  10.906 -0.0141 -0.2843  0.0259
 1749W        W15163   7.230  10.643  12.617  0.1453  0.3075 -0.1298
 1750W        W15164   3.160   5.377  14.402 -0.3306 -0.3149  0.1085
 1751W        W15165  14.169  10.748   3.250  0.0206 -0.0645 -0.0897
 1752W        W15166   1.969  12.046  15.674  0.3699 -0.1632 -0.0660
 1753W        W15167   7.938  16.382  10.925  0.0555 -0.2517 -0.1779
 1754W        W15168  18.209   6.869  12.330 -0.2539 -0.2629  0.1554
 1755W        W15169  12.426  10.622   5.129  0.1927 -0.2844  0.2025
 1756W        W15170   5.552   5.322  12.302  0.0964  0.1198  0.0193
 1757W        W15171   4.879  10.475   5.246  0.1866  0.0042  0.1640
 1758W        W15172   1.332   2.368   1.637 -0.1812  0.2044 -0.0303
 1759W        W15173   1.147  13.254   4.781  0.1229  0.3085  0.2054
 1760W        W15174   6.502   0.952   1.377  0.1987  0.1917  0.1514
 1761W        W15175   0.550   7.357   2.968 -0.2499  0.0449  0.2670
 1762W        W15176  16.343   6.821   4.801 -0.4182  0.1776  0.1954
 1763W        W15177   0.423  13.791   5.863 -0.0219 -0.1223 -0.1060
 1764W        W15178   6.068   0.622  12.430  0.0934  0.1054 -0.4078
 1765W        W15179   2.820   2.959  11.682  0.0953  0.0691 -0.2206
 1766W        W15180   6.056   4.475   2.785 -0.2071 -0.2799  0.0490
 1767W        W15181  16.341  14.375   1.204 -0.2066 -0.0998  0.0914
 1768W        W15182   8.306   7.179   2.583 -0.1482  0.0603 -0.0761
 1769W        W15183  12.691   9.483   1.354 -0.0573  0.1642  0.0858
 1770W        W15184  12.958   4.660  11.166  0.1295 -0.2197  0.0820
 1771W        W15185   9.968   0.943  11.187  0.2695  0.0761  0.2374
 1772W        W15186  14.453   6.065   4.092  0.0959 -0.1841 -0.0782
 1773W        W15187   3.885   7.462  11.870  0.0519 -0.2632 -0.1044
 1774W        W15188  16.113   9.968   4.704  0.4049 -0.1873 -0.1202
 1775W        W15189  17.668   6.409  13.641  0.0375  0.3478  0.0093
 1776W        W15190  15.297   7.824  10.777  0.0504  0.0471 -0.3525
 1777W        W15191   1.443  15.720  16.434  0.1125 -0.1303  0.0544
 1778W        W15192  14.770   5.330  15.809  0.1412  0.3488  0.0283
 1779W        W15193   6.467  10.185  15.027  0.1155 -0.0240 -0.3077
 1780W        W15194  17.233   8.265  12.513  0.1161 -0.0164  0.0928
 1781W        W15195   2.705   5.658   6.724 -0.1405  0.3510 -0.1494
 1782W        W15196   8.648   6.355   2.823  0.0884 -0.0861  0.0819
 1783W        W15197   9.471  17.877   0.008 -0.0617 -0.1392 -0.0038
 1784W        W15198   2.438   3.739  13.363  0.2364  0.1999  0.2701
 1785W        W15199   9.940   2.446  12.718  0.1463  0.0767 -0.1069
 1786W        W15200  10.725   3.607   2.953 -0.2003 -0.1738  0.3378
 1787W        W15201   5.013  17.387  14.582  0.1191  0.0906 -0.1309
 1788W        W15202   7.875   5.922   0.353 -0.1289  0.1839 -0.2226
 1789W        W15203  14.631  17.412   1.644  0.0090 -0.1678  0.1132
 1790W        W15204  12.099  10.875   2.949  0.3023 -0.0569 -0.0131
 1791W        W15205   3.399  11.044   1.556  0.0561  0.2554 -0.0669
 1792W        W15206   1.451  16.717   3.416 -0.2093  0.1843  0.2110
 1793W        W15207   8.393   6.565  11.620 -0.0041 -0.1079 -0.3096
 1794W        W15208  14.636  16.775  15.180  0.1545  0.1185  0.4381
 1795W        W15209  10.329   4.035   1.723 -0.1066  0.0839 -0.0604
 1796W        W15210   8.697   3.989   4.938 -0.0568  0.0635  0.1462
 1797W        W15211  13.941   2.644   3.619  0.1599 -0.1110  0.0522
 1798W        W15212   5.342  12.867   2.769  0.2253 -0.2090  0.1209
 1799W        W15213  16.120  16.592   0.375  0.1205  0.2209  0.0235
 1800W        W15214  16.173   3.269  12.699 -0.3507 -0.3415  0.0072
 1801W        W15215   9.288  15.609   1.375  0.1457  0.0106 -0.2579
 1802W        W15216   4.020   0.743  12.880 -0.3897  0.2094  0.2361
 1803W        W15217   6.508  13.119  13.084  0.0438  0.0215  0.2052
 1804W        W15218  11.703   9.739   4.480 -0.0331 -0.2066 -0.2562
 1805W        W15219  10.495  15.614  10.876 -0.0024 -0.0643  0.0521
 1806W        W15220  17.521   6.183   2.801 -0.3389  0.2186 -0.1069
 1807W        W15221  17.540   3.400   3.885  0.3255  0.0028 -0.1768
 1808W        W15222   2.981   3.247  11.257  0.0467  0.1501 -0.1026
 1809W        W15223  17.098  11.006   6.111  0.1717  0.1625  0.1988
 1810W        W15224   8.863   5.294  15.421 -0.2672 -0.0964  0.0300
 1811W        W15225  14.738   2.882   5.702  0.1450  0.0208 -0.1484
 1812W        W15226   3.378  15.570   9.546  0.0694  0.2205  0.2744
 1813W        W15227  14.227   5.834  13.435 -0.0690 -0.2074 -0.0710
 1814W        W15228  16.509  18.071  14.877  0.0844 -0.0839  0.0344
 1815W        W15229  11.393  17.349   0.418 -0.1516 -0.0602  0.1727
 1816W        W15230  13.262  17.796  12.489  0.1075 -0.0066  0.1695
 1817W        W15231   9.922   0.228   1.368 -0.2108  0.2717 -0.1971
 1818W        W15232   7.198   6.602   3.910  0.0619  0.0301 -0.0815
 1819W        W15233  11.546   2.617  11.386 -0.2197 -0.0458 -0.0328
 1820W        W15234   8.523  15.842   0.365  0.4660 -0.0910  0.2034
 1821W        W15235  15.543   1.254  10.637  0.1372  0.1713 -0.1447
 1822W        W15236   6.633   8.798  12.566 -0.0572 -0.2201 -0.1935
 1823W        W15237   8.175  15.797  16.010 -0.1559 -0.0710 -0.1346
 1824W        W15238   2.766   0.660  14.636 -0.2571  0.0958  0.0541
 1825W        W15239  11.038  17.672  11.941 -0.0572  0.0011  0.2114
 1826W        W15240   7.034  10.606   3.492 -0.2950  0.3699  0.1930
 1827W        W15241  14.498   6.824  14.210 -0.1840 -0.0582  0.0373
 1828W        W15242   0.663   9.718   1.797 -0.2738  0.1010  0.3249
 1829W        W15243  13.832  11.937   4.166  0.0749 -0.3801 -0.3083
 1830W        W15244   7.746   9.001   3.760  0.0395 -0.2319 -0.0916
 1831W        W15245   7.307  15.064   0.371  0.0726  0.0589  0.0916
 1832W        W15246  15.921  10.514   0.236 -0.0089 -0.2731  0.1472
 1833W        W15247  13.738   9.585   6.933 -0.1851  0.2477 -0.0141
 1834W        W15248  11.917  11.294   5.484  0.0235 -0.1971  0.1196
 1835W        W15249   9.420  15.402  15.572 -0.0576 -0.1154  0.0569
 1836W        W15250  11.800   3.318  13.941  0.0015 -0.1823 -0.2637
 1837W        W15251  17.701  14.947  13.784  0.0203  0.1164 -0.2495
 1838W        W15252   0.106  10.803  14.345 -0.1784 -0.2432 -0.1121
 1839W        W15253   8.290  10.224  13.264 -0.0887  0.3648  0.0495
 1840W        W15254   7.567  13.365   2.610  0.1223  0.4081 -0.1436
 1841W        W15255   1.366   9.309  14.333  0.1116  0.0875  0.2439
 1842W        W15256   4.386   9.790   1.501 -0.1239 -0.0884  0.1765
 1843W        W15257   8.600   8.570   3.506 -0.1065 -0.0273 -0.5973
 1844W        W15258   3.244  13.135   3.293  0.1211 -0.1773  0.1369
 1845W        W15259   6.551  15.803   5.241  0.0370 -0.2115  0.2429
 1846W        W15260  14.238   6.528   0.681  0.1061 -0.1215 -0.4409
 1847W        W15261   6.157   0.323   2.080  0.0189  0.2073  0.2641
 1848W        W15262   1.869  17.481   3.787 -0.3044  0.1119 -0.0138
 1849W        W15263   3.027   8.179  11.532  0.1516 -0.0295  0.1918
 1850W        W15264   7.932   1.110   4.284  0.1585  0.2649 -0.3430
 1851W        W15265   8.384   0.911  12.037 -0.0592 -0.0013  0.0007
 1852W        W15266  16.130   0.500   5.270 -0.0049 -0.0486 -0.1480
 1853W        W15267   1.663   7.954  14.042  0.1441 -0.0316 -0.0091
 1854W        W15268  11.554   5.520   2.360  0.3094  0.1245 -0.2104
 1855W        W15269   4.702   6.086  15.518  0.1269 -0.1476  0.3684
 1856W        W15270   2.004  11.852   3.358 -0.0973  0.3278  0.1529
 1857W        W15271  10.988  12.058  12.698 -0.5399 -0.0209  0.1127
 1858W        W15272  15.780  13.569  11.596  0.1838  0.1257  0.2891
 1859W        W15273  10.076   3.068  15.803 -0.1892 -0.2197 -0.0095
 1860W        W15274  17.752  12.332   4.926  0.2224  0.2187  0.2533
 1861W        W15275   0.729  13.512   4.944  0.0205  0.2484  0.1329
 1862W        W15276  15.162   9.351  11.093  0.0221  0.2905 -0.0384
 1863W        W15277   0.917   1.534   0.867  0.2780 -0.0109  0.3384
 1864W        W15278  11.510   8.118  13.728 -0.1161 -0.1080 -0.0153
 1865W        W15279  10.949   7.622   1.913 -0.0861 -0.0603  0.0653
 1866W        W15280   8.802  11.267   2.764  0.0634 -0.1591 -0.1744
 1867W        W15281  12.026   3.288  15.142  0.2163 -0.0032 -0.0406
 1868W        W15282   8.856   4.731   4.603  0.0179 -0.1498  0.0735
 1869W        W15283   8.321   5.947  13.594  0.1138 -0.2684 -0.0061
 1870W        W15284   8.642  15.726   5.283 -0.0431 -0.0844 -0.2766
 1871W        W15285  11.294   4.618   1.229  0.1443 -0.0580 -0.1739
 1872W        W15286   3.672  17.610  12.456 -0.1352  0.0519  0.0745
 1873W        W15287   1.735   8.438  13.922  0.4164 -0.1727  0.0898
 1874W        W15288  12.147  14.588   3.335  0.0157 -0.3173  0.1310
 1875W        W15289  17.494  13.465  15.362  0.2762 -0.0679 -0.1104
 1876W        W15290  12.636  12.274   2.190  0.1216 -0.1040  0.0046
 1877W        W15291   3.800  10.598   5.511  0.0313 -0.0769  0.1092
 1878W        W15292  11.596  16.873   0.443  0.2462 -0.2730  0.1268
 1879W        W15293   6.322  12.079   4.047  0.0846 -0.2983 -0.1200
 1880W        W15294   5.980  14.187   2.650 -0.1275 -0.0291  0.0426
 1881W        W15295  18.033  10.908   3.972 -0.4649  0.1289 -0.3607
 1882W        W15296  13.173   2.990  11.621  0.3936  0.2334 -0.1854
 1883W        W15297   0.916   3.374   5.523 -0.1369  0.0302 -0.0844
 1884W        W15298   6.136   9.815   1.752  0.0236  0.2398  0.1285
 1885W        W15299  13.826  11.463   3.971 -0.2540  0.0519 -0.1087
 1886W        W15300   5.174  11.704  12.925  0.0213  0.0626 -0.0054
 1887W        W15301  11.876  15.529   3.954  0.0264  0.1536  0.0071
 1888W        W15302  12.416   9.619   2.815 -0.1772 -0.0316 -0.0515
 1889W        W15303   7.261  15.040  14.219  0.1142  0.0346  0.0369
 1890W        W15304   4.163  13.379  10.390 -0.0422 -0.3251 -0.0092
 1891W        W15305  11.107  16.153   3.674 -0.2044  0.3411 -0.3133
 1892W        W15306   8.879   7.180   3.941  0.0754  0.1778  0.2073
 1893W        W15307   8.679   0.516   5.838 -0.0182  0.1059 -0.0050
 1894W        W15308  15.162   1.628  12.775  0.0447 -0.0136  0.0029
 1895W        W15309   2.677   6.505   3.448  0.2442 -0.1299  0.0692
 1896W        W15310   3.088   7.808   4.571  0.0907  0.1386 -0.1922
 1897W        W15311  14.837   1.111  12.084  0.1006  0.2041  0.0035
 1898W        W15312   4.501  11.224  15.657 -0.1163  0.1217  0.0120
 1899W        W15313  16.892   5.941   4.628 -0.0559  0.0883 -0.1247
 1900W        W15314   0.375  11.960  12.694 -0.0024 -0.2813 -0.0424
 1901W        W15315  17.349  11.480  12.410  0.2140 -0.2226 -0.0142
 1902W        W15316  17.434   5.581  12.305  0.1175 -0.0902 -0.3202
 1903W        W15317  15.796   2.571  13.830 -0.0528 -0.1190  0.0236
 1904W        W15318  12.283   0.126   3.428 -0.0114  0.1256  0.0667
 1905W        W15319  16.600  16.871   3.325 -0.1344 -0.0305  0.0592
 1906W        W15320   8.241   7.146   1.075  0.1487 -0.1952  0.1163
 1907W        W15321  16.504   7.032  12.187 -0.4863 -0.1765  0.0875
 1908W        W15322  10.021   8.703   0.252  0.0944  0.0997 -0.4324
 1909W        W15323  10.525  17.787   1.714  0.1064  0.2841 -0.0389
 1910W        W15324  17.577   2.118   4.382  0.1719 -0.0758  0.0995
 1911W        W15325  12.112  14.296   1.619 -0.2402 -0.0692  0.1691
 1912W        W15326  18.077  16.200   2.646 -0.3078  0.3649  0.1187
 1913W        W15327   9.734   3.481  15.725  0.0200  0.1577 -0.1751
 1914W        W15328   9.123  10.957   5.463  0.0106  0.2500  0.1394
 1915W        W15329   2.713   5.101  11.351 -0.3184  0.0013 -0.1028
 1916W        W15330  12.854   2.266   4.452  0.0067 -0.0131 -0.0628
 1917W        W15331  17.082  17.504  12.734 -0.1245 -0.2362 -0.0891
 1918W        W15332   2.847   8.708   0.830  0.0015 -0.1065  0.1102
 1919W        W15333   0.640   8.467   3.732 -0.1808 -0.1274  0.0819
 1920W        W15334   1.338   1.384  12.588  0.3528  0.1134 -0.2513
 1921W        W15335  11.980  12.755   3.192 -0.1127 -0.2345  0.1452
 1922W        W15336   3.864  10.494  13.279  0.2018  0.1887 -0.1403
 1923W        W15337   7.258  14.509  13.109  0.0744  0.1439 -0.0082
 1924W        W15338   3.081  12.295  12.576  0.1344 -0.1064 -0.0265
 1925W        W15339   2.017  15.411   0.380 -0.1031 -0.3083 -0.2428
 1926W        W15340   6.930  18.092  13.166  0.4025 -0.1086 -0.1375
 1927W        W15341   4.810   8.003  12.991  0.0424 -0.0092  0.2802
 1928W        W15342  11.048   2.356   0.108 -0.1246  0.1748  0.0257
 1929W        W15343   8.484   9.385   6.211 -0.1498 -0.2262  0.1215
 1930W        W15344  16.621  17.339  15.492  0.1565  0.0521  0.0398
 1931W        W15345  10.312   8.051  15.688 -0.0123 -0.0887 -0.2775
 1932W        W15346   9.870   5.849   5.764 -0.0517 -0.2924 -0.1920
 1933W        W15347  11.648   8.344   1.506 -0.0217  0.2231 -0.0359
 1934W        W15348   4.026   0.016  11.223 -0.3519  0.1646  0.2905
 1935W        W15349   5.879   0.915   1.149 -0.0208  0.0970  0.1254
 1936W        W15350   2.432   5.476  11.517 -0.2501  0.0732  0.0924
 1937W        W15351   1.706  15.137  13.257  0.0142 -0.0760  0.0759
 1938W        W15352  14.848   5.529   0.892 -0.1596 -0.0315  0.3474
 1939W        W15353   1.787   5.754  10.374 -0.2000 -0.1268  0.0528
 1940W        W15354  11.401   3.748  13.026  0.0941  0.1958  0.1954
 1941W        W15355  10.971   1.634  15.824 -0.2711  0.0298 -0.2998
 1942W        W15356   4.006  13.255  12.055 -0.2024 -0.1268  0.1438
 1943W        W15357   1.051  11.835   4.860  0.1492  0.0721 -0.0264
 1944W        W15358   1.670  16.731   3.880  0.1437  0.0140  0.0962
 1945W        W15359  17.452   9.527   5.749 -0.1282 -0.0007 -0.1119
 1946W        W15360   9.635   4.429  11.824  0.2354  0.3674  0.0557
 1947W        W15361  13.680   2.673   0.987  0.1127  0.1549 -0.0652
 1948W        W15362   8.873   5.587  11.427 -0.0151 -0.2844  0.1169
 1949W        W15363   8.289   4.458  13.005  0.2253  0.1232  0.0178
 1950W        W15364  11.570   7.364  16.359  0.0312 -0.2871  0.3262
 1951W        W15365   8.648   8.122  11.847 -0.1054 -0.2432  0.1710
 1952W        W15366  10.059   9.714   1.891 -0.0026  0.1787  0.1399
 1953W        W15367   4.829  10.808   1.864 -0.1974  0.1709 -0.0923
 1954W        W15368  17.263   4.975   4.710  0.1377 -0.0133  0.0134
 1955W        W15369  12.698  16.358  15.055  0.1980 -0.0495 -0.1799
 1956W        W15370   6.148   2.074  13.617  0.0960  0.1105 -0.0444
 1957W        W15371   3.707  13.406   5.203  0.3129  0.0926  0.2010
 1958W        W15372  10.810   7.823  14.321 -0.0101  0.2071 -0.1590
 1959W        W15373   9.912  14.012   3.141  0.0462  0.2095  0.1147
 1960W        W15374  12.245  17.511  13.074 -0.0047 -0.1544 -0.0706
 1961W        W15375   9.249  14.888   3.278  0.0866  0.0141 -0.2683
 1962W        W15376  13.353   0.549   0.968 -0.0406 -0.1937  0.1568
 1963W        W15377   8.116  16.905   2.845  0.0632  0.2513  0.1762
 1964W        W15378   7.757   9.309  13.836 -0.0104  0.3569 -0.1704
 1965W        W15379  10.199  14.359   9.797 -0.0129 -0.1912  0.0310
 1966W        W15380   4.232   2.414   2.448 -0.2165 -0.2022  0.0597
 1967W        W15381   1.476  16.274  12.050 -0.2292 -0.0698 -0.1254
 1968W        W15382  15.542   8.080   1.541  0.2328  0.3437 -0.1098
 1969W        W15383  12.292  16.263  13.390  0.1353  0.1568 -0.0076
 1970W        W15384  12.698   2.929  11.765  0.0711  0.3293  0.4194
 1971W        W15385   9.738  14.937   5.271 -0.1768 -0.2426 -0.1510
 1972W        W15386   4.178  16.087  12.331 -0.2655 -0.0644 -0.0857
 1973W        W15387   1.523  10.194   5.638  0.2228 -0.1097 -0.1085
 1974W        W15388  16.641   6.577   1.721 -0.2130 -0.0270 -0.2800
 1975W        W15389   2.490   7.007   1.240 -0.1484 -0.0054 -0.2225
 1976W        W15390   5.122  12.438  11.446 -0.0382  0.2005 -0.0976
 1977W        W15391  15.036  18.056   5.169 -0.0736  0.2175  0.0650
 1978W        W15392  11.682  16.588   4.845  0.0540  0.2254 -0.0198
 1979W        W15393  10.373  13.246  11.365  0.2907  0.2017  0.1388
 1980W        W15394  15.438   1.303  14.944  0.2591 -0.1360  0.0729
 1981W        W15395   4.874  13.059  12.045  0.1810  0.0521  0.2988
 1982W        W15396   2.149  10.344  12.761 -0.1262  0.2311 -0.1274
 1983W        W15397   7.565   3.711  13.502  0.1997  0.0923 -0.0227
 1984W        W15398  11.924   1.932   9.755 -0.0146 -0.1285 -0.0885
 1985W        W15399   4.942   7.130   5.222  0.0402  0.1106  0.2077
 1986W        W15400  10.086   9.227   1.973  0.0116 -0.0427  0.1817
 1987W        W15401   8.457  16.676   9.370 -0.2044  0.0275  0.3107
 1988W        W15402   4.716  16.096   2.842  0.0556  0.3649 -0.0170
 1989W        W15403   5.897  16.227  12.946 -0.2569  0.3048  0.0788
 1990W        W15404  11.438  17.182  13.047 -0.2534 -0.0945 -0.0035
 1991W        W15405  15.389  15.355   4.375 -0.1091  0.2021 -0.0371
 1992W        W15406   8.305   3.132  10.046  0.2540  0.0873  0.1340
 1993W        W15407   0.807   9.110  10.679  0.0594 -0.1712 -0.4269
 1994W        W15408  15.510   2.795  12.146 -0.0178 -0.0908  0.1724
 1995W        W15409   6.254   2.721  12.966  0.0850 -0.2167 -0.0001
 1996W        W15410  15.241   0.602   5.560  0.0336  0.0835 -0.1435
 1997W        W15411  12.058   0.909   3.316 -0.0274  0.0418 -0.1006
 1998W        W15412  14.771   5.706  12.157 -0.0774  0.4181  0.1921
 1999W        W15413   1.933   3.948   4.756  0.0450  0.0151 -0.1200
 2000W        W15414   7.259  16.918   3.673  0.0888  0.0463 -0.2737
 2001W        W15415   5.851   7.278  15.646 -0.3198  0.2527 -0.1290
 2002W        W15416   2.900  11.323  11.189  0.2362  0.0552  0.1415
 2003W        W15417   7.392  15.008   5.261 -0.2447 -0.0534  0.0910
 2004W        W15418  13.714  11.977   1.894 -0.0651 -0.0083 -0.2304
 2005W        W15419  12.621  17.008  10.251  0.4174  0.2081  0.3252
 2006W        W15420  10.665   9.318   1.238  0.2417 -0.0224 -0.0789
 2007W        W15421   6.304  15.421  13.323  0.0140 -0.0608  0.0378
 2008W        W15422  12.010   4.296  11.108 -0.0969 -0.0091  0.1164
 2009W        W15423  18.006   8.106  12.858  0.0810  0.1456  0.0045
 2010W        W15424   6.993   9.186   0.777  0.0314 -0.3282  0.0077
 2011W        W15425  11.827  14.783  15.252 -0.0324 -0.0987  0.0171
 2012W        W15426   8.876  16.521   3.158 -0.3728  0.0722 -0.1041
 2013W        W15427   0.978  13.111  12.921 -0.1630  0.2759  0.2562
 2014W        W15428  13.901   9.195   3.856  0.2091 -0.0527  0.1196
 2015W        W15429  11.767  12.089   6.097  0.0711  0.2016 -0.2968
 2016W        W15430  13.792  18.168  15.018 -0.1621 -0.0392  0.0485
 2017W        W15431   1.383  15.861  13.780 -0.4415 -0.0484 -0.0393
 2018W        W15432   7.625   2.104   2.382 -0.1525  0.0614 -0.2034
 2019W        W15433  17.953  14.663   3.348 -0.1335 -0.1166  0.2565
 2020W        W15434  12.913   1.716   0.235  0.0339 -0.0895  0.0579
 2021W        W15435  17.902  13.185   4.265  0.0261  0.4841 -0.1569
 2022W        W15436  15.103  14.027  11.570 -0.0218  0.3341 -0.0695
 2023W        W15437  14.050   9.246   4.720 -0.0844 -0.1137 -0.3121
 2024W        W15438  10.412   7.876   6.191 -0.0959  0.1261  0.0893
 2025W        W15439  12.157   7.338  13.537  0.2606  0.0360  0.1533
 2026W        W15440  17.719   9.213  11.229 -0.3227  0.1745  0.4675
 2027W        W15441   9.986   8.005  13.232  0.1273 -0.3398  0.1917
 2028W        W15442   0.303  10.110  15.868 -0.1026  0.0641  0.0847
 2029W        W15443   4.702  17.429  12.629 -0.3329  0.1447 -0.1048
 2030W        W15444   7.516   2.685  10.480 -0.1555  0.1094  0.2547
 2031W        W15445  15.873   2.497  11.784 -0.1442 -0.0590  0.1414
 2032W        W15446   4.059  11.034   3.613 -0.0728 -0.4127  0.2357
 2033W        W15447  11.615  12.863  16.447  0.0053  0.1596 -0.1695
 2034W        W15448   5.377   5.422   5.478  0.1483  0.0097  0.2342
 2035W        W15449   6.959  11.156  16.258 -0.2400 -0.1993  0.1505
 2036W        W15450   9.249   3.272  10.132  0.0169  0.0513  0.0892
 2037W        W15451   5.379  15.503   3.222  0.2607 -0.1018  0.3281
 2038W        W15452   7.904   1.036  10.213 -0.0711 -0.3604 -0.1539
 2039W        W15453   7.212   3.019  13.982  0.2394 -0.0797  0.1770
 2040W        W15454   1.796  13.927  16.152 -0.0089 -0.0797 -0.0026
 2041W        W15455  15.793   6.397   1.701 -0.0470  0.0700 -0.2576
 2042W        W15456   0.795  13.490   3.923  0.0504 -0.0983  0.0681
 2043W        W15457   8.244   5.085  11.462 -0.1929 -0.3363 -0.0663
 2044W        W15458   0.689  10.712   1.025 -0.0131  0.3214 -0.1828
 2045W        W15459   5.266  12.317   0.190  0.0361 -0.0944 -0.2703
 2046W        W15460  14.394   7.807  11.386  0.0017  0.0203 -0.1544
 2047W        W15461   7.765   8.718   4.284 -0.1475  0.2180 -0.0577
 2048W        W15462  11.156  12.569  14.283 -0.0442  0.1047  0.1091
 2049W        W15463  15.468   5.938  12.933 -0.0649  0.1282  0.0819
 2050W        W15464   5.044  12.854   4.241  0.0662  0.0254  0.1224
 2051W        W15465   1.783   9.249  14.123  0.0220  0.1951  0.0941
 2052W        W15466  13.513  10.984  11.399 -0.1021 -0.2013 -0.1983
 2053W        W15467   8.467   4.755   3.778  0.2037 -0.2915  0.0344
 2054W        W15468   0.734  12.764  12.641 -0.1824 -0.1349  0.2882
 2055W        W15469  15.594   6.295   5.431 -0.0354  0.3329 -0.0186
 2056W        W15470  13.174   3.255   5.415  0.1933 -0.0606 -0.3559
 2057W        W15471   8.553  17.131  11.837 -0.2868 -0.1076 -0.0078
 2058W        W15472  10.761   0.078  14.062  0.0529 -0.1224 -0.3038
 2059W        W15473   3.494   6.314   3.455  0.0713  0.5193 -0.2827
 2060W        W15474   6.163  18.141   3.749 -0.0142 -0.3398  0.2907
 2061W        W15475  17.920   7.155  14.464 -0.3573 -0.3386  0.2324
 2062W        W15476  17.793   5.811   1.808 -0.2192  0.2826 -0.2078
 2063W        W15477   6.394  15.608  11.187 -0.0034 -0.1898  0.1717
 2064W        W15478  17.124   1.366  13.777  0.0038 -0.0359 -0.0686
 2065W        W15479   5.376   3.704  12.147  0.0892 -0.2765 -0.2234
 2066W        W15480  18.145   8.613  11.616  0.0651  0.0046  0.3096
 2067W        W15481   5.664   1.198   5.277  0.0093  0.1896 -0.0095
 2068W        W15482   0.206   2.726  15.098 -0.0134 -0.1989  0.0640
 2069W        W15483  10.714   6.895   1.096  0.0991  0.1502 -0.2858
 2070W        W15484  16.236  15.818   4.249  0.1290  0.2571  0.0816
 2071W        W15485   5.049   0.792   4.573 -0.5329 -0.0104 -0.0066
 2072W        W15486   1.787  16.663  11.892 -0.1833  0.3411 -0.2300
 2073W        W15487   2.753   1.929   0.616 -0.1053  0.1770  0.1950
 2074W        W15488  12.032  13.990   4.977  0.0429 -0.0749  0.1156
 2075W        W15489  11.302   3.367   0.203 -0.1852  0.0873  0.2946
 2076W        W15490   7.373   4.943  12.682  0.2968  0.2783  0.1061
 2077W        W15491   7.198   5.705  11.659 -0.1706 -0.1548  0.1307
 2078W        W15492   1.982   2.499  11.952  0.0506 -0.1184 -0.1900
 2079W        W15493   8.725   6.881  11.749 -0.1935 -0.2498  0.0967
 2080W        W15494  13.703  10.165   0.312  0.2890 -0.2268 -0.2411
 2081W        W15495   5.431   5.951   0.153 -0.2821 -0.0696 -0.1127
 2082W        W15496   6.027   8.033   3.317 -0.0028 -0.0372 -0.0444
 2083W        W15497   6.364  16.405  10.095 -0.3280 -0.0882 -0.2445
 2084W        W15498   8.023  14.201   0.513 -0.5249 -0.0762  0.0227
 2085W        W15499  11.135  13.566  11.078 -0.2049  0.1057  0.0628
 2086W        W15500  10.737  12.759   3.781  0.0429 -0.0060  0.0103
 2087W        W15501   6.478  17.735   5.451 -0.1762 -0.1867 -0.2245
 2088W        W15502   5.366  16.373  13.400 -0.0402 -0.0510  0.2285
 2089W        W15503   8.003   6.219  11.333  0.0958  0.0536  0.2093
 2090W        W15504  14.359   8.299  11.348  0.3502 -0.1102  0.0711
 2091W        W15505   1.711  16.341  11.063  0.1890  0.3018  0.1816
 2092W        W15506  18.223  15.790   1.240  0.1136  0.4173  0.1618
 2093W        W15507  12.767   0.786  10.633 -0.1876  0.0929  0.0465
 2094W        W15508   0.610   1.230  16.432 -0.0180  0.1119  0.1203
 2095W        W15509  12.622   6.269   0.557 -0.2732 -0.1499  0.2540
 2096W        W15510  14.852   4.865   0.849  0.0986  0.3550  0.1223
 2097W        W15511   7.454  12.893  15.627  0.2806  0.0606 -0.1188
 2098W        W15512  11.969  14.838   4.831  0.2281 -0.0909  0.0120
 2099W        W15513   4.138   0.045  10.601 -0.1032  0.1086 -0.0921
 2100W        W15514  12.494   0.602  13.000  0.0446  0.0432 -0.0067
 2101W        W15515   0.354   3.726  11.358  0.0428  0.0367  0.3849
 2102W        W15516  10.518  12.502   1.525 -0.1555  0.1019  0.1275
 2103W        W15517   8.144  17.180  12.176  0.0932  0.0632  0.2460
 2104W        W15518  12.063  18.170   1.321 -0.1798 -0.0034 -0.0257
 2105W        W15519   9.756  10.042   0.519  0.0240 -0.0254  0.0597
 2106W        W15520   0.023   3.303   3.900  0.1536 -0.2689 -0.1553
 2107W        W15521  14.272   5.983  11.478  0.0728 -0.2811  0.2751
 2108W        W15522   1.672   2.309  11.593 -0.0020  0.4240  0.1657
 2109W        W15523  11.829  15.843  11.807  0.1600  0.0495 -0.4257
 2110W        W15524   9.051   1.092   2.212  0.2394  0.1367  0.2080
 2111W        W15525   1.113   4.392  11.494  0.2100 -0.4774  0.2138
 2112W        W15526   2.880   2.947  13.134  0.1888 -0.2095  0.3417
 2113W        W15527  17.020   2.184   5.682  0.0965  0.3812 -0.2253
 2114W        W15528   7.958  16.296  15.992 -0.0131  0.0538 -0.0704
 2115W        W15529   6.595  16.115   3.458 -0.3064  0.1927 -0.0037
 2116W        W15530  10.954   7.251   5.551  0.1828  0.1358  0.1691
 2117W        W15531  15.050  15.728   0.585 -0.2468  0.3182  0.1008
 2118W        W15532  16.562   8.333  11.747 -0.1325 -0.1586 -0.0353
 2119W        W15533   2.973   2.088   1.238  0.0645  0.0384 -0.0525
 2120W        W15534  11.742   7.669   0.402  0.3935  0.1232  0.1558
 2121W        W15535   7.329   4.605  15.805  0.1429 -0.1511  0.1133
 2122W        W15536   7.422   0.314   0.575  0.2607 -0.3899 -0.0488
 2123W        W15537   2.816   9.069  12.597 -0.1182  0.0155  0.1406
 2124W        W15538   0.605   9.312  11.602 -0.0112 -0.2023  0.3240
 2125W        W15539  15.626   6.971  11.937 -0.1530 -0.0962  0.0278
 2126W        W15540  13.387  13.977   0.582 -0.0120 -0.2336  0.2722
 2127W        W15541   8.931   0.133  15.827 -0.0630 -0.2624 -0.0859
 2128W        W15542   3.097  11.060  11.981  0.1280 -0.1268  0.0958
 2129W        W15543  13.678  10.512  13.475 -0.3469 -0.1068 -0.1184
 2130W        W15544   2.239  10.510   2.938 -0.3102  0.1951 -0.1844
 2131W        W15545  16.437  10.246   4.131  0.1558  0.0188  0.0463
 2132W        W15546   3.363   5.780  12.691  0.0841 -0.1966  0.2330
 2133W        W15547   1.593  17.797   2.480 -0.0215  0.0631  0.1591
 2134W        W15548  18.106   0.298  13.979 -0.0248  0.0273 -0.1908
 2135W        W15549   5.644   9.241   0.088  0.0097  0.0875 -0.1845
 2136W        W15550  14.146   6.579  16.122 -0.0470 -0.0684 -0.3127
 2137W        W15551   8.853   4.155  11.709  0.0407  0.1374  0.0151
 2138W        W15552  16.964  12.377  12.795  0.0122  0.0526  0.0609
 2139W        W15553   8.575   0.741  12.928 -0.1174 -0.2530 -0.2358
 2140W        W15554   9.901   1.016   3.638 -0.0285  0.2736  0.1975
 2141W        W15555  12.542   3.703  10.358 -0.0676 -0.2593  0.1902
 2142W        W15556   2.857   5.630  12.539  0.1068  0.0659 -0.2135
 2143W        W15557   4.669   7.157  14.399  0.1797  0.1308  0.2654
 2144W        W15558  15.617  16.951   1.263 -0.0817  0.4753  0.1222
 2145W        W15559   7.489  16.233  11.735 -0.0861  0.0763 -0.2512
 2146W        W15560  14.555   8.538   2.907  0.1588  0.1483 -0.0341
 2147W        W15561   6.727   1.159   2.501  0.1740  0.0754  0.2909
 2148W        W15562  12.494  12.309  13.375 -0.0273 -0.2454 -0.3480
 2149W        W15563  18.180  13.729   3.456 -0.3315 -0.0184  0.1281
 2150W        W15564   7.854  14.166  13.221 -0.0869 -0.0674  0.2219
 2151W        W15565   1.955   3.315  14.138  0.0916  0.0978  0.0097
 2152W        W15566  15.188   4.061  12.482 -0.2325  0.0745 -0.1047
 2153W        W15567   3.091  13.485   3.635 -0.1826  0.2891  0.0272
 2154W        W15568   2.858   1.255  12.841  0.0195  0.1414 -0.0122
 2155W        W15569   9.490   7.879   4.537  0.0137  0.0983  0.1763
 2156W        W15570   5.489  12.206   4.170  0.1310 -0.1429  0.2573
 2157W        W15571  14.524   2.504   3.865 -0.4185 -0.1250 -0.0191
 2158W        W15572   7.175   3.913  10.843  0.0660  0.0791  0.1614
 2159W        W15573  15.832   0.200   1.311  0.3236  0.1071  0.0765
 2160W        W15574   1.380  10.395   1.785  0.0140  0.2126  0.0683
 2161W        W15575   4.168   9.975  16.006 -0.1581  0.1813 -0.2505
 2162W        W15576   4.738   4.189  15.296  0.0106 -0.1308  0.0359
 2163W        W15577  14.902  17.396   2.508 -0.0268 -0.2730  0.2991
 2164W        W15578   4.427   8.432   3.688  0.0635  0.3393 -0.1540
 2165W        W15579   1.084   9.609  14.587  0.4534  0.0112 -0.0945
 2166W        W15580   5.443  16.708   5.357 -0.3157  0.0891 -0.1801
 2167W        W15581  14.545  17.557   3.964  0.0601 -0.2817  0.0283
 2168W        W15582  12.792  17.329   4.796  0.0900 -0.0415 -0.0169
 2169W        W15583   4.670  13.370  15.028  0.1752  0.1249 -0.1576
 2170W        W15584  10.649  13.026   5.907 -0.0605 -0.1684  0.2356
 2171W        W15585  14.662   2.720  10.704  0.0835 -0.0895  0.2735
 2172W        W15586   1.169  13.527  13.475 -0.0318  0.0406  0.5915
 2173W        W15587  11.257   8.834  13.170 -0.3369 -0.2212  0.2567
 2174W        W15588  10.080  17.819   2.018  0.0187  0.2609  0.4231
 2175W        W15589  16.901  18.222  15.230 -0.2461 -0.0622 -0.0890
 2176W        W15590  13.135  13.267   1.781  0.1653 -0.0016  0.2108
 2177W        W15591   8.845   7.596   5.152  0.0198  0.2943 -0.0013
 2178W        W15592  10.421  17.181  16.342 -0.0132  0.0670 -0.2313
 2179W        W15593   3.907   9.212   3.586 -0.1447  0.1160  0.0475
 2180W        W15594  13.203   8.868  15.010 -0.0444  0.3464 -0.1165
 2181W        W15595  13.450  12.905  15.391 -0.3830  0.2615 -0.1941
 2182W        W15596   8.549   4.465  14.050  0.1732 -0.0096 -0.1090
 2183W        W15597  14.421   4.995  11.766  0.1706  0.1495  0.1410
 2184W        W15598   5.665   2.713  14.142 -0.1746 -0.0260 -0.0446
 2185W        W15599  13.429   8.269   5.989 -0.0769  0.0174 -0.2141
 2186W        W15600  12.963  12.782   4.879  0.1698 -0.2531 -0.0751
 2187W        W15601   4.260   8.152   4.032 -0.3003 -0.1122  0.0115
 2188W        W15602   4.974  11.386   5.984  0.1091  0.1583  0.0832
 2189W        W15603   9.723  10.955  13.167  0.0183 -0.2429  0.1015
 2190W        W15604   1.936   2.548   2.616  0.1386  0.1056 -0.0370
 2191W        W15605  14.680   4.834   3.940 -0.2401 -0.1783  0.0556
 2192W        W15606  17.327  15.876  14.515  0.2118  0.2249 -0.2455
 2193W        W15607   4.401  15.763   0.934  0.1309  0.1431 -0.3614
 2194W        W15608   5.349   9.011  14.265  0.2721 -0.0413  0.0488
 2195W        W15609  13.150  11.794   0.771 -0.0095  0.0350 -0.1659
 2196W        W15610   5.878   2.379  11.121 -0.0583  0.4340  0.2933
 2197W        W15611  16.780   5.929  15.314  0.0599 -0.0478  0.1357
 2198W        W15612   3.665   9.946  12.654  0.1150  0.0603  0.2332
 2199W        W15613  13.577  16.337  11.812  0.2369  0.1031 -0.1520
 2200W        W15614   8.156   6.899  13.292  0.0340 -0.1533  0.0500
 2201W        W15615   4.178   5.125   0.737  0.0147 -0.3177 -0.1574
 2202W        W15616  17.910   8.549   5.658  0.3259  0.2099 -0.2782
 2203W        W15617  15.357  11.296   4.950  0.2171 -0.1411  0.0112
 2204W        W15618   7.956   6.813  15.536  0.0587 -0.3769  0.2546
 2205W        W15619  17.498   0.246   4.236  0.0854 -0.0089  0.0485
 2206W        W15620   9.936   4.924   0.775  0.1657 -0.1679  0.2284
 2207W        W15621  11.237  15.373   4.942  0.0651 -0.1948  0.0338
 2208W        W15622  12.527  10.098   1.397  0.0364  0.1758 -0.1016
 2209W        W15623  14.249  17.465  14.663 -0.2153  0.2533 -0.0096
 2210W        W15624   1.495  17.805   1.931 -0.4473  0.0082  0.2112
 2211W        W15625  13.739  13.817   4.520 -0.1907  0.0555  0.2138
 2212W        W15626  17.816   9.998  12.122  0.3147 -0.0707  0.1704
 2213W        W15627  11.209   9.768  15.996 -0.0132 -0.0065 -0.1383
 2214W        W15628   8.947  11.691  12.575  0.2926 -0.1288 -0.3153
 2215W        W15629   3.156  16.577   3.655  0.0744  0.0143 -0.0463
 2216W        W15630   8.416   6.706   6.025  0.0069 -0.3637 -0.0301
 2217W        W15631   0.418  13.352   1.363  0.1136  0.1737 -0.3010
 2218W        W15632   5.366  10.450   4.041  0.1954 -0.1391  0.0677
 2219W        W15633  12.495   3.930   1.845  0.0303  0.2350  0.0469
 2220W        W15634  14.247  10.566   4.657 -0.1705  0.1358 -0.0774
 2221W        W15635  18.078  10.027  15.506  0.1481 -0.0838  0.1081
 2222W        W15636   6.893  17.359   0.039  0.0972 -0.0793  0.1643
 2223W        W15637   8.229  10.895  13.873 -0.2593 -0.0789  0.2978
 2224W        W15638  15.890   4.243  12.983  0.1258 -0.0374 -0.2865
 2225W        W15639   6.288  17.908   9.832 -0.0426  0.0474 -0.1350
 2226W        W15640  16.991  15.453  11.035  0.1900  0.2438  0.0341
 2227W        W15641  11.249   7.445  11.086 -0.1588  0.0181  0.1182
 2228W        W15642  13.200  14.643  13.165  0.2994 -0.0201 -0.1141
 2229W        W15643   1.404   8.017  15.555 -0.0049  0.2825 -0.1995
 2230W        W15644  12.230  14.827   0.771  0.2298  0.0993 -0.0688
 2231W        W15645  15.059  13.397  16.461  0.1558 -0.3486  0.2540
 2232W        W15646   5.861  10.245  11.036  0.2639 -0.0205  0.0585
 2233W        W15647   8.981   0.707  11.551 -0.1340 -0.0921  0.0224
 2234W        W15648  17.225   8.733   2.909 -0.0536  0.0263  0.0897
 2235W        W15649  16.100   5.452   0.338 -0.0848  0.1480 -0.0409
 2236W        W15650   9.077  14.236   5.617 -0.0136  0.1071 -0.0864
 2237W        W15651  13.968  17.407   5.089 -0.0173 -0.1627 -0.1147
 2238W        W15652   0.721  17.067   3.466 -0.0699  0.0720  0.2325
 2239W        W15653   7.039   0.405   3.212 -0.2493  0.0691  0.1218
 2240W        W15654   1.583  17.499  16.130  0.3419 -0.1952 -0.0670
 2241W        W15655  10.181   1.342   2.447  0.1459 -0.0291 -0.1523
 2242W        W15656  12.333   7.211   5.408  0.0489  0.2048  0.0863
 2243W        W15657  15.016  14.743  15.922 -0.0332  0.1684 -0.0406
 2244W        W15658   6.563  13.998  11.489  0.4018  0.3211 -0.0258
 2245W        W15659  11.014   0.750  10.529 -0.1495 -0.2675 -0.1017
 2246W        W15660  10.462  15.148  12.792  0.1915 -0.0427 -0.2754
 2247W        W15661   0.847   3.932  10.042 -0.0460 -0.0226  0.1271
 2248W        W15662   7.781   3.971   3.631  0.0359  0.2098  0.0123
 2249W        W15663   9.181  15.527  11.662 -0.0975 -0.1489  0.0586
 2250W        W15664   1.449  14.066   4.261  0.3235 -0.0655  0.1076
 2251W        W15665  15.632  11.114   2.051 -0.1402 -0.1496  0.0696
 2252W        W15666   9.623   6.205  15.442  0.1507 -0.2021  0.1076
 2253W        W15667  12.072  13.803   3.787 -0.0491 -0.0888 -0.3445
 2254W        W15668  13.147  13.272  15.183 -0.0586 -0.4513  0.0768
 2255W        W15669   2.209  14.520  11.483  0.0688  0.2027 -0.1774
 2256W        W15670  10.519  10.371   5.194  0.0885  0.0698 -0.3336
 2257W        W15671  13.511   3.724   3.555  0.0819  0.1427 -0.1158
 2258W        W15672   0.007   3.823   4.644  0.0556 -0.2298 -0.0207
 2259W        W15673   4.337  14.485   3.831  0.0467 -0.0732  0.1498
 2260W        W15674   4.251   8.931  13.210 -0.1422 -0.0313 -0.1101
 2261W        W15675   5.516   6.501   0.197  0.1303  0.0786 -0.1159
 2262W        W15676  14.840  15.796  11.309  0.0706  0.1201  0.3363
 2263W        W15677  16.720   3.111   4.802  0.1541  0.0450  0.2392
 2264W        W15678  15.666   8.062   0.607 -0.0249 -0.0735  0.1818
 2265W        W15679   6.518   4.775   3.665  0.1501  0.0665 -0.1662
 2266W        W15680   2.135   8.196  14.135  0.0631  0.0629 -0.3230
 2267W        W15681  13.899  10.564   3.664 -0.3196  0.0560  0.1057
 2268W        W15682  17.323   3.566   2.530  0.1020 -0.0912 -0.0535
 2269W        W15683   5.371  12.808   1.570 -0.2656  0.0823  0.2534
 2270W        W15684  16.014   6.468   4.530  0.2031  0.2640 -0.1485
 2271W        W15685   0.492   8.881  15.896 -0.0854  0.2388  0.0496
 2272W        W15686  14.462  11.872   2.153 -0.0059 -0.1285  0.0490
 2273W        W15687   1.860  10.381   4.384  0.1856 -0.1224 -0.1918
 2274W        W15688   2.714  13.695  15.295  0.1961  0.0523 -0.2492
 2275W        W15689   7.250   1.315  14.756  0.0168 -0.2233  0.0859
 2276W        W15690   7.733   7.058   4.052 -0.0613 -0.0229  0.3500
 2277W        W15691  12.227  11.318  13.425  0.1051  0.1792 -0.3734
 2278W        W15692   0.151  17.354   0.559  0.1448  0.4192 -0.3387
 2279W        W15693  10.669   9.718  13.162 -0.1429 -0.2828 -0.0562
 2280W        W15694  14.778  16.885   2.356  0.0642 -0.2166 -0.0821
 2281W        W15695   1.537  12.386  12.197  0.0759 -0.0179  0.1069
 2282W        W15696  16.398  10.114   3.629  0.1035  0.0181  0.1186
 2283W        W15697   0.921  16.107   0.041  0.0381 -0.0965  0.1598
 2284W        W15698   7.845   3.182  15.093 -0.1308 -0.1772 -0.1854
 2285W        W15699   6.288   4.466   0.159  0.0136 -0.0606 -0.0372
 2286W        W15700   4.619   5.384  13.997 -0.0968  0.1950  0.1816
 2287W        W15701  12.134   2.438  12.040  0.0161  0.0255 -0.2077
 2288W        W15702   8.419  10.822  10.992  0.0609  0.2269 -0.0400
 2289W        W15703  11.449   3.601  14.321 -0.0671  0.0703  0.0994
 2290W        W15704  14.637  10.434  13.660  0.0255 -0.1060  0.1134
 2291W        W15705   2.438   2.300  13.438  0.0296  0.2566 -0.2658
 2292W        W15706   4.063  15.641   4.705  0.0882 -0.3176 -0.1300
 2293W        W15707   8.944   0.013   1.175  0.0133 -0.2201  0.1169
 2294W        W15708   8.603  11.220   6.724 -0.0737  0.4099 -0.0691
 2295W        W15709   5.677   7.768  15.669  0.0542  0.0881  0.1273
 2296W        W15710  16.844   0.792  10.204 -0.1407 -0.2813  0.0322
 2297W        W15711  13.193  13.550   2.203 -0.0585  0.0320  0.3718
 2298W        W15712   9.670  17.498   5.322  0.0830 -0.2415 -0.2099
 2299W        W15713  12.027  11.325   0.874  0.1516 -0.0598 -0.2244
 2300W        W15714   8.733  12.902  15.223 -0.0650 -0.0071  0.0548
 2301W        W15715  12.292  15.075   3.318  0.2124 -0.0413 -0.2636
 2302W        W15716   7.117   2.825   5.206  0.0052 -0.3296  0.1641
 2303W        W15717  16.787  13.118  12.008  0.1387 -0.2482 -0.2801
 2304W        W15718  13.786   6.104   1.383  0.1123 -0.1253  0.1342
 2305W        W15719   7.501   0.793   5.094  0.2230  0.0926  0.0145
 2306W        W15720  14.974   2.276  13.596  0.1916  0.2395  0.0010
 2307W        W15721  13.454  14.906   5.723 -0.3222  0.1584  0.1159
 2308W        W15722  14.521   7.436   4.629 -0.2198 -0.0359 -0.1997
 2309W        W15723   7.202   6.462  14.654  0.1474  0.0904  0.1232
 2310W        W15724  14.311  14.725  14.048 -0.0145  0.3364 -0.2520
 2311W        W15725  15.574  10.589  15.754  0.3517  0.3082  0.3755
 2312W        W15726   2.533  12.441   1.988 -0.0363  0.2159 -0.0655
 2313W        W15727   3.871  15.791  11.419  0.5838 -0.1925 -0.2211
 2314W        W15728   1.298  15.510   1.672 -0.0800 -0.0198  0.0516
 2315W        W15729  13.698   9.727   0.590 -0.2816 -0.4290 -0.0193
 2316W        W15730  15.408   4.779   2.571  0.3497  0.1517 -0.0347
 2317W        W15731  11.941   5.635   1.958 -0.2960 -0.1578  0.0728
 2318W        W15732   4.749   2.652   5.362  0.1647 -0.0833 -0.2919
 2319W        W15733  15.084  10.598  11.818 -0.0482 -0.1384  0.1566
 2320W        W15734   3.573   7.362  15.451  0.2572 -0.4755  0.2909
 2321W        W15735  14.897   6.082   4.294 -0.2151  0.1074 -0.2589
 2322W        W15736  16.587  10.935   0.758  0.0226  0.3311  0.1819
 2323W        W15737   0.657  16.949   4.545  0.0506  0.0587 -0.2154
 2324W        W15738   3.912   6.199   1.192  0.0037  0.1461  0.0739
 2325W        W15739   3.191  11.974   4.132 -0.2439 -0.1651  0.0606
 2326W        W15740   0.417   0.088   2.195  0.2572 -0.3505 -0.1075
 2327W        W15741  16.510   9.906   5.098 -0.1800 -0.1731  0.3161
 2328W        W15742   0.472   4.408  12.475 -0.0837  0.2679 -0.1233
 2329W        W15743   5.985   9.167   4.155 -0.0548 -0.1329  0.0364
 2330W        W15744   6.710   4.290   5.241  0.2280 -0.2082  0.2748
 2331W        W15745   9.042   2.359  11.225 -0.2635  0.1669  0.1149
 2332W        W15746   1.660   5.182   2.205 -0.0609 -0.1673 -0.2649
 2333W        W15747   5.082   9.115   4.360  0.0995 -0.2246  0.2444
 2334W        W15748  17.322   2.557  14.558 -0.2783  0.2028 -0.0076
 2335W        W15749  12.067  15.141   2.631 -0.0906 -0.0143  0.0435
 2336W        W15750  13.947  14.531   3.726  0.0587 -0.1565 -0.1916
 2337W        W15751   3.839  17.587  15.892  0.0339 -0.3447  0.1856
 2338W        W15752   1.790   9.745   5.550  0.0651 -0.0672  0.0659
 2339W        W15753   0.616  15.272  11.793 -0.0148 -0.2639 -0.3189
 2340W        W15754   7.737   8.802  13.696 -0.1344 -0.1785  0.5310
 2341W        W15755  16.471  10.500  13.198  0.2067  0.0097  0.2612
 2342W        W15756   2.378  14.679  13.544 -0.1600 -0.0855 -0.0343
 2343W        W15757   1.381   5.555   2.974  0.1430  0.0026  0.0699
 2344W        W15758   5.831   1.563  15.332 -0.1420 -0.1298 -0.0000
 2345W        W15759   7.911   1.652  12.283  0.0753 -0.1651 -0.0676
 2346W        W15760  14.570  16.913  13.248  0.2504  0.0671  0.0214
 2347W        W15761   1.135  11.771  16.178  0.0410  0.2972  0.1124
 2348W        W15762   2.254  13.893  13.479 -0.1555  0.0980  0.3900
 2349W        W15763  16.587  14.598   5.269 -0.0087 -0.0081 -0.2721
 2350W        W15764  17.367   2.494  12.701  0.2549 -0.0052 -0.2413
 2351W        W15765   1.841   2.947   5.933  0.0644 -0.2127 -0.3009
 2352W        W15766  12.614  16.833  16.019  0.0903 -0.0969  0.0492
 2353W        W15767   2.341   5.291   1.726 -0.1925  0.1442 -0.2328
 2354W        W15768  18.206  13.089   0.950 -0.0317 -0.2300 -0.3027
 2355W        W15769   9.486  13.420  15.734 -0.2918  0.1053  0.1692
 2356W        W15770  10.949  13.506   5.562  0.2834  0.0921  0.0086
 2357W        W15771  14.366   7.779  10.291  0.1731 -0.0147  0.2796
 2358W        W15772  15.343  10.850   0.907 -0.1769  0.3301  0.0533
 2359W        W15773   3.979   0.483  11.438  0.2895 -0.1571 -0.1356
 2360W        W15774  11.697  12.153   2.435  0.0666 -0.0357  0.2121
 2361W        W15775   3.362   8.277  15.430 -0.1693 -0.4735 -0.1059
 2362W        W15776   9.913   2.544   4.756  0.0449 -0.2343 -0.3586
 2363W        W15777  17.546   2.072  11.145 -0.1276 -0.1443 -0.1424
 2364W        W15778  17.087  15.044   0.383 -0.2589  0.0990  0.0614
 2365W        W15779  16.083   4.496   3.134 -0.2939  0.2276 -0.1717
 2366W        W15780   0.726   0.423   3.647  0.0682 -0.0390 -0.0524
 2367W        W15781   3.342  17.721  11.674 -0.0549 -0.1321 -0.0716
 2368W        W15782  13.585  12.125   5.177 -0.2593  0.0284 -0.1779
 2369W        W15783   7.634  10.154   5.555 -0.0951  0.1307  0.0169
 2370W        W15784   1.042   2.995   5.839  0.3220  0.1465  0.0898
 2371W        W15785   3.821   4.508  11.449  0.0513  0.0705 -0.1737
 2372W        W15786   0.994   1.763   4.701 -0.1316  0.2330 -0.1902
 2373W        W15787   3.614   2.234  13.490  0.1653  0.0976  0.1329
 2374W        W15788   7.667   4.627   0.444  0.3787  0.0821  0.0489
 2375W        W15789  12.256   0.992  10.851 -0.2557  0.1824  0.0717
 2376W        W15790   8.869  17.494   5.230 -0.2190  0.1900 -0.2002
 2377W        W15791   4.581   2.518  12.548 -0.3562 -0.2743 -0.0407
 2378W        W15792   6.901   2.374   0.138  0.0031  0.1494  0.1312
 2379W        W15793   3.855   6.459   5.608  0.1211  0.3902 -0.0069
 2380W        W15794   5.999   5.197  11.876 -0.1201  0.0442  0.0676
 2381W        W15795   9.378   9.105  14.369  0.0323  0.1726 -0.1761
 2382W        W15796   1.103   8.880   4.628  0.1039 -0.0290  0.2254
 2383W        W15797   6.421  13.470   5.001  0.1753  0.1146 -0.0895
 2384W        W15798  14.910   3.891   0.884 -0.1048 -0.0619  0.1169
 2385W        W15799   6.733   0.077  10.614 -0.1347  0.1874 -0.0973
 2386W        W15800   2.594  14.262  13.427 -0.1077 -0.2391  0.0539
 2387W        W15801   6.591  14.096  14.116  0.1576 -0.0836  0.1257
 2388W        W15802   6.110  17.075   3.789  0.1434 -0.0270 -0.2261
 2389W        W15803   1.846   1.076  10.621 -0.0239  0.0620 -0.1102
 2390W        W15804   5.134  16.360  11.603 -0.0097  0.1151 -0.2648
 2391W        W15805  11.652   6.142   4.017  0.0772  0.1937  0.2919
 2392W        W15806   4.317   2.614  12.153 -0.0100 -0.2121  0.1071
 2393W        W15807   2.449   6.788  14.710  0.1292 -0.1832  0.0517
 2394W        W15808   1.932  11.718   4.315 -0.0683  0.0827 -0.0994
 2395W        W15809   7.161  14.275  10.937 -0.1700  0.0753 -0.2104
 2396W        W15810   0.654   2.637  10.701  0.2737  0.0295 -0.1143
 2397W        W15811   6.720  10.130  16.414 -0.2128  0.2636 -0.1753
 2398W        W15812   9.040   8.093  15.381 -0.0054  0.0481  0.0433
 2399W        W15813  10.886   2.622  13.756  0.1567  0.0562  0.1660
 2400W        W15814   4.768  12.002  16.020  0.0182  0.0965 -0.4277
 2401W        W15815   6.810   0.264   5.012  0.0806  0.0095  0.0185
 2402W        W15816   7.142  11.103   5.197 -0.0935  0.1909 -0.2436
 2403W        W15817  12.385   1.178  10.080  0.1300 -0.0604 -0.2287
 2404W        W15818   2.888  11.722   5.392  0.0831  0.0838  0.2936
 2405W        W15819   2.528   2.251   3.081  0.2304 -0.1552 -0.1077
 2406W        W15820   9.039   2.184   4.587  0.1103 -0.1015  0.0631
 2407W        W15821  16.804   2.292  16.038 -0.0265 -0.0455  0.0107
 2408W        W15822   5.309   7.468  13.720  0.1488 -0.0623  0.2401
 2409W        W15823  16.374   9.100  15.555 -0.1401 -0.3091 -0.2151
 2410W        W15824   2.743   0.118   1.964  0.0611 -0.0423  0.0788
 2411W        W15825  16.602   7.846   3.588  0.0994 -0.1030  0.0857
 2412W        W15826   8.486   2.544  15.200 -0.0693 -0.0560 -0.1773
 2413W        W15827   5.223  16.580  14.653 -0.0314  0.0036 -0.0186
 2414W        W15828   9.805   0.629   5.290 -0.2091  0.0435 -0.0903
 2415W        W15829  13.618   2.563  15.009 -0.0631  0.0394  0.0674
 2416W        W15830   3.736   7.166   3.877  0.1153  0.1467  0.0678
 2417W        W15831  13.414  15.156  12.426 -0.0831 -0.2482 -0.1335
 2418W        W15832   1.155   8.871  16.517 -0.0573  0.0348 -0.1754
 2419W        W15833   2.587   7.254   5.345 -0.0051 -0.2120  0.2362
 2420W        W15834   0.533   7.849  15.612 -0.0813 -0.1474 -0.0620
 2421W        W15835  12.678  12.504  12.970 -0.0665  0.0523 -0.1051
 2422W        W15836  12.624   8.964  12.183  0.1179 -0.1298 -0.1097
 2423W        W15837   7.156  12.623  12.315  0.3160 -0.3179 -0.2964
 2424W        W15838  10.109  12.824   5.523  0.1479 -0.2235  0.2689
 2425W        W15839  12.934  15.311  10.510  0.1447 -0.0388 -0.2004
 2426W        W15840  16.016   1.606  11.435 -0.5090  0.1825 -0.0267
 2427W        W15841   3.107   9.964   3.017 -0.0872 -0.2371  0.1449
 2428W        W15842  12.343   0.693  10.265 -0.0059  0.0502  0.1584
 2429W        W15843  14.724  11.472  14.363  0.0068  0.1393 -0.2585
 2430W        W15844   4.386  15.155  10.544 -0.1759 -0.2001 -0.1732
 2431W        W15845  14.570  15.406   2.979  0.3872  0.3294 -0.2132
 2432W        W15846   8.116  17.196   1.601  0.0481  0.1084 -0.2139
 2433W        W15847   3.414   8.594  12.713  0.0151 -0.0262 -0.0934
 2434W        W15848  16.455  17.069   3.771 -0.0622 -0.0912 -0.3402
 2435W        W15849  12.783  13.042  14.886 -0.2401  0.1177 -0.2323
 2436W        W15850   2.199   6.645   2.240 -0.0224  0.3441  0.1497
 2437W        W15851  18.107  16.063   3.644  0.4005  0.3120 -0.2402
 2438W        W15852  12.040  13.257   0.525  0.1974  0.1317 -0.2378
 2439W        W15853   3.647  11.733   4.312  0.4480 -0.1011 -0.1716
 2440W        W15854  14.078  16.643   3.673  0.1724 -0.1048 -0.1187
 2441W        W15855   2.204  12.463  12.399  0.0352 -0.0330  0.0815
 2442W        W15856   8.488   5.498   9.816  0.2370 -0.0027  0.3094
 2443W        W15857  15.432  16.899  14.165  0.0552  0.2078  0.2983
 2444W        W15858   3.025   0.315  16.012 -0.0729  0.0055 -0.0501
 2445W        W15859  12.009   1.086  10.369  0.0351  0.2709 -0.1817
 2446W        W15860   4.493   7.538   3.712 -0.0416 -0.2833 -0.0892
 2447W        W15861  16.185  17.945  15.852 -0.0987  0.2147 -0.0631
 2448W        W15862  10.776   4.985   2.155  0.4330  0.3757  0.1761
 2449W        W15863   9.940   0.112   4.015  0.2631 -0.2504 -0.0370
 2450W        W15864  15.704   5.800   0.200  0.1230  0.0472 -0.1692
 2451W        W15865  16.742   0.064  12.308 -0.1061  0.0288 -0.3364
 2452W        W15866  13.802   1.720   0.944 -0.0893 -0.0300 -0.1965
 2453W        W15867  16.158   3.927   1.762  0.1465 -0.0635  0.0008
 2454W        W15868   7.300  13.576   3.140 -0.1377 -0.0173  0.2192
 2455W        W15869  11.589   9.568  12.980  0.2538 -0.0318  0.1282
 2456W        W15870   9.744   6.789  13.724  0.1291 -0.0789 -0.5298
 2457W        W15871   6.113   3.181  15.822  0.1809  0.2776  0.1019
 2458W        W15872  10.057   6.999   0.348 -0.3209 -0.2213  0.2508
 2459W        W15873  10.830   2.159   5.668 -0.1587 -0.0469 -0.0230
 2460W        W15874   5.728   0.639   0.220  0.0421 -0.2124  0.0968
 2461W        W15875  15.464  13.410  13.649 -0.2658  0.0035  0.3525
 2462W        W15876  11.214  11.633   6.009 -0.0101  0.0798 -0.5176
 2463W        W15877   9.561  15.087   1.474  0.4259  0.0192  0.0273
 2464W        W15878  17.218   9.708   3.387  0.4719 -0.0818  0.1322
 2465W        W15879   9.060  13.151   4.448 -0.0277 -0.0187  0.1455
 2466W        W15880  14.242   4.471   5.361 -0.1844 -0.1170 -0.1928
 2467W        W15881   1.932  10.406  10.427  0.0055  0.0403  0.1221
 2468W        W15882   1.634  15.954   4.877  0.1226 -0.1773  0.0395
 2469W        W15883   6.869   8.175  16.043 -0.0599  0.0530  0.2549
 2470W        W15884   5.624  10.384  14.324 -0.0819  0.4682  0.0306
 2471W        W15885   2.008  17.591   2.554 -0.0533 -0.0968 -0.2457
 2472W        W15886  15.326   1.914   0.353  0.0353 -0.0191 -0.0001
 2473W        W15887  16.093   9.229   2.603  0.0968  0.0396 -0.0096
 2474W        W15888  13.731   0.029   3.051  0.4246 -0.0912  0.0108
 2475W        W15889   3.327   4.473   2.329  0.1496 -0.2651  0.1119
 2476W        W15890   0.466   6.511  15.139 -0.0510  0.4531  0.0371
 2477W        W15891   3.666  12.934   5.343 -0.1233 -0.0070  0.1380
 2478W        W15892  18.220   6.922   0.885 -0.0562  0.0424 -0.4028
 2479W        W15893  17.450  16.975   5.260  0.1256  0.0540 -0.0079
 2480W        W15894   1.477  14.170   0.285  0.0499  0.0431 -0.1086
 2481W        W15895   1.009   6.715   1.878  0.0074  0.0453  0.2942
 2482W        W15896   6.471   2.138   0.330 -0.3162  0.1860 -0.3511
 2483W        W15897   8.463  11.542  12.756  0.0998  0.0455  0.0138
 2484W        W15898   2.090  10.316  11.835  0.3068 -0.0007  0.0501
 2485W        W15899  16.343  15.445   2.660 -0.3782  0.1388 -0.3554
 2486W        W15900  17.694   8.733   2.005 -0.0413  0.0462  0.3287
 2487W        W15901  14.935  14.267   2.453  0.0638 -0.1234  0.2609
 2488W        W15902  11.910   4.444   3.282 -0.2187 -0.0633 -0.2522
 2489W        W15903  13.745  17.304  15.367 -0.1513 -0.0220 -0.0792
 2490W        W15904   2.609  11.417  12.114  0.1414 -0.1828  0.1125
 2491W        W15905   8.252   2.022  12.054 -0.3690 -0.0278 -0.0713
 2492W        W15906  10.628   1.110   1.529 -0.0128  0.0068  0.0253
 2493W        W15907  17.406  14.727   1.149 -0.1429 -0.0383 -0.1466
 2494W        W15908   5.788  18.192  12.685 -0.2344 -0.1102 -0.0491
 2495W        W15909   2.088  18.072  15.138  0.0179 -0.1774 -0.0013
 2496W        W15910  13.597  15.543   5.428  0.0372 -0.1427 -0.2762
 2497W        W15911   6.993   8.399   3.488 -0.0740 -0.2381  0.1983
 2498W        W15912  14.831  18.059  15.716 -0.0260  0.4008 -0.0285
 2499W        W15913   2.006   5.844   0.965  0.4100 -0.0706  0.1309
 2500W        W15914  15.609   1.943  11.159  0.1940 -0.1272 -0.2234
 2501W        W15915   1.619  17.399   2.857  0.1445  0.0822 -0.2211
 2502W        W15916  17.250   1.235  15.199 -0.0801  0.1221  0.1045
 2503W        W15917   0.579  18.033  13.600 -0.0056  0.1508 -0.1012
 2504W        W15918   2.341  12.217   4.145 -0.2938  0.0097 -0.2483
 2505W        W15919  11.377  10.116  16.336 -0.0012  0.0279  0.0383
 2506W        W15920  15.732   8.844   0.168 -0.1448 -0.4338 -0.0937
 2507W        W15921  11.212  11.378   2.295  0.2790  0.1507 -0.1199
 2508W        W15922  16.368   1.119   3.189  0.0225 -0.0089 -0.0191
 2509W        W15923  10.379   3.282   1.250 -0.0168 -0.0578 -0.0041
 2510W        W15924   7.895   8.387   5.639  0.0260 -0.1562  0.0944
 2511W        W15925  12.094  11.396   5.953 -0.1819 -0.0822 -0.2285
 2512W        W15926   0.403  12.363  15.301 -0.1876 -0.0133 -0.1408
 2513W        W15927   5.750  13.125  13.500  0.4033  0.1638 -0.0022
 2514W        W15928   0.985   6.006  15.540  0.1487 -0.1319  0.1566
 2515W        W15929   7.696  17.690  11.637 -0.1503  0.0820  0.3380
 2516W        W15930   4.729   6.451  13.191 -0.1794 -0.0124 -0.1450
 2517W        W15931   8.575   6.588  15.451  0.0328  0.0199  0.0587
 2518W        W15932   7.464   0.395   5.494  0.1726 -0.1289 -0.0784
 2519W        W15933   8.976  13.700   2.359  0.1097 -0.0805  0.2747
 2520W        W15934  10.369  10.121  14.136 -0.3546 -0.0841 -0.1777
 2521W        W15935  10.148   3.587  15.946  0.1139  0.2640 -0.1454
 2522W        W15936   4.811  15.971   1.254  0.1961 -0.1677 -0.1219
 2523W        W15937  14.162   5.281   3.775 -0.1271 -0.1860  0.0004
 2524W        W15938  17.904   2.222  15.728 -0.3188  0.2246  0.0355
 2525W        W15939  14.088   0.388   3.558  0.2278 -0.2226 -0.2381
 2526W        W15940   8.180   2.974   0.173 -0.1037  0.0392 -0.0958
 2527W        W15941   4.493   3.484  10.943 -0.0707  0.1189 -0.0709
 2528W        W15942  13.642   5.265   5.034 -0.2172  0.0403  0.0080
 2529W        W15943   3.568   5.574  14.174  0.0209  0.0394 -0.4894
 2530W        W15944   5.064   4.011   0.834 -0.2887  0.2925 -0.0737
 2531W        W15945  11.810   4.765  16.332 -0.1255  0.0559  0.0117
 2532W        W15946   6.609   4.467   4.125  0.0203 -0.1286  0.1724
 2533W        W15947   8.856  17.862   0.588  0.1361 -0.0060  0.0626
 2534W        W15948   1.222   5.331  16.199 -0.1458  0.0184  0.0611
 2535W        W15949  12.549  15.444  12.609  0.0942  0.1715 -0.1466
 2536W        W15950   9.004  14.367   4.760 -0.2112  0.0463 -0.1695
 2537W        W15951   3.994  11.190  15.511 -0.0283  0.1667  0.0329
 2538W        W15952  15.907   8.323  13.100  0.0922  0.0231 -0.1141
 2539W        W15953  16.968  12.980   0.739 -0.1875  0.0247  0.0240
 2540W        W15954   1.236   1.528  12.146  0.1279 -0.0529 -0.0127
 2541W        W15955   1.854   1.727   2.604 -0.0396  0.2192 -0.0653
 2542W        W15956   1.412  11.592  14.579 -0.1851  0.0205 -0.1960
 2543W        W15957  17.722  15.752   1.193  0.3101 -0.0400 -0.0492
 2544W        W15958  14.491  14.020   2.185  0.2350 -0.1352  0.0090
 2545W        W15959  18.116   0.154  16.520 -0.2194  0.1200 -0.0221
 2546W        W15960   9.855   2.063  10.732  0.0783  0.0858  0.0307
 2547W        W15961   3.000   4.793  13.764 -0.2832  0.1442  0.0896
 2548W        W15962  15.055  10.328  11.406  0.0387 -0.0424 -0.2543
 2549W        W15963  17.497  14.202   0.823  0.0618  0.1693 -0.5815
 2550W        W15964  12.499  11.114   6.054  0.1378  0.1361 -0.0377
 2551W        W15965  15.200   6.573   1.675 -0.0262  0.0865  0.0607
 2552W        W15966   9.970   2.567  15.847  0.0686 -0.1767 -0.1319
 2553W        W15967   4.635   3.304  12.503 -0.2757 -0.0104  0.0884
 2554W        W15968  16.928   6.709   0.511  0.0432 -0.0536  0.0402
 2555W        W15969  12.592  11.578  13.165  0.0994 -0.1726 -0.0928
 2556W        W15970   1.613  14.596   5.929 -0.1585 -0.1029  0.4764
 2557W        W15971   1.526  12.791  11.777 -0.1169 -0.2064  0.1364
 2558W        W15972  14.962   0.904  10.092  0.1202 -0.2840  0.1523
 2559W        W15973  17.098   4.056   0.339  0.0227  0.3606  0.0334
 2560W        W15974   9.407  11.939   4.364  0.0258  0.1106  0.0735
 2561W        W15975  11.765   8.584  14.499 -0.1854  0.0102  0.2521
 2562W        W15976  14.378  13.375  14.389 -0.1333  0.0271  0.1130
 2563W        W15977   8.129   2.774   3.763  0.3816 -0.2082 -0.1422
 2564W        W15978   5.429  14.700  10.482 -0.0419  0.1143 -0.2223
 2565W        W15979  15.474  17.438  15.707 -0.0108 -0.0361 -0.1198
 2566W        W15980   3.061   5.753  13.087  0.2896  0.2312  0.0127
 2567W        W15981  11.516   5.878   1.864  0.0786 -0.0485 -0.0518
 2568W        W15982   0.555  18.102  11.913 -0.1225 -0.2843  0.1497
 2569W        W15983   7.866   0.517   4.753  0.1124  0.3833 -0.2021
 2570W        W15984  11.895   7.194  14.556 -0.0903  0.1736 -0.0889
 2571W        W15985   9.073  13.121   0.675  0.3894 -0.0760  0.1575
 2572W        W15986   1.495  12.326   1.439 -0.0850 -0.0999 -0.2594
 2573W        W15987   0.167   3.746   3.707 -0.0959  0.1630  0.1905
 2574W        W15988  10.966  16.946  15.987 -0.2103  0.6162 -0.4257
 2575W        W15989  13.621   0.638  13.501  0.1982  0.2848  0.0903
 2576W        W15990   3.412   4.249  10.718 -0.0868  0.2502 -0.1627
 2577W        W15991  17.586  10.922   0.814  0.0653  0.0980  0.2663
 2578W        W15992  12.381   0.515  11.574  0.2613  0.2696  0.1778
 2579W        W15993  16.799   3.156  12.777 -0.0676  0.1102  0.2369
 2580W        W15994   8.737   8.026   6.292  0.4671 -0.0469  0.2517
 2581W        W15995   3.987  12.533   1.976  0.4233  0.2455  0.1544
 2582W        W15996   4.000   3.287   3.448 -0.0553  0.3651 -0.0737
 2583W        W15997  13.171   1.670   4.148 -0.3119 -0.0740  0.2223
 2584W        W15998  15.947  12.789   5.614  0.0099 -0.0657 -0.0754
 2585W        W15999   8.501   6.436  13.648  0.1455  0.0373 -0.3345
 2586W        W16000  17.551   7.916  12.904  0.2062  0.0539  0.2069
 2587W        W16001  16.036   4.885   1.364 -0.1631 -0.0646 -0.0099
 2588W        W16002  15.875   7.343   2.579  0.4081 -0.2142 -0.1877
 2589W        W16003   2.178   1.780  15.555 -0.2471  0.2594 -0.2827
 2590W        W16004  10.625  15.271   3.093  0.0292  0.2166  0.0119
 2591W        W16005   4.899   5.979   0.015 -0.0951 -0.0765  0.2844
 2592W        W16006   8.145   6.945  10.834 -0.0210 -0.0857 -0.0254
 2593W        W16007   9.998   3.444  11.464  0.0084 -0.3603 -0.4599
 2594W        W16008  17.914  12.041   1.536  0.0302 -0.2241 -0.2230
 2595W        W16009   3.627  14.109   3.130 -0.3552  0.2352 -0.0524
 2596W        W16010   1.907  12.768  12.145 -0.4011  0.0156 -0.1176
 2597W        W16011  17.331   2.286   0.546  0.0104 -0.1144  0.0494
 2598W        W16012  10.328   5.196  12.030  0.1030  0.0693  0.0699
 2599W        W16013   0.063   9.658   0.218  0.0315  0.0013 -0.0712
 2600W        W16014   9.489   0.308  13.352 -0.2705  0.0602 -0.1513
 2601W        W16015   3.135   5.080   5.170 -0.2208 -0.0156 -0.1950
 2602W        W16016   4.936   9.298  11.886 -0.0703 -0.3396 -0.0424
 2603W        W16017  10.749   2.394   9.605 -0.3479 -0.0478 -0.1779
 2604W        W16018  15.422   5.572  13.587 -0.0838 -0.0561  0.2281
 2605W        W16019   3.128   9.502   0.694 -0.0714 -0.1314  0.3590
 2606W        W16020   3.502   4.539   0.426 -0.1669 -0.1181 -0.2481
 2607W        W16021   7.009   3.352   3.889  0.2961 -0.2713  0.0949
 2608W        W16022   6.958   4.690   5.371 -0.1416  0.1323 -0.0373
 2609W        W16023   4.290   1.313  15.010  0.0808  0.2300 -0.0168
 2610W        W16024  12.817   7.464  14.524 -0.1505 -0.0002  0.0991
 2611W        W16025   3.377   1.179  12.508 -0.1193  0.1993  0.2007
 2612W        W16026  12.073   1.563  12.854  0.0900 -0.2030  0.2417
 2613W        W16027  15.432   8.838  12.389  0.5057 -0.0138 -0.1939
 2614W        W16028  15.150  14.080   5.401 -0.0114 -0.2385  0.3261
 2615W        W16029  11.820  13.511  13.771  0.1818  0.0058  0.0894
 2616W        W16030  13.000  15.566  14.332 -0.0774  0.0656 -0.0024
 2617W        W16031  16.128  10.496  15.840  0.1069  0.0766  0.3209
 2618W        W16032  13.874  12.634  10.626 -0.0597 -0.1384 -0.0166
 2619W        W16033  13.903   3.099  13.597  0.4126 -0.2346 -0.0781
 2620W        W16034  14.610   0.542   3.561  0.0903  0.0196  0.1935
 2621W        W16035   5.946   5.315  11.086  0.0236 -0.1811 -0.4564
 2622W        W16036   8.346  14.574   3.623  0.1488 -0.3205 -0.0888
 2623W        W16037  11.963   7.193  13.992 -0.0646  0.0070 -0.2548
 2624W        W16038   6.147   7.607   1.712  0.0386  0.4440 -0.2635
 2625W        W16039  10.532   2.671  14.681 -0.1194  0.0714 -0.4049
 2626W        W16040   9.021   1.909  11.424  0.0916  0.0216 -0.0097
 2627W        W16041   2.873  15.795   5.452 -0.1877  0.0472 -0.1406
 2628W        W16042  14.295  17.860  14.968 -0.1947  0.2211  0.1849
 2629W        W16043   1.334   7.588  12.334  0.0614 -0.2436 -0.2588
 2630W        W16044   8.690  15.112  14.111 -0.1842  0.1955  0.2439
 2631W        W16045   2.545   6.094   3.177 -0.2122 -0.2608 -0.2420
 2632W        W16046   6.984  11.614   1.596 -0.1095 -0.0567 -0.1006
 2633W        W16047  11.571  13.408  13.182  0.0797  0.2542 -0.0964
 2634W        W16048  10.359  14.934   3.482  0.0087 -0.0775 -0.2546
 2635W        W16049   8.357  10.197   2.053 -0.0397 -0.1933 -0.2218
 2636W        W16050  17.712  14.264  13.227 -0.1505 -0.0555 -0.2295
 2637W        W16051   8.702  15.433  14.488  0.2747 -0.2589  0.0613
 2638W        W16052   5.894   0.105   0.583  0.3657  0.0254 -0.0777
 2639W        W16053  13.471   2.921  10.377 -0.0898 -0.0991  0.0492
 2640W        W16054   8.303   5.930  15.070 -0.0934  0.1923  0.0946
 2641W        W16055   2.803  17.353  15.288  0.1235 -0.5409 -0.0011
 2642W        W16056   8.882   9.495   5.891  0.2660 -0.0041  0.1621
 2643W        W16057  10.490   8.616   3.270  0.2148  0.0652 -0.0032
 2644W        W16058  15.337   5.891  11.166 -0.0435 -0.1139  0.1208
 2645W        W16059   3.990  14.388   1.176  0.1132 -0.3476 -0.1809
 2646W        W16060   3.098   3.994   5.987 -0.2326  0.0269 -0.1156
 2647W        W16061  11.412  12.940  10.281 -0.0908  0.0167 -0.2160
 2648W        W16062   4.648   2.261   2.153 -0.0245 -0.1686 -0.2056
 2649W        W16063   0.160  15.882  11.321 -0.0262  0.0149 -0.1652
 2650W        W16064  13.970  16.266  10.910  0.0641 -0.1743 -0.0565
 2651W        W16065   2.359   3.641   0.911  0.0598  0.5681  0.2974
 2652W        W16066  17.132   3.875   5.529  0.1762 -0.1831 -0.0814
 2653W        W16067  14.128   1.451  13.139  0.2619 -0.0811  0.1887
 2654W        W16068  16.169   1.830   4.728 -0.2760  0.0365 -0.0860
 2655W        W16069   2.844   2.657   3.235  0.1421  0.2012  0.1130
 2656W        W16070  12.639  12.272  14.398 -0.1428  0.1148 -0.0855
 2657W        W16071  17.137   2.985   1.598  0.1499  0.1557 -0.2128
 2658W        W16072  11.278  13.179   5.346 -0.2030  0.0864  0.0280
 2659W        W16073  18.148   1.159  13.146 -0.0648 -0.0110  0.0326
 2660W        W16074  15.454  14.716   1.793  0.1543  0.0522  0.1716
 2661W        W16075  17.408   9.074  12.126  0.1722 -0.0449  0.1621
 2662W        W16076   3.661   0.213   1.700  0.1109 -0.2094  0.1496
 2663W        W16077   5.502  12.131  11.647 -0.4947  0.1679  0.1578
 2664W        W16078  17.341  13.117  15.029  0.0318  0.0885  0.0756
 2665W        W16079   4.302  13.718  15.920  0.0227 -0.0023 -0.1927
 2666W        W16080   4.200   5.558  12.464 -0.0920  0.2073  0.2342
 2667W        W16081   8.827   1.429  13.608  0.1958 -0.2736 -0.1680
 2668W        W16082  18.218   0.848  13.758  0.1500  0.0536  0.1189
 2669W        W16083  14.975   4.045   2.589  0.2208  0.0787  0.2938
 2670W        W16084   9.480  17.732  15.342  0.2011  0.2675  0.1270
 2671W        W16085   5.046  16.862   4.874  0.0444 -0.0418 -0.1135
 2672W        W16086  15.167  17.147   2.837  0.1793  0.1372 -0.0001
 2673W        W16087   4.361   9.692  14.909  0.4452 -0.0499  0.1812
 2674W        W16088   4.256   2.411  14.603 -0.3005  0.2772  0.1900
 2675W        W16089   5.925   8.733  14.546 -0.2015  0.0272 -0.0025
 2676W        W16090   4.482   3.920   2.267 -0.1166 -0.3303 -0.1115
 2677W        W16091   6.847   9.135   4.422  0.2385 -0.1997 -0.0468
 2678W        W16092   8.281  17.628  10.891  0.2570 -0.0212 -0.2935
 2679W        W16093  16.346   5.679   0.766 -0.0830 -0.1378 -0.4309
 2680W        W16094  10.206  15.401  16.421  0.0800  0.4386  0.1060
 2681W        W16095   7.674   1.656  15.783  0.0006  0.1528 -0.0536
 2682W        W16096  18.036   9.908   3.142 -0.0010 -0.0075 -0.2121
 2683W        W16097  12.265  13.890  16.247  0.0555  0.0517 -0.0205
 2684W        W16098   3.725   7.879   0.261  0.0131  0.1175  0.0281
 2685W        W16099  10.204   6.942   6.131  0.4322 -0.4239 -0.1656
 2686W        W16100   6.134  12.487  15.397 -0.2111  0.0131  0.0619
 2687W        W16101  16.226  13.172  14.851  0.1908 -0.1046 -0.3046
 2688W        W16102  16.080   5.877  11.740  0.1060  0.2136  0.0973
 2689W        W16103   4.317   5.373   1.422 -0.0155  0.2119 -0.0149
 2690W        W16104   6.798  12.657   1.369 -0.1883  0.2077  0.1664
 2691W        W16105   4.916  14.614  15.495 -0.0918 -0.0251 -0.1630
 2692W        W16106   3.079  11.539  15.064 -0.0887  0.0033  0.0742
 2693W        W16107   9.300   7.251   2.544 -0.3335 -0.4201 -0.0210
 2694W        W16108  15.456   8.497   0.538 -0.0405  0.1315  0.0898
 2695W        W16109   9.300  17.182   5.129 -0.2935 -0.1269 -0.0833
 2696W        W16110   8.245   6.370   1.847  0.1464 -0.0237  0.3669
 2697W        W16111   6.268   2.734  16.082  0.0837 -0.0723 -0.0871
 2698W        W16112  15.044  14.559  11.532 -0.1525  0.0003 -0.4278
 2699W        W16113  11.648  12.665   0.839 -0.0060 -0.3753  0.0301
 2700W        W16114   8.640  17.293   4.597 -0.0679 -0.0673  0.0375
 2701W        W16115   6.987  15.982  13.702  0.2158 -0.1119 -0.1392
 2702W        W16116   2.938   2.410  14.433 -0.0245  0.1610 -0.5171
 2703W        W16117   7.703   4.627  11.069 -0.2550  0.1901  0.4988
 2704W        W16118   1.151   9.021   5.503  0.1039  0.1139 -0.0241
 2705W        W16119  17.520   4.450   4.382  0.1204 -0.2673 -0.0115
 2706W        W16120   6.269   5.555   2.446  0.0183  0.0703 -0.2161
 2707W        W16121  10.086   3.609   5.997  0.1611  0.3797 -0.1000
 2708W        W16122   7.003  17.508  13.171 -0.0061 -0.1617 -0.0308
 2709W        W16123   1.279   3.586   1.961 -0.0803 -0.2423  0.0929
 2710W        W16124   6.545   7.132   0.933 -0.0227  0.1452  0.0949
 2711W        W16125   3.175   1.477   5.397  0.0430 -0.0679 -0.0419
 2712W        W16126   4.099   2.760   1.997 -0.1898  0.3376 -0.1703
 2713W        W16127   9.250   8.877   5.913 -0.2736 -0.0089  0.0744
 2714W        W16128   9.460   2.477  11.911  0.4134  0.0458  0.0124
 2715W        W16129   8.507  15.689  10.321 -0.1963  0.0614  0.0840
 2716W        W16130   0.952  16.770   2.974 -0.0950  0.0505  0.0946
 2717W        W16131   8.386  16.576   4.026 -0.2835 -0.1823 -0.0704
 2718W        W16132   3.682  17.540  10.553  0.1761 -0.3286  0.0817
 2719W        W16133  15.334  16.525  13.253 -0.1289  0.4784 -0.3359
 2720W        W16134  10.993  17.773   4.768  0.0000  0.2034  0.0580
 2721W        W16135   0.393   4.929  11.552 -0.1400  0.2007 -0.2951
 2722W        W16136   5.576  11.745  15.568  0.3273  0.0925 -0.1888
 2723W        W16137   3.140  17.591  16.065  0.1844 -0.0353  0.1764
 2724W        W16138   7.738   2.536   4.004 -0.0026 -0.3327 -0.1079
 2725W        W16139  10.013   0.351   4.446 -0.3362  0.0915  0.5866
 2726W        W16140  15.280   9.900  12.305 -0.1055 -0.2223  0.0323
 2727W        W16141   9.891  10.749  14.286  0.0791  0.0102 -0.0672
 2728W        W16142   2.317   9.046   3.974  0.1552  0.2176  0.0347
 2729W        W16143   2.006  17.410   4.776  0.0990 -0.1824 -0.5372
 2730W        W16144  14.491   1.893  11.157  0.1206  0.0078 -0.0653
 2731W        W16145   5.756   5.186  15.381 -0.0660  0.0365  0.1688
 2732W        W16146   7.965   2.530   9.697  0.1324  0.0001 -0.1324
 2733W        W16147   1.949  10.191  16.455  0.0865 -0.0604  0.0292
 2734W        W16148   0.721  16.255  13.239  0.0707  0.1455  0.2575
 2735W        W16149   4.713  12.055  14.620 -0.0205 -0.0550  0.0572
 2736W        W16150   5.696   4.766   2.554 -0.1919 -0.4294  0.3571
 2737W        W16151  17.881  14.411   0.181 -0.0344  0.0894  0.1446
 2738W        W16152   9.603  18.181   9.782  0.1547  0.1420  0.4865
 2739W        W16153  12.675   6.511   1.795 -0.0367  0.0266  0.0130
 2740W        W16154  10.327  13.033  10.851 -0.0820  0.1076 -0.1457
 2741W        W16155  12.401  11.507  13.910  0.0117 -0.2910 -0.0125
 2742W        W16156  10.780   9.122   0.813  0.0661 -0.1762  0.0466
 2743W        W16157   3.930   7.934   6.751  0.0816 -0.4047  0.1902
 2744W        W16158   3.439  10.488   3.260  0.1485 -0.0516  0.1035
 2745W        W16159  15.607  11.749   4.009  0.1158  0.2204 -0.0585
 2746W        W16160  11.903   0.594  15.331 -0.0379  0.0908 -0.0647
 2747W        W16161   6.432   8.213  13.354 -0.1318  0.2559 -0.1031
 2748W        W16162  11.849  12.847   1.826  0.0154 -0.0267 -0.0561
 2749W        W16163   4.032  11.947   3.951 -0.3079 -0.0588  0.2872
 2750W        W16164   3.174  13.560  15.338 -0.0270 -0.1188  0.0568
 2751W        W16165  18.114   8.578   0.545 -0.1303  0.0621 -0.0726
 2752W        W16166  10.608  16.171   2.872 -0.1379  0.0990 -0.1904
 2753W        W16167  13.297  10.314  11.892 -0.0090 -0.1381 -0.3229
 2754W        W16168   4.243   2.964   2.437  0.1276  0.1696 -0.3992
 2755W        W16169   0.062  11.753  10.838 -0.2910 -0.1093  0.0255
 2756W        W16170  12.575  11.071  15.756 -0.1144 -0.2317 -0.2842
 2757W        W16171  12.243  15.407   0.728  0.1260  0.4478  0.0328
 2758W        W16172  17.841  11.534   6.019  0.0261  0.0206 -0.2917
 2759W        W16173  14.730   7.026  13.406  0.1020 -0.1316 -0.1521
 2760W        W16174   5.072  13.278   4.950 -0.2255 -0.0178  0.0708
 2761W        W16175  12.950   2.035  14.929 -0.2993  0.0292 -0.1386
 2762W        W16176   8.128  12.109  15.700 -0.3764  0.0786  0.1391
 2763W        W16177  15.820  17.063   4.561 -0.0438 -0.4953  0.0396
 2764W        W16178   0.911   5.205   4.768 -0.0070  0.0758 -0.0058
 2765W        W16179  14.461  17.746   3.538 -0.1551 -0.2324 -0.1591
 2766W        W16180  15.256  11.951  11.512  0.3829  0.0553 -0.0138
 2767W        W16181   4.814  12.999  13.711 -0.0488  0.2244  0.1430
 2768W        W16182   9.737  14.713   0.218 -0.0766  0.3730 -0.1861
 2769W        W16183  15.632   0.881  14.942 -0.3450 -0.0804 -0.1178
 2770W        W16184  12.943   3.192   4.213  0.1101 -0.0321  0.3996
 2771W        W16185   4.037   7.949  11.490 -0.0654  0.2337 -0.0678
 2772W        W16186   6.195   2.550   1.412  0.1663 -0.0403  0.2688
 2773W        W16187   9.149   1.212  15.442 -0.2256 -0.0364 -0.1802
 2774W        W16188  17.458  14.838   4.787  0.1472 -0.0948 -0.1123
 2775W        W16189   1.387  12.000   3.466 -0.1355 -0.0882 -0.2529
 2776W        W16190   3.998  11.756  13.840  0.0700  0.0046 -0.1093
 2777W        W16191   4.807   2.239   6.651 -0.1335 -0.3076 -0.3070
 2778W        W16192   3.958   2.036   1.492  0.0663  0.3072  0.0456
 2779W        W16193  17.500   7.551   4.152  0.2643 -0.0068 -0.1339
 2780W        W16194   2.166  17.855   5.676  0.0041 -0.3044 -0.1868
 2781W        W16195  11.256  13.263  14.402 -0.0138  0.0543  0.4534
 2782W        W16196  17.904  11.816  16.422 -0.3934  0.1234  0.0308
 2783W        W16197   3.421  15.632  10.094  0.1146  0.1427  0.2458
 2784W        W16198  13.623   6.039   5.662 -0.0802  0.0233 -0.1242
 2785W        W16199  14.840  16.629  14.786 -0.1768 -0.1169 -0.0838
 2786W        W16200  12.591   6.042  13.333  0.3947  0.0491 -0.4016
 2787W        W16201   6.583  15.651   5.999 -0.1549  0.1187  0.0737
 2788W        W16202   1.201  10.879  14.700 -0.0397 -0.0273 -0.0293
 2789W        W16203  11.022   1.947  10.908 -0.3197 -0.1206 -0.2670
 2790W        W16204   5.582  16.099  16.470  0.1222  0.0944  0.0485
 2791W        W16205   3.737  11.336   2.224 -0.1236  0.2145  0.0359
 2792W        W16206  13.964   7.525  12.525 -0.0338  0.1224  0.4053
 2793W        W16207   5.516   8.428   4.519  0.1010  0.1083  0.0929
 2794W        W16208   1.349   5.836  13.760  0.2936  0.1115  0.2199
 2795W        W16209  13.137  17.660   3.243  0.0787  0.1746 -0.1162
 2796W        W16210  16.728   8.076   2.642  0.3255 -0.1532 -0.2355
 2797W        W16211   2.912  17.802  13.159 -0.2405 -0.0232 -0.0721
 2798W        W16212   9.753   8.278   0.694  0.3398 -0.0592 -0.3506
 2799W        W16213   6.621   5.746   1.244  0.0583 -0.3163  0.4584
 2800W        W16214   9.944   8.259   4.305  0.0490  0.2079 -0.0197
 2801W        W16215   0.398   6.864   1.168  0.0347  0.1762  0.1171
 2802W        W16216  10.713   1.110   5.305 -0.1311 -0.0825 -0.0214
 2803W        W16217  12.948  10.638   5.065  0.2569 -0.0165 -0.1005
 2804W        W16218   4.633  13.575   0.041  0.1721 -0.2603  0.1109
 2805W        W16219  17.078  10.121   2.677 -0.2090  0.3170 -0.2446
 2806W        W16220   7.228   0.664  11.599  0.0201  0.3078  0.1587
 2807W        W16221   5.189  16.813   3.280 -0.2916  0.2154  0.1917
 2808W        W16222  15.913  13.201  12.340  0.1536  0.1466  0.3525
 2809W        W16223   5.549  11.930  10.600 -0.1050  0.0237 -0.0407
 2810W        W16224  14.040  12.977  12.124 -0.0898  0.0409 -0.0668
 2811W        W16225   8.024   5.300   0.067 -0.1676  0.2467  0.2065
 2812W        W16226  15.454   7.620   1.336  0.1720  0.1290 -0.2725
 2813W        W16227  14.567   3.193  11.763 -0.0044 -0.0987  0.0940
 2814W        W16228  16.083   8.456  16.071 -0.0798 -0.3657  0.0722
 2815W        W16229   5.858   9.907  12.582 -0.1144 -0.0988  0.0691
 2816W        W16230  14.059   9.991   4.312  0.0836  0.1188 -0.1743
 2817W        W16231   7.503  12.018  13.859  0.1124  0.4051  0.2749
 2818W        W16232   6.742  15.907   2.553  0.0619 -0.1514 -0.1555
 2819W        W16233   9.648   9.559  13.796 -0.0428 -0.0458  0.1444
 2820W        W16234  15.270   1.377  11.992 -0.0395  0.1940  0.1571
 2821W        W16235   8.914  16.547  16.149  0.2608 -0.0470 -0.0054
 2822W        W16236   3.599  13.530  12.214  0.1054 -0.0581  0.2272
 2823W        W16237   1.426   9.344   3.018  0.2322 -0.0223  0.0787
 2824W        W16238   6.218  14.079  14.621  0.1144  0.1410 -0.3556
 2825W        W16239  14.469  13.704  11.213  0.1067  0.1016  0.0356
 2826W        W16240   2.376  14.780  10.559  0.1261  0.0158  0.2423
 2827W        W16241   3.279  15.066  15.420 -0.2284 -0.0994 -0.0626
 2828W        W16242   5.973   5.156  12.599  0.1363  0.1150  0.0585
 2829W        W16243   4.503   7.754   1.832  0.1657  0.2254  0.0413
 2830W        W16244   1.394  15.235   0.662  0.1780  0.2643  0.0201
 2831W        W16245  16.485  13.148  12.430 -0.2266  0.2700  0.1908
 2832W        W16246   6.444   1.562  14.225 -0.0731  0.4049  0.1590
 2833W        W16247   3.421  14.128   1.194  0.1247 -0.1446 -0.0034
 2834W        W16248  12.321  14.036  11.245 -0.1310 -0.0794 -0.0165
 2835W        W16249   7.210   8.990   3.127 -0.0220 -0.2102 -0.2940
 2836W        W16250  10.755   1.955  13.634 -0.1881 -0.1510 -0.0239
 2837W        W16251  16.425   9.606   3.792  0.0269 -0.0081  0.0277
 2838W        W16252   9.586   5.178  11.047  0.0166  0.0097  0.2766
 2839W        W16253  15.453  11.462   6.393 -0.2939  0.2595 -0.2652
 2840W        W16254   7.928   5.033  14.633  0.1156 -0.1042  0.1262
 2841W        W16255   9.516   2.570  10.427 -0.0716 -0.0284 -0.0928
 2842W        W16256   3.930  14.032  12.213  0.1858  0.1633 -0.0560
 2843W        W16257   5.566  10.466  12.114  0.1721 -0.0037  0.0911
 2844W        W16258   9.237  17.966   2.925  0.4806 -0.0177 -0.1762
 2845W        W16259   2.875  12.231   0.158 -0.0848  0.0171 -0.2375
 2846W        W16260   9.566  13.926   3.497  0.3578  0.2245  0.3819
 2847W        W16261  10.566  17.116  12.028 -0.0779  0.3659 -0.2501
 2848W        W16262   8.091   7.122  15.949 -0.3152  0.2286  0.0702
 2849W        W16263  14.255  15.885   3.725  0.1374  0.1509  0.3795
 2850W        W16264   1.057   7.103  16.526 -0.1856  0.0882 -0.1442
 2851W        W16265   5.823   0.837   2.313  0.3969 -0.0089  0.1002
 2852W        W16266   8.308   9.566  15.183  0.0851  0.0964  0.0821
 2853W        W16267   3.251  13.687  16.238 -0.1773  0.2909  0.0640
 2854W        W16268   2.213   1.898  16.518 -0.0007 -0.1899 -0.0722
 2855W        W16269  11.546  11.617   2.722  0.0328 -0.0250  0.0505
 2856W        W16270   4.649  10.064  16.195 -0.0428  0.0876 -0.1866
 2857W        W16271   9.194  16.572   2.720 -0.0312  0.1233 -0.2327
 2858W        W16272   6.762   8.936  11.602  0.1206 -0.1028  0.1645
 2859W        W16273   0.214   1.371  13.574 -0.4137  0.0710  0.0132
 2860W        W16274  14.390  15.156  12.990  0.0179 -0.3279  0.0678
 2861W        W16275   7.183  15.319   9.983  0.2026 -0.0376 -0.1688
 2862W        W16276  10.505   1.816  10.167 -0.0513 -0.0082 -0.0104
 2863W        W16277   9.206  13.068  13.767  0.3227 -0.1209  0.0913
 2864W        W16278  14.684  14.760   5.770 -0.2249 -0.0129  0.0371
 2865W        W16279   8.032   2.911   3.185  0.0288  0.3123  0.3503
 2866W        W16280  18.021  16.412   5.440  0.0463  0.1827 -0.4344
 2867W        W16281  17.798  17.701   2.493  0.0637 -0.2341 -0.0266
 2868W        W16282   2.890   4.724   3.561  0.1281 -0.0452  0.3786
 2869W        W16283  17.567  13.071   4.806 -0.2162 -0.1569  0.0781
 2870W        W16284  10.659  17.031   0.502 -0.0728  0.1781  0.0521
 2871W        W16285  11.572   8.109   2.575  0.2780 -0.1096 -0.0388
 2872W        W16286   1.888   6.768   3.229 -0.2339  0.0615  0.0492
 2873W        W16287  13.193  11.621  10.954 -0.1270  0.1788 -0.0977
 2874W        W16288  13.314   2.861   4.967  0.1601  0.1238  0.2010
 2875W        W16289   6.016  15.589   5.123 -0.0809 -0.0774  0.0217
 2876W        W16290   2.109  13.778  12.058  0.5671 -0.0117  0.3242
 2877W        W16291   2.129   7.969  13.706  0.1136  0.1806  0.2171
 2878W        W16292   7.291  18.031   0.788 -0.2889  0.0272 -0.2286
 2879W        W16293  13.068  11.182   3.630  0.1159 -0.1266 -0.1719
 2880W        W16294   7.097   8.530  12.752 -0.1304  0.1799  0.1358
 2881W        W16295   5.357  16.625  15.576 -0.0286  0.1622  0.1241
 2882W        W16296   8.099  12.251   3.823  0.0068 -0.1140  0.1912
 2883W        W16297  17.955   3.914   1.164 -0.1144  0.0179  0.2006
 2884W        W16298   3.662   8.378   0.964  0.0729  0.0459 -0.0715
 2885W        W16299   0.346  10.376  14.801 -0.1125  0.0321 -0.3148
 2886W        W16300   6.281   1.708  15.163 -0.1241  0.0525 -0.0702
 2887W        W16301  10.394   4.928  15.156  0.2881  0.2635  0.1035
 2888W        W16302  12.458  11.147   2.720 -0.0630 -0.2915  0.0368
 2889W        W16303  13.165   0.268  12.095  0.1035  0.1499  0.3030
 2890W        W16304   2.445   2.810  15.328  0.1940  0.3345 -0.0844
 2891W        W16305  16.843   9.392   0.956 -0.1161 -0.1521 -0.0133
 2892W        W16306  15.496  17.002  16.444  0.1662 -0.2455 -0.2597
 2893W        W16307  11.392   9.154   4.086  0.1052  0.2374 -0.1429
 2894W        W16308  18.040  11.052  12.301  0.0769 -0.0084 -0.3596
 2895W        W16309  15.625   2.457   0.157 -0.2915  0.2779  0.2367
 2896W        W16310   3.158   3.712   4.690  0.0183 -0.2811 -0.0212
 2897W        W16311   3.185  10.105  11.442 -0.0528 -0.1498  0.2216
 2898W        W16312   3.479   1.607  10.802  0.2202 -0.4633 -0.0165
 2899W        W16313   6.957   7.127   2.272 -0.1189  0.1985 -0.1605
 2900W        W16314   1.392  16.155  15.168 -0.3870 -0.3795 -0.1050
 2901W        W16315   6.545   8.089  12.148 -0.3043 -0.0130  0.0470
 2902W        W16316   3.135   9.809   6.287  0.0320  0.0078 -0.3607
 2903W        W16317  17.210  18.100  10.539  0.1162 -0.1873 -0.5647
 2904W        W16318   4.586  12.868   0.681 -0.1958 -0.0858 -0.1032
 2905W        W16319   6.422  12.984   6.246  0.2041  0.0010 -0.0602
 2906W        W16320   8.354  13.513  15.677  0.0411  0.1411  0.0050
 2907W        W16321   6.560   6.277   0.648 -0.1422  0.1702 -0.3573
 2908W        W16322   3.404  14.629   4.960 -0.2188  0.3450  0.3246
 2909W        W16323  12.789   2.128  11.169  0.1703 -0.3538  0.0343
 2910W        W16324  16.907  18.007  14.574  0.1935  0.1320 -0.0932
 2911W        W16325   3.197   7.470  13.358 -0.1779  0.0036 -0.0151
 2912W        W16326   9.127  13.232   0.164  0.2572  0.3029 -0.2037
 2913W        W16327  17.509   1.541   3.920 -0.3415  0.0579  0.3718
 2914W        W16328  12.301   1.618  13.729 -0.4683  0.0795 -0.1589
 2915W        W16329   1.233   2.600  15.005  0.2988  0.0672  0.0164
 2916W        W16330   6.288  12.056   5.666 -0.0663  0.2903  0.2100
 2917W        W16331   3.450   3.971  13.621  0.2181  0.0691 -0.1483
 2918W        W16332   8.702   0.601   4.804  0.2488 -0.0152 -0.1785
 2919W        W16333   4.695  13.064   1.999  0.0873  0.2754  0.1249
 2920W        W16334  10.133  15.077  15.921  0.0091 -0.3755  0.0872
 2921W        W16335  17.418   6.006   4.627 -0.0042  0.2587 -0.2405
 2922W        W16336   6.360   8.499  12.911  0.1604  0.2063 -0.0857
 2923W        W16337   6.203  16.918   5.683  0.2850 -0.1925  0.1562
 2924W        W16338   7.611   5.080   0.215  0.0468 -0.0185 -0.2115
 2925W        W16339   9.286   8.862  14.805 -0.3388 -0.1546 -0.2037
 2926W        W16340  15.623  14.448  14.453 -0.1082  0.3011  0.0888
 2927W        W16341   7.453   5.512   2.763 -0.1627 -0.0850 -0.4914
 2928W        W16342   6.651  12.449   2.894 -0.1608 -0.4509 -0.1672
 2929W        W16343  15.529   1.767   5.540 -0.0030 -0.1819  0.0230
 2930W        W16344  14.277  15.838  11.070  0.1707 -0.2381  0.0802
 2931W        W16345  10.330  17.859   0.842 -0.1505 -0.0234  0.0531
 2932W        W16346  13.626   6.093  15.103 -0.1227  0.0660  0.3907
 2933W        W16347  12.797   3.853  14.926 -0.1105 -0.0005 -0.2180
 2934W        W16348  12.587   6.948   0.135  0.1812  0.2817  0.2024
 2935W        W16349  12.971  12.747   6.173 -0.1956 -0.0802  0.2113
 2936W        W16350  14.079   8.251  10.444 -0.2150  0.1232 -0.0171
 2937W        W16351  11.595  11.792  10.233  0.0797 -0.0858 -0.2215
 2938W        W16352  16.031   6.398  15.368 -0.2874 -0.0868 -0.1433
 2939W        W16353   6.601   7.481   2.327 -0.1958 -0.0473  0.2197
 2940W        W16354   2.384  15.961   1.558 -0.0663 -0.1695  0.0898
 2941W        W16355  18.132  10.625   3.474 -0.0053  0.1279  0.2553
 2942W        W16356  17.851   6.940   6.280 -0.1091 -0.1656  0.0205
 2943W        W16357   3.026  11.208   5.333  0.1058 -0.4199  0.2642
 2944W        W16358   6.283   3.788  13.454  0.3601  0.0335  0.1830
 2945W        W16359   5.573  15.162   4.526  0.0020 -0.2722 -0.0963
 2946W        W16360  14.597   2.616   3.378 -0.0881 -0.1473  0.2983
 2947W        W16361  10.740  17.586  10.007  0.2236 -0.0339  0.0213
 2948W        W16362  13.200   9.251   5.317 -0.2000 -0.1137 -0.0925
 2949W        W16363   7.780   3.798   2.638  0.2001 -0.0295  0.0588
 2950W        W16364  17.885   1.695  10.973  0.0982 -0.1263 -0.0824
 2951W        W16365  10.745   0.058  13.091  0.1559  0.3187  0.1588
 2952W        W16366   2.453   7.648   0.497  0.0463  0.1462  0.0179
 2953W        W16367   6.954   0.959  10.480  0.0180 -0.0520 -0.1636
 2954W        W16368   8.270  12.784  15.130  0.0965 -0.3754  0.0565
 2955W        W16369  13.249  16.329   0.727 -0.0923 -0.3019  0.1391
 2956W        W16370   1.413   5.726   1.495 -0.1998  0.1308 -0.0730
 2957W        W16371   9.972  15.396   4.865  0.1295  0.1902 -0.0202
 2958W        W16372   9.925   3.916   3.552 -0.1355 -0.0155 -0.1282
 2959W        W16373   7.063   3.763   0.037  0.2136 -0.1053 -0.0259
 2960W        W16374   9.081   5.380  15.944  0.3634 -0.2711  0.0630
 2961W        W16375  13.323   5.721  15.354  0.0324 -0.0655  0.2009
 2962W        W16376  15.877  10.606  15.288  0.1488 -0.0038  0.1057
 2963W        W16377  10.542  14.460  13.879 -0.3288 -0.3186  0.0373
 2964W        W16378   3.683   1.998   3.778 -0.0146 -0.3440  0.1175
 2965W        W16379   6.295  11.988  10.931 -0.0886 -0.1868  0.0874
 2966W        W16380   9.408   9.426   3.919  0.0187 -0.0015 -0.0902
 2967W        W16381   6.380   2.451   3.526 -0.1372  0.3247 -0.1116
 2968W        W16382  10.179   9.743  13.256  0.2272  0.1340  0.1080
 2969W        W16383   9.935  10.077  13.004  0.1210  0.1043  0.1043
 2970W        W16384   9.866  13.100   4.724 -0.0964 -0.0202  0.1146
 2971W        W16385   7.081   8.144   4.396 -0.0804 -0.0847  0.0547
 2972W        W16386   9.544  13.015   4.405  0.1581 -0.1386 -0.1320
 2973W        W16387   5.850   7.796  12.258  0.1636  0.1545  0.0608
 2974W        W16388   2.746   7.673   1.896  0.1503  0.2073 -0.0719
 2975W        W16389  13.106  13.158  13.259  0.2663 -0.0787  0.1716
 2976W        W16390  15.188   7.726   1.813  0.2830 -0.3028 -0.1690
 2977W        W16391  13.961   4.377  13.496  0.1034  0.3514  0.1730
 2978W        W16392  18.016  13.684   6.377  0.0992 -0.0327 -0.0630
 2979W        W16393   3.762   1.045   5.170  0.1127 -0.2881 -0.0765
 2980W        W16394   0.602  11.709  13.569  0.2411  0.1406  0.3335
 2981W        W16395  16.198  12.330   1.028  0.0783 -0.0094  0.1204
 2982W        W16396   0.074   3.039   1.942  0.1108  0.2278 -0.0197
 2983W        W16397  13.156   7.477   6.506 -0.1615 -0.2198  0.1319
 2984W        W16398  14.709  12.125  10.756 -0.1362 -0.1821  0.0905
 2985W        W16399   1.535   6.429  13.566  0.2130 -0.1683 -0.1552
 2986W        W16400   2.535  15.926  13.856 -0.2719  0.2396  0.1910
 2987W        W16401   8.338   5.974   5.440 -0.0218  0.2050  0.0337
 2988W        W16402  10.333   3.759   1.298 -0.2054  0.0755 -0.0942
 2989W        W16403  12.098   2.258   3.567  0.0326  0.0209 -0.0193
 2990W        W16404   4.504   2.919   0.453 -0.2287 -0.0712  0.2409
 2991W        W16405  14.912   1.725   2.434  0.2404 -0.2368  0.4889
 2992W        W16406   2.304  15.146   4.616 -0.2549  0.0447 -0.0582
 2993W        W16407   6.339   8.440   4.012 -0.0736 -0.0286  0.0975
 2994W        W16408   4.122   0.447  10.328 -0.1238  0.3592  0.0364
 2995W        W16409  18.164   2.617  14.258  0.0278 -0.1147 -0.0744
 2996W        W16410   8.161  10.591  15.255 -0.2458 -0.1687  0.2664
 2997W        W16411   9.876  12.887  10.899 -0.0183 -0.1845 -0.0498
 2998W        W16412  17.661  10.950  13.658 -0.0118  0.3305  0.0299
 2999W        W16413  15.432   1.479   0.051 -0.2946 -0.0459 -0.3096
 3000W        W16414  11.446  16.398   3.293  0.1199 -0.4227  0.0256
 3001W        W16415  12.022  10.423   5.648 -0.2557 -0.4988  0.0949
 3002W        W16416   7.320  11.027  13.712 -0.3151  0.1808 -0.1978
 3003W        W16417   6.672   1.503  10.515 -0.0749  0.1628  0.3441
 3004W        W16418  11.254  16.629   2.362 -0.3780 -0.1549  0.0329
 3005W        W16419  17.261  17.390   4.154  0.0442  0.1280  0.3004
 3006W        W16420  13.874   2.009   4.631 -0.2172  0.0147 -0.3238
 3007W        W16421   6.966   1.590  11.193 -0.1730 -0.0859 -0.0485
 3008W        W16422   3.120  12.035   1.278  0.3788  0.0659 -0.0774
 3009W        W16423   4.561  18.158   1.663 -0.0617 -0.1862 -0.0375
 3010W        W16424  16.435   3.963   4.279  0.0839  0.0441 -0.3244
 3011W        W16425  16.269   7.802  14.381  0.1222 -0.1738 -0.1841
 3012W        W16426   1.337  17.202   0.883 -0.0226  0.1703  0.0503
 3013W        W16427  11.757   1.881   5.875  0.1129 -0.2495 -0.0062
 3014W        W16428  17.052  17.822  13.234  0.0706 -0.3902  0.0671
 3015W        W16429   8.874  16.450   4.153  0.2140  0.1747 -0.0892
 3016W        W16430   3.845  16.420   4.007 -0.0659  0.3782 -0.2676
 3017W        W16431   7.234  15.421   3.168 -0.2330 -0.1534 -0.0734
 3018W        W16432   0.658  13.453   1.786  0.1955  0.0749 -0.0755
 3019W        W16433   6.814  10.664  11.843  0.0499 -0.1239 -0.0423
 3020W        W16434   1.239  12.023   2.329 -0.0092  0.1116  0.0339
 3021W        W16435   3.276  10.666  15.779 -0.0165  0.2077  0.0290
 3022W        W16436   4.036   6.245  16.243  0.0171  0.1582 -0.2226
 3023W        W16437   4.319  17.418   1.454 -0.2113  0.3275 -0.0965
 3024W        W16438   6.830   3.342  13.919  0.0263  0.0081  0.0607
 3025W        W16439   5.472  17.745   1.342  0.3649 -0.1035  0.0616
 3026W        W16440   9.140  16.303  14.725  0.1051  0.0154  0.0816
 3027W        W16441  10.581  15.311   0.324 -0.3326 -0.0054  0.2716
 3028W        W16442  15.911   1.054   4.406  0.1425  0.1624 -0.0483
 3029W        W16443   3.507   1.573   4.619 -0.0507  0.0463 -0.1716
 3030W        W16444  13.894   4.629   2.198  0.0304  0.1867 -0.2001
 3031W        W16445   8.989  14.178  15.155  0.1010  0.1401  0.0084
 3032W        W16446  16.568  11.501   1.270  0.4157  0.1613  0.0995
 3033W        W16447   0.606  14.009   0.213 -0.1393 -0.0718 -0.0049
 3034W        W16448   1.834   8.439  12.888 -0.1035 -0.0284  0.1754
 3035W        W16449   2.765  11.756  14.601 -0.1051  0.0246 -0.2140
 3036W        W16450   5.398   6.567  11.789  0.1780 -0.1854 -0.5361
 3037W        W16451  16.974   1.471   1.657 -0.2336 -0.1901 -0.0272
 3038W        W16452   3.772  17.321   0.317  0.2628  0.1601  0.5587
 3039W        W16453   8.529  16.117  16.387  0.2467  0.1249 -0.0824
 3040W        W16454  15.299  16.087  11.184  0.1544  0.3904 -0.1135
 3041W        W16455  16.852   1.730   5.939  0.0819 -0.1118  0.4472
 3042W        W16456   0.032   9.619  15.790 -0.0563  0.2822 -0.1186
 3043W        W16457  10.216  14.130   0.091  0.0774  0.2111  0.1152
 3044W        W16458   4.555   8.678   4.183 -0.0300 -0.1068  0.1178
 3045W        W16459  16.510   5.048  12.480  0.1598 -0.4513  0.2256
 3046W        W16460   7.455   3.529   3.736  0.0027  0.0028 -0.1658
 3047W        W16461  12.507   6.077  16.525  0.2233 -0.0043 -0.1672
 3048W        W16462  12.346  10.636   0.441 -0.1974 -0.1715  0.0017
 3049W        W16463   3.898   3.542  15.985 -0.1033 -0.3652  0.0682
 3050W        W16464   8.739  14.706  11.221 -0.2024  0.0240  0.1890
 3051W        W16465  14.421   5.207  12.600  0.0065  0.1581 -0.0296
 3052W        W16466   9.090   6.551   0.338 -0.1950 -0.0609 -0.1679
 3053W        W16467   1.246   7.315  13.585 -0.0410 -0.1958  0.2325
 3054W        W16468   0.173   0.392   3.605  0.0203  0.1318 -0.1147
 3055W        W16469  11.998  17.368   2.534  0.0196 -0.1110 -0.1723
 3056W        W16470  13.393   9.301  12.874  0.2701  0.1532  0.2630
 3057W        W16471  17.388   8.282  13.816  0.3512  0.0962  0.4118
 3058W        W16472   7.295  14.147   3.046  0.1386  0.2496  0.0111
 3059W        W16473   4.005   1.498   1.477  0.1000 -0.0398 -0.0080
 3060W        W16474  17.412   8.647   3.817 -0.0080  0.2303 -0.2859
 3061W        W16475  10.382  14.658  13.004 -0.0926 -0.2752  0.1489
 3062W        W16476   5.743  16.378  13.730  0.4167  0.1401 -0.4176
 3063W        W16477   4.943   8.387  15.172 -0.0785  0.0820 -0.2135
 3064W        W16478  13.626   3.687  10.472  0.3114 -0.0836  0.1524
 3065W        W16479   9.459   9.303  13.416  0.2186  0.0998 -0.0085
 3066W        W16480   6.016  15.240  12.037 -0.0178 -0.1661 -0.1479
 3067W        W16481   1.564  16.205  13.300 -0.0997  0.1871  0.1008
 3068W        W16482   8.811  12.196   2.843  0.2298  0.2615 -0.0322
 3069W        W16483   1.717   2.610  12.447  0.0069  0.4724 -0.2100
 3070W        W16484  15.559   1.269   2.847  0.0310  0.0227  0.0790
 3071W        W16485   8.555   4.724   1.590  0.0790  0.0647  0.0260
 3072W        W16486  13.889  11.632   4.883 -0.4248 -0.1039  0.0038
 3073W        W16487   4.417   5.722  11.805 -0.0588  0.1721  0.1004
 3074W        W16488  11.867   9.924  15.086  0.0526 -0.0093  0.1314
 3075W        W16489   4.724   8.272   3.220 -0.0847 -0.3196 -0.1460
 3076W        W16490  11.764  10.212   1.938  0.0175  0.0836  0.1157
 3077W        W16491  11.284   6.015   2.957 -0.1364  0.2294  0.0712
 3078W        W16492  13.798  10.085  16.288  0.1208  0.0334 -0.1668
 3079W        W16493  17.785   2.841  13.942  0.1029 -0.0463  0.2446
 3080W        W16494   2.348   4.715   6.985  0.0652  0.4375  0.0104
 3081W        W16495  12.595  15.555  11.397  0.1246 -0.0454 -0.1473
 3082W        W16496   7.979   0.640  12.501  0.0561  0.0621 -0.0709
 3083W        W16497   2.735  15.111  10.312  0.1928 -0.1548 -0.1274
 3084W        W16498  14.650  16.742   4.182 -0.0782 -0.0000 -0.1892
 3085W        W16499   9.194   2.934  16.065  0.0154  0.0792 -0.0077
 3086W        W16500   5.728  11.704   6.256  0.1184  0.1641 -0.1430
 3087W        W16501   5.784  12.836   3.086 -0.2620 -0.1757 -0.1049
 3088W        W16502  14.005  13.608   5.682  0.3841 -0.2247  0.1149
 3089W        W16503   4.393   5.844  15.808 -0.1636  0.2236  0.0700
 3090W        W16504  15.911   1.490   5.425 -0.2238  0.0781  0.0688
 3091W        W16505  14.515  14.303   3.189 -0.1333  0.0720  0.2114
 3092W        W16506   3.330  17.558   3.835 -0.0515 -0.0553 -0.0930
 3093W        W16507   0.765   4.442   4.024 -0.0187 -0.0338 -0.1526
 3094W        W16508   2.151   1.425  14.732 -0.1312 -0.1211  0.1302
 3095W        W16509  10.268  12.625   0.640 -0.1366 -0.3122 -0.0113
 3096W        W16510   6.415   6.781  15.395 -0.2201  0.0973  0.0222
 3097W        W16511  15.594   3.678   1.164 -0.0415  0.4315 -0.3912
 3098W        W16512   0.226  13.767  16.491 -0.0569  0.0741  0.1922
 3099W        W16513  17.332  13.292   1.580  0.1363  0.2866 -0.0074
 3100W        W16514   3.509  14.000  13.326 -0.0531 -0.0848 -0.1810
 3101W        W16515  12.788  17.062  12.384 -0.0429 -0.2596  0.0713
 3102W        W16516   2.268   5.193   2.652  0.1859 -0.4056 -0.0085
 3103W        W16517  11.983  16.226   1.221 -0.0368  0.0839  0.0782
 3104W        W16518   3.049  11.773   5.872  0.1076  0.2917  0.3457
 3105W        W16519  17.204  17.889  11.045 -0.1158  0.2009  0.1754
 3106W        W16520   8.629   6.768   3.774 -0.2990 -0.2977  0.1767
 3107W        W16521   4.193   3.225   1.839  0.1175 -0.0637 -0.2563
 3108W        W16522   7.910   8.563  10.840  0.2343 -0.0587  0.1545
 3109W        W16523  18.030   2.431   4.887 -0.0440  0.4073 -0.1534
 3110W        W16524   7.893  14.847  12.461 -0.0704 -0.0059 -0.2604
 3111W        W16525  13.830   4.819   5.485  0.1417  0.2636  0.2056
 3112W        W16526   3.761  10.928   5.124 -0.2474  0.1941  0.2212
 3113W        W16527  11.571  10.638   4.525  0.0670  0.0351  0.0189
 3114W        W16528   8.439  16.025   1.614 -0.0832 -0.1398 -0.0033
 3115W        W16529   8.076   8.048   2.373  0.0767 -0.1294  0.0532
 3116W        W16530   7.929   2.281   3.143  0.0651  0.2065 -0.2176
 3117W        W16531   0.720  15.198  16.148 -0.0790 -0.2604  0.4264
 3118W        W16532  18.194   2.049   1.163  0.1792 -0.2272 -0.0053
 3119W        W16533  12.187  15.844  13.835  0.1728  0.2431 -0.0258
 3120W        W16534  12.339   1.203  14.045 -0.2151 -0.2235  0.0862
 3121W        W16535   4.490   0.923  12.690 -0.1453 -0.1174  0.2967
 3122W        W16536  11.285   4.918  10.573 -0.0342 -0.2886 -0.2466
 3123W        W16537  10.573   1.646  16.281  0.1126  0.1053 -0.0351
 3124W        W16538   1.952   0.958  11.101  0.0811 -0.0032 -0.1331
 3125W        W16539   2.705   3.682  11.244 -0.0891 -0.2415  0.0233
 3126W        W16540   8.702  13.139  13.960  0.0931 -0.1063  0.1241
 3127W        W16541   0.042  14.104   3.093  0.0773  0.1395  0.3436
 3128W        W16542   9.842  16.046  14.383  0.0678 -0.1536  0.0899
 3129W        W16543   4.928   5.657  14.229 -0.1063 -0.0462 -0.0027
 3130W        W16544  13.366   4.550  14.096 -0.1641 -0.2297  0.1544
 3131W        W16545  17.767   8.996   3.538 -0.1048  0.0033 -0.0076
 3132W        W16546   3.735   6.723   0.935  0.1055 -0.1500 -0.3195
 3133W        W16547  14.712   2.139   0.995 -0.1607 -0.0524 -0.0822
 3134W        W16548  11.657  16.790  10.463  0.1704 -0.1432  0.1843
 3135W        W16549  14.137   3.742   4.558  0.2577 -0.3206  0.1479
 3136W        W16550   7.362   9.237   3.596 -0.0575  0.0035  0.4236
 3137W        W16551  11.690  11.487   4.571 -0.2174 -0.0038 -0.1784
 3138W        W16552   5.261  16.518   1.884 -0.0848 -0.0091  0.1681
 3139W        W16553   4.335  10.584  12.607  0.0156 -0.1732 -0.3920
 3140W        W16554  18.069  17.196   1.069  0.0348  0.0780  0.1877
 3141W        W16555   4.287   8.814  14.061  0.0006  0.0213 -0.2484
 3142W        W16556  13.910   0.324  12.182  0.1036 -0.2381 -0.2973
 3143W        W16557   5.149   9.076  12.644  0.3296 -0.0820 -0.0900
 3144W        W16558   5.147   6.451   2.741 -0.1053  0.0353 -0.1090
 3145W        W16559  16.111   6.625  12.382  0.1949  0.1222  0.0763
 3146W        W16560   6.754   9.499   0.500 -0.1711 -0.0800  0.2626
 3147W        W16561   3.412   4.594  14.003  0.0625  0.0692 -0.3316
 3148W        W16562  10.035  15.604   3.261  0.1608 -0.3177  0.4410
 3149W        W16563   1.314   1.622   0.484  0.0055  0.0333  0.0589
 3150W        W16564  15.390  14.322  13.310 -0.0852  0.0837 -0.0376
 3151W        W16565   8.015   4.858   3.430 -0.1101  0.0674 -0.2566
 3152W        W16566   3.692  13.257   3.593  0.1120 -0.3010 -0.0968
 3153W        W16567   2.039   6.226   4.490 -0.1728  0.0354  0.1129
 3154W        W16568   5.548  17.785  10.312 -0.0622  0.2879 -0.0865
 3155W        W16569  15.528  12.754  14.291  0.1737  0.2185 -0.0554
 3156W        W16570   5.033   4.434  14.217 -0.0431  0.0745  0.3722
 3157W        W16571  16.801  12.481  10.850  0.0687  0.1471  0.1295
 3158W        W16572  17.332   9.015   0.483 -0.1949 -0.1220 -0.2872
 3159W        W16573  15.499   1.453   5.081  0.2177  0.2803  0.2451
 3160W        W16574   6.622  11.142  11.986  0.0855  0.1447  0.2219
 3161W        W16575   9.794   7.177  14.931  0.1141  0.1248 -0.0683
 3162W        W16576   7.533   4.753   3.910 -0.1612  0.0304  0.1380
 3163W        W16577  10.987  17.791   5.311  0.3971 -0.0504 -0.2600
 3164W        W16578   2.194   1.592  13.688  0.1564 -0.0923  0.0217
 3165W        W16579  14.182  16.888  16.093  0.0792 -0.0016 -0.3663
 3166W        W16580  14.036  10.643   4.143 -0.3245 -0.0320 -0.1746
 3167W        W16581  15.263   4.280  10.899 -0.0798  0.0723  0.3783
 3168W        W16582   1.133   0.380   4.883  0.1074  0.1734  0.0118
 3169W        W16583  13.034   4.268  15.803  0.0693  0.1226 -0.1050
 3170W        W16584   1.591   0.480  15.458 -0.0421  0.0261 -0.1848
 3171W        W16585   7.367   3.142   5.558  0.0798  0.0977 -0.1788
 3172W        W16586   2.985   2.394  12.051  0.0295  0.1325  0.3354
 3173W        W16587   4.219   0.790  11.033  0.3512 -0.1462  0.3641
 3174W        W16588  12.270   9.866   0.578  0.0759  0.3655 -0.0157
 3175W        W16589   3.116   9.339   6.211 -0.2459  0.2164 -0.2438
 3176W        W16590   7.746   6.153   3.087 -0.0191  0.0693  0.2843
 3177W        W16591   5.633  16.017   2.547 -0.1734  0.1509 -0.4712
 3178W        W16592   6.584   9.315  12.651  0.2834 -0.3207 -0.2333
 3179W        W16593  13.794  11.050  12.363 -0.1143 -0.0291 -0.3418
 3180W        W16594   3.487   3.075  13.943  0.0280 -0.0763  0.5841
 3181W        W16595   4.953  12.873  15.942 -0.1082  0.0696  0.0385
 3182W        W16596  17.366   4.525  12.243  0.1819  0.0683  0.1450
 3183W        W16597   8.902   6.684   1.130  0.2392  0.0252 -0.1303
 3184W        W16598   4.546   6.466  11.447 -0.1732 -0.0213  0.0322
 3185W        W16599   4.513   1.579  15.748  0.2508 -0.1326 -0.1454
 3186W        W16600   4.163   5.096  16.441 -0.0174  0.0411  0.2275
 3187W        W16601   0.505  12.193   5.690  0.0904 -0.2658 -0.2086
 3188W        W16602  11.116  13.428   0.741 -0.2898 -0.0534 -0.2135
 3189W        W16603   7.615  15.636  13.808 -0.1043 -0.3001 -0.3658
 3190W        W16604   2.576   0.104  14.025 -0.0695 -0.1038 -0.2787
 3191W        W16605   0.554   3.294  11.576 -0.4246 -0.2673 -0.1022
 3192W        W16606  10.257  10.527   3.056  0.1651 -0.0231 -0.1365
 3193W        W16607   6.818   3.276  15.296 -0.0167  0.1217 -0.3473
 3194W        W16608   3.949   4.837  16.077  0.0132 -0.1398  0.3927
 3195W        W16609   8.579  14.864  13.092  0.1487  0.0423 -0.0739
 3196W        W16610   1.833   6.488  13.049  0.1884  0.0398  0.1901
 3197W        W16611   8.657   8.792  15.467 -0.1993 -0.0575 -0.1315
 3198W        W16612   4.562   3.781   0.914 -0.0111 -0.0353  0.0948
 3199W        W16613  12.630   2.620   4.142 -0.3076 -0.1579  0.1459
 3200W        W16614   1.365   9.762  11.841  0.0979  0.2175  0.0363
 3201W        W16615   9.541   3.845  12.484 -0.0126 -0.3042  0.1150
 3202W        W16616   9.273   2.215   2.927 -0.0873 -0.0302  0.2076
 3203W        W16617   5.700   5.374   1.198 -0.0553 -0.0634  0.2518
 3204W        W16618   5.744  15.284  11.045  0.3563 -0.2024 -0.0466
 3205W        W16619  15.344   9.649   5.188 -0.0116  0.0509 -0.0310
 3206W        W16620   3.693   7.940  11.850 -0.1042  0.1687 -0.1024
 3207W        W16621  14.300  18.178  10.934 -0.0464 -0.0395 -0.1710
 3208W        W16622  11.526   8.867  11.433 -0.0894 -0.0661 -0.2729
 3209W        W16623  17.824  14.478   3.943 -0.1258  0.1053  0.1960
 3210W        W16624   8.779  16.962   3.870 -0.1057 -0.1782  0.1791
 3211W        W16625  10.102  15.146   4.380 -0.0678  0.2511  0.2349
 3212W        W16626   3.734   6.266  11.303  0.0717 -0.1940  0.5390
 3213W        W16627   4.791   0.889   5.373  0.0802  0.1626 -0.0210
 3214W        W16628  11.476   3.779  10.940 -0.0045  0.1007 -0.1547
 3215W        W16629  16.285   5.038  12.023  0.1317  0.0079 -0.1609
 3216W        W16630   0.002  12.248   3.883  0.3595  0.0958 -0.2315
 3217W        W16631   4.709  14.537  13.587  0.1820  0.3232  0.3971
 3218W        W16632   9.970  12.139  12.441 -0.0247 -0.0621  0.4343
 3219W        W16633   8.583   6.354  15.009  0.4645 -0.1174  0.0123
 3220W        W16634  10.912  10.608   1.984  0.0246  0.0385 -0.1327
 3221W        W16635  16.792   0.175   0.644 -0.1422 -0.0538 -0.0744
 3222W        W16636  10.584  14.818   5.523 -0.0297 -0.1362 -0.1332
 3223W        W16637  14.676   8.337  12.091 -0.1722 -0.3450 -0.1915
 3224W        W16638   1.829  11.537  16.487 -0.3166 -0.1778  0.0711
 3225W        W16639  11.562   1.965  10.752  0.2162 -0.0714  0.2756
 3226W        W16640   0.029   7.559  11.839 -0.0498  0.2350 -0.0468
 3227W        W16641  14.450   4.137   5.747  0.2436 -0.2783 -0.0677
 3228W        W16642  16.470   3.772   2.815 -0.2654 -0.0951 -0.3132
 3229W        W16643   2.198   6.347  12.208  0.0814  0.3123  0.0325
 3230W        W16644   5.867   1.426   4.342  0.0406  0.1077  0.3845
 3231W        W16645   3.185  18.109  16.203 -0.1147  0.5181 -0.3247
 3232W        W16646  15.852  10.209   1.887 -0.0546  0.2200  0.2357
 3233W        W16647   5.768   7.627   2.623 -0.1482  0.1010  0.2294
 3234W        W16648  18.123   6.360  12.120 -0.1003  0.0004  0.0436
 3235W        W16649   7.320  16.038   3.533 -0.0554 -0.1155 -0.0275
 3236W        W16650   4.007  15.114  12.471  0.1540  0.1305 -0.1177
 3237W        W16651   7.315  10.365   1.278  0.0939  0.0928 -0.1542
 3238W        W16652  11.559  12.333  11.018  0.1253 -0.0953 -0.2207
 3239W        W16653   0.612  14.428  14.243 -0.1699 -0.0811  0.0647
 3240W        W16654   6.583  11.086   5.883 -0.4513  0.0304 -0.0011
 3241W        W16655   5.751  15.377   5.580  0.2108 -0.1372 -0.0233
 3242W        W16656  14.198   5.319  10.069  0.0527  0.0126 -0.5065
 3243W        W16657   4.572  14.725  15.178  0.1424 -0.2699 -0.0398
 3244W        W16658   9.797  13.124   2.607  0.0149 -0.1805  0.4200
 3245W        W16659  10.540  17.092   4.516 -0.0157  0.0969 -0.0179
 3246W        W16660   7.638   1.873   3.221  0.2096  0.4019  0.1307
 3247W        W16661   3.197  10.726   4.776 -0.0185  0.2037  0.2085
 3248W        W16662   8.345  16.632   2.394 -0.2730 -0.1312  0.1594
 3249W        W16663   3.174  13.419  11.359  0.1847 -0.3288  0.0157
 3250W        W16664   0.231  12.874   1.805 -0.0761 -0.0470  0.0646
 3251W        W16665   2.426   2.210   3.879 -0.2341  0.0393  0.0108
 3252W        W16666   2.745   0.080  10.505  0.0369  0.0494 -0.3935
 3253W        W16667   2.397   9.542   1.832  0.3480 -0.0420  0.3277
 3254W        W16668   3.106  13.808   1.462  0.2339  0.3642 -0.1610
 3255W        W16669  14.703   8.235  15.746 -0.0280  0.1487 -0.3582
 3256W        W16670  17.121   6.540   3.324 -0.1217  0.1278 -0.1624
 3257W        W16671   3.895   6.300  14.100  0.0918 -0.0039  0.0785
 3258W        W16672   6.183  11.641  14.277  0.1682  0.0674  0.0959
 3259W        W16673  15.134  15.630  10.924  0.2877 -0.3311 -0.2755
 3260W        W16674   6.834  10.444  14.877 -0.0908  0.4455 -0.1900
 3261W        W16675   2.524  16.937   0.835  0.0670  0.0331  0.0266
 3262W        W16676  14.493  15.259   3.982 -0.1722 -0.1892  0.3429
 3263W        W16677   4.139  10.561   0.801  0.1666  0.0276  0.1406
 3264W        W16678   4.478   6.075  13.232 -0.0814  0.1116 -0.1706
 3265W        W16679  16.573  11.207   3.345 -0.0698  0.0425 -0.1966
 3266W        W16680   9.480   8.737   2.596 -0.0349  0.0264  0.0127
 3267W        W16681  15.817   7.554   5.338 -0.2091  0.2345 -0.0221
 3268W        W16682   2.562  16.717   4.203 -0.0253 -0.0637 -0.0563
 3269W        W16683  16.461   7.513   1.441 -0.1887 -0.1525 -0.0965
 3270W        W16684   1.898  12.922  10.886  0.1934  0.1424  0.0642
 3271W        W16685  15.150   0.111   1.062  0.3169 -0.1419  0.1068
 3272W        W16686   9.555   5.707   3.511 -0.0466 -0.5459 -0.0072
 3273W        W16687  12.775  10.844  11.094 -0.2921  0.0017 -0.0753
 3274W        W16688   3.456   2.897  14.539  0.1781  0.1394  0.0056
 3275W        W16689   9.150   1.512   5.311 -0.1083 -0.1025 -0.0009
 3276W        W16690   7.329   9.578   5.511 -0.3325  0.0423 -0.3195
 3277W        W16691  10.683   7.386   6.051  0.0646  0.1344  0.1918
 3278W        W16692   0.894   5.037   0.159 -0.0437  0.1511 -0.1208
 3279W        W16693  11.130  11.082  14.713 -0.1079  0.2322 -0.0293
 3280W        W16694  10.207   2.094  15.829  0.1784  0.1880 -0.1519
 3281W        W16695   9.460   8.303   5.126 -0.1029 -0.0296  0.0463
 3282W        W16696   3.405   1.811  16.265 -0.1004 -0.1151 -0.2625
 3283W        W16697  15.550  10.144  14.978 -0.0397 -0.0418 -0.2174
 3284W        W16698  17.032  14.561   5.515 -0.1673  0.0800 -0.1945
 3285W        W16699  17.114  13.163  11.525  0.1331 -0.0356 -0.1486
 3286W        W16700   3.419  12.666   3.435  0.2440 -0.0151  0.0992
 3287W        W16701   9.459   0.480   9.832 -0.0265 -0.1405  0.1207
 3288W        W16702   2.550  15.647  14.250 -0.2402  0.0987  0.1293
 3289W        W16703   9.139   7.320   5.979  0.0572 -0.1932 -0.0984
 3290W        W16704  12.508   8.920   5.834 -0.1629  0.1449  0.2524
 3291W        W16705  14.152  12.861  11.625 -0.1903  0.0666 -0.0679
 3292W        W16706   6.803  15.580  16.493 -0.0696  0.1121 -0.0901
 3293W        W16707   5.952   0.891   2.868  0.3441 -0.2606  0.2134
 3294W        W16708  10.203   4.966   1.545 -0.3223 -0.0285 -0.0082
 3295W        W16709   2.771   1.551  13.900 -0.0355  0.0940 -0.0668
 3296W        W16710   3.071   3.120   5.590 -0.1375  0.0975  0.1179
 3297W        W16711   9.376  17.410  11.480 -0.0020  0.1209  0.0604
 3298W        W16712  17.911   2.758   1.670  0.0819  0.0694  0.0277
 3299W        W16713  17.530  14.004   6.027  0.1838  0.2416  0.1205
 3300W        W16714   4.247  13.398   5.201  0.2763  0.2107 -0.0950
 3301W        W16715   2.106   3.334  13.400  0.1584  0.1063  0.0748
 3302W        W16716   7.413   8.553   1.465  0.0929 -0.0759  0.2609
 3303W        W16717   4.153   5.648  16.258  0.1358 -0.2346  0.0453
 3304W        W16718   5.158   9.828  13.685  0.0178  0.0987  0.0498
 3305W        W16719   2.485   3.950  15.995 -0.0426 -0.0923  0.1962
 3306W        W16720  10.731  12.926   2.820 -0.0459  0.4285  0.0424
 3307W        W16721   8.972  12.788   2.747  0.1273 -0.2098 -0.0480
 3308W        W16722   9.690  18.056  13.285  0.2056  0.2651 -0.1235
 3309W        W16723   3.907   9.559   5.632 -0.0582 -0.0230  0.1482
 3310W        W16724  16.598  14.540  14.309  0.0003 -0.0877 -0.0573
 3311W        W16725   4.281  17.472   4.861  0.1131  0.2009 -0.4230
 3312W        W16726   2.522  17.319   4.831  0.1867 -0.1136  0.1300
 3313W        W16727   6.594   3.399   3.601 -0.0119 -0.1220  0.0610
 3314W        W16728   9.601  12.657   3.188  0.1792  0.0216 -0.1126
 3315W        W16729  16.773  13.019  13.775  0.0869  0.0833 -0.2954
 3316W        W16730  13.170   1.014   5.322 -0.0083 -0.0756 -0.2189
 3317W        W16731  16.952   5.701  12.581 -0.1325 -0.1587 -0.0893
 3318W        W16732   3.406   0.715   5.626 -0.3445 -0.0722 -0.1638
 3319W        W16733  10.572  14.975   1.128 -0.0146  0.3772  0.2196
 3320W        W16734   6.997   9.184  11.920 -0.1032 -0.0433 -0.2592
 3321W        W16735  11.920   2.423  10.616 -0.1455 -0.0566 -0.1055
 3322W        W16736   6.240   1.331  15.555  0.0135 -0.2791 -0.3342
 3323W        W16737   5.443   7.210   4.339 -0.1686 -0.1906 -0.1119
 3324W        W16738  14.554   1.300   5.158  0.0386  0.2036 -0.0733
 3325W        W16739   7.040   6.985  11.247 -0.0556 -0.0123 -0.0697
 3326W        W16740   6.843  10.908  15.046  0.0359 -0.0175 -0.0155
 3327W        W16741  12.051   6.028   1.145 -0.2159  0.0622 -0.0114
 3328W        W16742  11.239   3.294  12.030 -0.2343  0.2689  0.3490
 3329W        W16743  12.968  11.553   2.624 -0.0417  0.0237 -0.1972
 3330W        W16744  11.493   2.809  10.597  0.0029 -0.1424 -0.1236
 3331W        W16745  13.721   2.003  14.649  0.0137 -0.2617 -0.2503
 3332W        W16746  16.358  14.952  14.286 -0.1301  0.1757 -0.1551
 3333W        W16747   9.508   0.892   2.051  0.0252  0.0009 -0.0703
 3334W        W16748  11.736  15.144  13.856  0.0028  0.2278  0.1384
 3335W        W16749   6.024  14.355  16.249 -0.2157  0.1259  0.0832
 3336W        W16750   4.033  11.349   5.863 -0.3967  0.1000 -0.0132
 3337W        W16751   5.395  14.482  15.525 -0.0664 -0.1492  0.0302
 3338W        W16752   6.838  16.926   0.267  0.0918 -0.1626 -0.0322
 3339W        W16753   0.927   2.218  13.860 -0.2797 -0.0367 -0.0960
 3340W        W16754   3.401   3.691  16.287  0.0096 -0.1353 -0.1186
 3341W        W16755   6.715   8.836   6.393 -0.2525  0.0622  0.0729
 3342W        W16756  10.261   8.875   6.006  0.1800  0.1993 -0.1208
 3343W        W16757  17.470  17.236  14.369  0.0390 -0.0734 -0.0169
 3344W        W16758  11.475   1.719   1.053 -0.2141 -0.1785 -0.2285
 3345W        W16759  17.631  17.648  11.262  0.1280  0.0227  0.4223
 3346W        W16760   3.295  17.444  12.146 -0.0070 -0.0739  0.0627
 3347W        W16761   7.769   4.370   1.869 -0.0915 -0.2692 -0.0550
 3348W        W16762  13.305   4.381   9.957  0.2961  0.2569 -0.0202
 3349W        W16763  13.095  14.264  12.753 -0.0812  0.0308 -0.0309
 3350W        W16764  13.446   0.508   2.921 -0.2188 -0.0606 -0.0416
 3351W        W16765   9.313   7.875   1.201 -0.0767  0.1012  0.3543
 3352W        W16766   6.171   8.352  14.202 -0.1961 -0.0992 -0.1406
 3353W        W16767   5.663   0.641  11.360  0.1160 -0.2248 -0.3010
 3354W        W16768  15.066  12.532   2.023  0.2186 -0.1765 -0.1502
 3355W        W16769   2.736   1.828   1.596  0.1701 -0.1130  0.3554
 3356W        W16770  11.675   9.750  12.481  0.1332 -0.3263  0.2154
 3357W        W16771  12.468   4.796  14.066  0.0462  0.0914  0.2377
 3358W        W16772  13.994   8.177  13.736 -0.1539 -0.2875  0.0564
 3359W        W16773  12.803   8.350  15.663  0.1481  0.0255  0.1817
 3360W        W16774   6.565  15.645  16.015 -0.1525  0.0162  0.0275
 3361W        W16775  15.075  12.181  10.191 -0.0840  0.2212 -0.1942
 3362W        W16776   1.935  17.134  11.940  0.0092 -0.0419 -0.0581
 3363W        W16777  17.863  12.710   0.994  0.0082 -0.1239  0.1248
 3364W        W16778   3.699  13.863  12.659  0.4182 -0.2846 -0.0220
 3365W        W16779  10.628   9.607   2.162  0.2851 -0.1682  0.1561
 3366W        W16780  17.572   5.076   1.936 -0.0587  0.2040  0.2239
 3367W        W16781   5.106   4.449   5.820 -0.2771  0.0865  0.0098
 3368W        W16782   3.155   4.674   0.092 -0.1299  0.1511  0.0930
 3369W        W16783   3.694  11.750  12.663  0.0227  0.1000  0.0360
 3370W        W16784   9.769  14.808  13.862  0.0764  0.1399 -0.0398
 3371W        W16785  17.192  16.141   0.021 -0.2499  0.3892 -0.1978
 3372W        W16786  16.077   4.229  16.346  0.1800 -0.0382  0.2614
 3373W        W16787   3.368   7.598  11.672  0.2689  0.0394  0.3143
 3374W        W16788  12.824   5.240  16.138  0.0684  0.3685 -0.2329
 3375W        W16789  14.097  13.487   4.827  0.2054  0.3164 -0.0098
 3376W        W16790   4.337   4.591   1.078 -0.2412 -0.2370  0.0196
 3377W        W16791   8.807  10.383   4.846 -0.1023  0.2194 -0.0726
 3378W        W16792   9.808   0.181  11.323 -0.1461 -0.0014 -0.1468
 3379W        W16793   3.906   0.773   0.809 -0.0736 -0.0792  0.1887
 3380W        W16794  16.701  17.406   2.522  0.4712 -0.0017 -0.2138
 3381W        W16795  12.343   7.583   4.207 -0.0280  0.0199  0.1292
 3382W        W16796  14.598  14.217  10.887 -0.2346 -0.0185  0.0400
 3383W        W16797   1.235   8.369   2.309 -0.0790 -0.4100 -0.0329
 3384W        W16798  13.977   3.308   4.731  0.2251  0.0393  0.0138
 3385W        W16799  10.374  15.421   2.513 -0.0926 -0.2459  0.1042
 3386W        W16800   6.837   2.202   1.918  0.2412  0.1815 -0.1687
 3387W        W16801   4.947   3.465   0.863 -0.0648 -0.3505 -0.2717
 3388W        W16802  14.743   8.853   5.799 -0.0816 -0.0221  0.2520
 3389W        W16803   2.771  10.473   5.984 -0.0212  0.2190  0.1161
 3390W        W16804   4.630  12.079  12.207 -0.4230  0.0418 -0.3475
 3391W        W16805   2.586  11.277  15.833 -0.0556  0.2474 -0.1334
 3392W        W16806  17.307   9.894   5.431 -0.4966 -0.3597  0.0882
 3393W        W16807   3.140  12.559  15.027 -0.0307 -0.3010  0.0325
 3394W        W16808   9.245  14.909  16.321 -0.0608 -0.1267 -0.0527
 3395W        W16809  12.936   1.522  11.815  0.0495  0.0455  0.1556
 3396W        W16810  17.198  16.335   1.910 -0.2012  0.1049 -0.0255
 3397W        W16811  12.920   0.229  14.924  0.4323  0.0762 -0.1626
 3398W        W16812   2.298   2.590   5.971  0.4137  0.3088 -0.1455
 3399W        W16813  10.431  12.871  16.508  0.2256  0.0179  0.0028
 3400W        W16814  10.758   3.601  10.453 -0.0021  0.0389  0.0053
 3401W        W16815   4.287  13.104   6.456 -0.1153 -0.0411  0.0153
 3402W        W16816   1.767   6.512   2.624 -0.2470  0.1559 -0.2626
 3403W        W16817   6.539   8.108  11.608  0.2216 -0.2306  0.0744
 3404W        W16818  14.289  16.984   2.077 -0.0092 -0.5090  0.2078
 3405W        W16819  14.040  13.497  14.750 -0.4403 -0.1201  0.1260
 3406W        W16820   9.291  11.209  13.723  0.0714 -0.1737 -0.0071
 3407W        W16821   8.279   9.685   3.946  0.2932 -0.3774  0.4685
 3408W        W16822   1.315   4.119  14.121  0.1142  0.1312 -0.1520
 3409W        W16823   8.093  12.124   0.249 -0.0734  0.1869  0.3723
 3410W        W16824  17.916   3.761   5.163 -0.1829  0.0038  0.1593
 3411W        W16825  10.329  15.101   2.087 -0.0731 -0.0755 -0.0806
 3412W        W16826   0.826  15.014  11.355  0.2951  0.0325  0.2443
 3413W        W16827   5.892   8.750  12.110 -0.1312 -0.3520 -0.0124
 3414W        W16828  13.417   2.130  15.083  0.1226  0.3965  0.0474
 3415W        W16829  11.644  10.136  11.068  0.0784  0.1504 -0.0167
 3416W        W16830   2.797   4.126  15.051  0.0929  0.0402 -0.4107
 3417W        W16831  12.222  15.778   5.030  0.1051  0.1543  0.0036
 3418W        W16832  13.987  13.081  13.597  0.2327 -0.1703  0.1161
 3419W        W16833   6.553   6.182  15.355  0.0057 -0.2200  0.2287
 3420W        W16834   1.725   4.437   2.283 -0.3956  0.0772 -0.0041
 3421W        W16835  12.246  13.180   4.517  0.0025 -0.1463  0.1554
 3422W        W16836   3.879   4.677   0.828  0.0860 -0.0331 -0.0413
 3423W        W16837   4.832   0.079  16.114 -0.1404 -0.0624  0.2966
 3424W        W16838   6.815   3.699   1.462  0.1048 -0.0132 -0.1347
 3425W        W16839   8.206   9.178   1.399 -0.0810 -0.2336  0.0759
 3426W        W16840   2.769   6.960   0.637  0.1478 -0.3216 -0.0982
 3427W        W16841  13.089   9.388   0.146 -0.1865  0.2789  0.1112
 3428W        W16842  10.033  16.072   4.054  0.0872  0.2825  0.2654
 3429W        W16843  12.013   3.832   2.736  0.5398 -0.3459 -0.5056
 3430W        W16844  11.285  10.217   4.528 -0.1116 -0.3565  0.0632
 3431W        W16845  15.769  17.190  13.874  0.0550 -0.2525 -0.1580
 3432W        W16846   0.288  12.836  15.606  0.1243 -0.0018 -0.0760
 3433W        W16847   5.835   9.478  16.203 -0.1582  0.1456 -0.2282
 3434W        W16848   4.251  10.086   1.911 -0.0515 -0.0347 -0.2468
 3435W        W16849   0.827  16.191  10.784 -0.0941 -0.3333  0.0140
 3436W        W16850   8.925   1.983  15.761 -0.1865 -0.0800  0.0270
 3437W        W16851  17.028   2.626   2.089  0.1685 -0.3391 -0.0719
 3438W        W16852  14.761   8.133  11.543 -0.3014 -0.0171  0.1224
 3439W        W16853   8.222  11.889  14.391  0.1821  0.3965  0.0196
 3440W        W16854   7.466  15.024   2.811  0.5864  0.0667 -0.2375
 3441W        W16855  11.101   3.967   4.139 -0.3082  0.3246  0.0044
 3442W        W16856   7.892   7.441   3.706 -0.3040 -0.3089  0.0552
 3443W        W16857  13.313  14.608  15.015 -0.0087  0.0301 -0.0342
 3444W        W16858  14.656   1.426  13.266  0.0539 -0.2457 -0.1064
 3445W        W16859   3.814   2.394   5.399 -0.0450 -0.0478  0.0359
 3446W        W16860   6.779   2.844  13.042 -0.1573 -0.0081  0.0844
 3447W        W16861  13.869   8.987  12.907 -0.0821 -0.0794  0.1168
 3448W        W16862  13.327  15.130  16.226 -0.1155  0.0926  0.0323
 3449W        W16863   8.682  12.300  10.387 -0.1414  0.0375  0.0820
 3450W        W16864   9.443  13.923  15.325 -0.0279 -0.1911 -0.1059
 3451W        W16865  17.312   2.825  15.446 -0.0970  0.0734 -0.1720
 3452W        W16866   7.654  16.149  13.868  0.2386 -0.1430 -0.1924
 3453W        W16867  14.530  15.924   5.238  0.2030  0.0613  0.1801
 3454W        W16868   9.775   3.237   2.251 -0.0710  0.0887 -0.0878
 3455W        W16869   3.883  10.695  15.822  0.0862  0.1194 -0.1554
 3456W        W16870  15.805   9.229   5.193 -0.0402  0.2683  0.0595
 3457W        W16871  10.430   4.904   2.526 -0.1548  0.1447  0.0686
 3458W        W16872   8.049  17.761   4.912 -0.2658 -0.0603  0.4617
 3459W        W16873  14.314  10.224  14.407  0.1227 -0.1530 -0.2448
 3460W        W16874  17.605   6.519   1.243  0.0104 -0.0889 -0.0411
 3461W        W16875   8.780  15.076  16.421 -0.1686 -0.0557 -0.1366
 3462W        W16876   5.006   1.055  12.661  0.1945 -0.2041 -0.2036
 3463W        W16877   9.784  15.030  15.567 -0.2302 -0.0465  0.2335
 3464W        W16878   8.288  15.479   5.113  0.0650  0.0525  0.1158
 3465W        W16879  16.960  13.540  14.548  0.3054  0.0539 -0.0759
 3466W        W16880  17.728   0.385  11.228 -0.0012 -0.0335 -0.0376
 3467W        W16881   7.325   5.286  11.934 -0.0193  0.0236  0.0243
 3468W        W16882   6.868  16.555  16.505 -0.0411  0.1005 -0.3335
 3469W        W16883  12.977  15.489   3.617 -0.1013 -0.0192 -0.1973
 3470W        W16884   1.071  16.702  15.957  0.1617  0.1589 -0.0135
 3471W        W16885  12.815   5.872   2.348  0.0184  0.1508  0.0068
 3472W        W16886   5.642   0.754  15.076  0.0975  0.1591  0.1232
 3473W        W16887   0.860  10.723  12.642 -0.1727 -0.4315  0.2553
 3474W        W16888   2.809  14.288  12.925  0.0237 -0.0798  0.0777
 3475W        W16889  16.714   9.892   1.281  0.1867 -0.1540  0.0106
 3476W        W16890  14.752   3.260  11.334 -0.1963 -0.2068  0.0824
 3477W        W16891  15.544  14.152   5.724 -0.2084 -0.0974  0.0043
 3478W        W16892   3.164  15.842  10.658  0.0152  0.2322 -0.1544
 3479W        W16893   9.473  10.450  15.621 -0.0640  0.2876  0.1113
 3480W        W16894  17.956  18.017  16.206  0.0153 -0.1374 -0.0066
 3481W        W16895   5.973  10.336  15.052  0.0190 -0.0492  0.0171
 3482W        W16896   5.960  10.977  10.752 -0.2675  0.0025 -0.1981
 3483W        W16897  11.668  15.373  12.862 -0.5788 -0.3921  0.1816
 3484W        W16898   5.864   8.832   4.534  0.2378 -0.0494  0.2061
 3485W        W16899  10.344   5.751   0.879 -0.1111 -0.2176  0.0654
 3486W        W16900   0.399  11.473  16.065  0.5153  0.0918  0.1558
 3487W        W16901   9.067  10.415   5.306  0.0978 -0.2972  0.1547
 3488W        W16902  16.270  12.234   1.599 -0.2833 -0.0801 -0.0312
 3489W        W16903   0.995   3.289   1.587 -0.2415  0.1188 -0.3894
 3490W        W16904  18.087   7.965   1.807  0.1105  0.0787  0.2153
 3491W        W16905  15.712   9.908   5.552  0.1075 -0.2509 -0.0984
 3492W        W16906   3.929   2.311   0.225  0.2794  0.2693 -0.0573
 3493W        W16907  11.639   9.623   3.931  0.1158 -0.3127 -0.0621
 3494W        W16908   1.587  17.934  15.983  0.1863  0.1985  0.0993
 3495W        W16909   2.861   1.470   5.868 -0.1276 -0.1457 -0.0836
 3496W        W16910  11.686  11.707   5.811  0.2291 -0.0135 -0.0646
 3497W        W16911   9.159   9.474   4.801  0.0963 -0.2351  0.1110
 3498W        W16912   0.095   9.567   2.877 -0.2043  0.0212  0.2185
 3499W        W16913   3.262   8.558   4.074 -0.0215 -0.0349 -0.0801
 3500W        W16914  13.518  11.969  14.933 -0.2340 -0.3947 -0.0604
 3501W        W16915   6.650   6.279  11.630  0.0564  0.1086 -0.1026
 3502W        W16916  17.146  12.353   5.078  0.0044  0.1949 -0.1156
 3503W        W16917  13.105  14.901  15.684  0.1107  0.0979  0.1891
 3504W        W16918   3.729  12.991   1.771 -0.3019  0.0979 -0.1937
 3505W        W16919   2.768   3.920   5.537 -0.0988  0.1855  0.1345
 3506W        W16920   4.722  17.877  15.426  0.0166  0.1183 -0.2048
 3507W        W16921   6.397  15.510  14.195  0.0423  0.0483 -0.3056
 3508W        W16922  13.196  13.229   6.250  0.1197 -0.1152  0.1837
 3509W        W16923  11.959   5.433  10.918 -0.2203  0.2348  0.0575
 3510W        W16924   8.404   8.625   3.966 -0.2211 -0.1264  0.0560
 3511W        W16925  14.996   2.827  11.087  0.0625 -0.1339  0.0973
 3512W        W16926  16.399   5.691   1.878 -0.1784  0.0826 -0.1360
 3513W        W16927   6.342   9.496  11.421 -0.2577 -0.0165 -0.0502
 3514W        W16928  11.026   9.250   3.442  0.1471  0.0180 -0.1451
 3515W        W16929  13.273   5.980  12.541 -0.2970  0.0154 -0.0755
 3516W        W16930  10.062   7.581  14.110 -0.2834 -0.2842  0.2426
 3517W        W16931   3.087  14.598   2.083  0.4134  0.1043  0.3035
 3518W        W16932   2.811  14.686  13.297  0.1288 -0.2289 -0.4539
 3519W        W16933  16.728  15.575   0.893 -0.3475 -0.0251 -0.1913
 3520W        W16934   0.704   7.747   5.794 -0.0836 -0.0182  0.0245
 3521W        W16935   9.555  10.453  13.033  0.0557  0.0058  0.0388
 3522W        W16936   1.462   4.177  12.371  0.0467 -0.0156 -0.0146
 3523W        W16937   7.712  10.834  15.101 -0.0254  0.0717 -0.1696
 3524W        W16938   9.472  16.176   2.708 -0.2152  0.0125  0.0896
 3525W        W16939  17.594   9.760   0.738  0.2106  0.2261  0.2652
 3526W        W16940  17.516  17.732   3.488  0.0683 -0.0599  0.4642
 3527W        W16941   3.362  13.524   4.715  0.0470  0.1739 -0.0253
 3528W        W16942   7.823   5.400   1.689  0.2553  0.0223  0.3072
 3529W        W16943  11.290   2.526  16.111  0.1855  0.2048 -0.0291
 3530W        W16944  12.480  15.425  14.444 -0.2384  0.2465  0.0478
 3531W        W16945   5.156  10.369  14.577  0.1521  0.1327 -0.2868
 3532W        W16946   4.030   6.026  11.818  0.0904  0.0063  0.1971
 3533W        W16947   9.895  12.545  13.448 -0.1061 -0.3292 -0.2040
 3534W        W16948   8.977   7.868  13.596 -0.0255  0.0641  0.2372
 3535W        W16949   1.061  11.055  15.395  0.0761 -0.0531 -0.2285
 3536W        W16950  10.833   6.086  10.802  0.1357 -0.3567  0.0637
 3537W        W16951  12.526  13.068  12.300 -0.1398  0.1850  0.3316
 3538W        W16952  10.852  12.255  12.127  0.0298 -0.1756  0.0058
 3539W        W16953  10.943   3.021  15.935 -0.0750  0.3415 -0.0962
 3540W        W16954  15.600  12.663   4.369 -0.1792  0.0350  0.0400
 3541W        W16955   0.518   7.397   1.452  0.1985  0.3087  0.2934
 3542W        W16956  17.102   7.258   4.043 -0.0132  0.0812 -0.1001
 3543W        W16957   8.005   2.306   0.564  0.0432 -0.5854  0.2477
 3544W        W16958   3.397   6.675   4.838  0.1754 -0.0061 -0.1016
 3545W        W16959   9.357   0.274   3.848  0.0266  0.1127  0.1567
 3546W        W16960  14.414  12.725   5.658 -0.0737  0.4506  0.0134
 3547W        W16961  10.930  15.541   0.625  0.3847 -0.1201 -0.3228
 3548W        W16962   9.245   6.292   6.166  0.1357 -0.1077  0.0534
 3549W        W16963  11.230   0.139  14.658  0.1753 -0.3179  0.0000
 3550W        W16964   1.703  11.746   6.151  0.1973  0.0728 -0.4782
 3551W        W16965  14.871  11.705  15.053  0.2274 -0.2736 -0.3369
 3552W        W16966   3.418   6.462   3.919 -0.1897  0.0606 -0.1294
 3553W        W16967   5.303  17.255   0.351  0.0871  0.0182  0.2965
 3554W        W16968  16.744  15.363   5.068 -0.3231 -0.2333  0.5422
 3555W        W16969  14.791  16.401  13.986  0.1842 -0.2855  0.1173
 3556W        W16970  11.691  17.214   3.656  0.1494 -0.0408  0.1880
 3557W        W16971   6.829   0.390   4.411 -0.0917  0.0550 -0.1527
 3558W        W16972  16.022  14.980  10.729  0.0368 -0.0786 -0.0716
 3559W        W16973  15.813   9.269  14.779  0.1556  0.1138  0.0206
 3560W        W16974   9.802  14.013   4.393 -0.0057  0.1711 -0.1345
 3561W        W16975  17.460   7.496   0.889  0.2458 -0.0631 -0.0929
 3562W        W16976  14.106   8.113   4.468 -0.2776  0.1961 -0.0405
 3563W        W16977  10.046  10.505   4.910 -0.1200 -0.4114 -0.0008
 3564W        W16978   7.426   2.416   4.962  0.0757  0.0372  0.3585
 3565W        W16979   2.876   6.218   0.292 -0.1675  0.0913  0.1579
 3566W        W16980  14.961   3.529  11.745  0.0348  0.1599 -0.2924
 3567W        W16981  11.657  10.968   3.874  0.0881 -0.1128 -0.2556
 3568W        W16982  17.291  10.671   4.951 -0.1147 -0.0872  0.0091
 3569W        W16983  12.168  17.445  16.318  0.2007  0.0382  0.4124
 3570W        W16984   6.561   1.340  16.508  0.2801 -0.0762  0.0132
 3571W        W16985   7.602   1.695  12.993  0.0330  0.3102 -0.1157
 3572W        W16986  12.204   2.467  16.263 -0.2620  0.1593 -0.1693
 3573W        W16987  17.821   6.887   2.181  0.0105 -0.1464  0.2763
 3574W        W16988   9.656   1.770   2.803  0.1058  0.5000  0.0971
 3575W        W16989  10.099  17.346   5.114 -0.2504 -0.2268 -0.1606
 3576W        W16990   0.812   4.731  15.656  0.0462  0.0301  0.3668
 3577W        W16991   4.585   2.051  11.785  0.2311  0.1293 -0.2079
 3578W        W16992   6.414  11.951  13.959 -0.0202  0.0430  0.1234
 3579W        W16993   2.841   5.905   5.862  0.4325 -0.1725  0.0797
 3580W        W16994   6.278  10.428  13.259 -0.0587  0.1008 -0.0825
 3581W        W16995   8.197   3.385  12.204  0.3394 -0.3368 -0.1673
 3582W        W16996   1.187   0.555  16.304  0.1112  0.2312 -0.0794
 3583W        W16997  11.178  16.212   1.141 -0.0958 -0.1903  0.3263
 3584W        W16998  12.168   9.969   3.144  0.2333  0.1629  0.0088
 3585W        W16999  16.136   7.172  15.713 -0.2974  0.1411  0.0870
 3586W        W17000   8.341   4.140  10.880 -0.4308 -0.0935  0.1611
 3587W        W17001  13.287  15.791  14.707 -0.2372  0.1490  0.0282
 3588W        W17002   3.715   1.866   0.132  0.1757 -0.0850 -0.2106
 3589W        W17003  16.484   2.530   4.105 -0.2038  0.0900 -0.1046
 3590W        W17004   8.209   8.278   0.438 -0.1095 -0.0603  0.2096
 3591W        W17005  12.478  14.509   2.544 -0.1599 -0.1704  0.3563
 3592W        W17006   5.379  18.048  12.481  0.2326 -0.0615  0.3910
 3593W        W17007  16.829   3.816  16.227 -0.0601  0.0289  0.3875
 3594W        W17008  16.380   8.931   2.269 -0.1717  0.0388 -0.1383
 3595W        W17009   7.334  16.486  12.155  0.0646 -0.0044  0.1278
 3596W        W17010   6.178   4.502  11.826  0.0321 -0.3694 -0.0611
 3597W        W17011  12.016  17.074   0.473 -0.0065 -0.2098 -0.0029
 3598W        W17012   6.489   0.622   1.812  0.0988 -0.2847 -0.2083
 3599W        W17013   6.069  13.690   4.652  0.1618 -0.0241 -0.0811
 3600W        W17014   4.348   6.974  11.452  0.2738  0.1299 -0.0349
 3601W        W17015  11.359  13.159  11.244  0.2123 -0.1232  0.0313
 3602W        W17016  16.112   2.919  13.988  0.0965  0.1262 -0.0400
 3603W        W17017   6.309  11.266   5.405  0.1916 -0.0524 -0.3497
 3604W        W17018   3.959   8.576   5.966  0.1785 -0.2444  0.4577
 3605W        W17019   3.792  13.428   2.040 -0.0288  0.0607 -0.3398
 3606W        W17020   7.270   0.111  13.907  0.0578 -0.2484 -0.1586
 3607W        W17021  16.268  12.456  11.559  0.0748 -0.3267 -0.1066
 3608W        W17022   1.009   0.405  15.810  0.1747  0.0941 -0.0559
 3609W        W17023   6.091  16.232   1.342  0.1008 -0.3409 -0.1049
 3610W        W17024   0.435   8.861  11.524 -0.0316  0.2895  0.1620
 3611W        W17025   6.726   4.814   2.201 -0.2474 -0.3156  0.2869
 3612W        W17026  16.166  16.675  11.128 -0.0265 -0.3098 -0.6104
 3613W        W17027  11.704  11.497   1.318 -0.1157  0.0070 -0.0978
 3614W        W17028   7.618   4.906  14.961  0.0011 -0.1996  0.2380
 3615W        W17029  17.535  17.640  12.025  0.0016  0.2299 -0.1749
 3616W        W17030   8.411  17.995   4.549 -0.0627 -0.1684 -0.1836
 3617W        W17031  14.030  11.709  15.446 -0.3183 -0.3340  0.2528
 3618W        W17032   2.539   1.178   2.164  0.0107  0.0435  0.3546
 3619W        W17033  10.486  15.853   0.371  0.1295  0.1796  0.3878
 3620W        W17034  11.368   1.077  10.787 -0.1099  0.0948 -0.0397
 3621W        W17035   9.311  16.151   0.985  0.1500  0.0672  0.0939
 3622W        W17036   3.910  16.039  13.765  0.2829 -0.1151  0.2105
 3623W        W17037   9.986   1.276  12.227  0.0479  0.2656  0.3499
 3624W        W17038   1.521   4.167   4.538  0.0897 -0.1850  0.1321
 3625W        W17039   3.709   2.585  11.682 -0.0101 -0.1066 -0.0365
 3626W        W17040  18.113  13.333  14.397  0.4303  0.4706  0.0076
 3627W        W17041   7.615   3.717   1.260  0.0012 -0.0590  0.2648
 3628W        W17042   5.739   7.598   1.349 -0.1953 -0.2854 -0.1076
 3629W        W17043  15.216   6.798  13.060  0.1711 -0.0361 -0.2388
 3630W        W17044  12.337   7.984   6.211  0.0606  0.2575 -0.0019
 3631W        W17045  12.111  10.926   3.967 -0.2144 -0.0853 -0.2620
 3632W        W17046   3.371  10.226  15.992  0.2533  0.0851 -0.0866
 3633W        W17047  16.795   0.467  13.745  0.2380 -0.2192  0.1604
 3634W        W17048   9.171  11.142  15.157  0.3634  0.1372 -0.4132
 3635W        W17049  18.166   2.145  11.891 -0.2070 -0.0173 -0.0110
 3636W        W17050  16.798  14.379   3.724  0.0344 -0.0295 -0.0024
 3637W        W17051  12.374   4.142  12.196 -0.0636 -0.0811 -0.0336
 3638W        W17052  13.139   2.057  10.796 -0.2486  0.1986  0.1249
 3639W        W17053  16.679   5.911   1.087 -0.0168  0.3997  0.1032
 3640W        W17054  14.553  16.487  16.007  0.1032 -0.3245 -0.0628
 3641W        W17055  13.292   4.028   2.153  0.0484 -0.2225 -0.1054
 3642W        W17056  13.673  13.015   4.441 -0.0104  0.0792 -0.0292
 3643W        W17057  17.009  11.370  13.634  0.0853 -0.0371 -0.0472
 3644W        W17058   1.011   8.164   5.651  0.1968  0.0832 -0.1202
 3645W        W17059   4.649  10.982  15.206  0.0293  0.0689  0.1571
 3646W        W17060   6.263  17.487   3.554  0.1756 -0.1923 -0.1006
 3647W        W17061   5.440   1.052  11.603  0.1836  0.0115 -0.0941
 3648W        W17062   7.408  15.207  16.391  0.0195 -0.0120  0.1024
 3649W        W17063  17.160   8.057  14.728  0.2272 -0.0620  0.2248
 3650W        W17064   6.080   3.747   5.290 -0.3039 -0.1409 -0.1307
 3651W        W17065  12.273   2.064   5.113 -0.0666  0.1067  0.1854
 3652W        W17066   8.912  16.875  13.964 -0.0326 -0.1181 -0.1282
 3653W        W17067   8.569  16.308   0.721 -0.1017  0.1523 -0.1799
 3654W        W17068   4.317   9.527  12.530  0.1604 -0.1459  0.2119
 3655W        W17069  17.714   1.337  14.035  0.2537 -0.5039 -0.0263
 3656W        W17070  12.125   7.916  13.791 -0.0842 -0.2113 -0.2253
 3657W        W17071   1.769  10.228  12.370  0.1518  0.1724  0.0641
 3658W        W17072   7.940   6.810   5.953 -0.1858 -0.3365 -0.1687
 3659W        W17073   2.721   3.036   3.700 -0.1018 -0.1697  0.0146
 3660W        W17074   7.771   4.601  14.404  0.0145 -0.0659 -0.3494
 3661W        W17075   9.151  15.155   5.513  0.0702 -0.0135 -0.0032
 3662W        W17076  12.777   7.273  14.998 -0.2219  0.1339 -0.0336
 3663W        W17077   6.618   0.066   1.974 -0.1208  0.1036 -0.0340
 3664W        W17078  15.456   7.456  13.558 -0.0161 -0.0032 -0.3087
 3665W        W17079  17.352   4.487  11.352 -0.0872  0.0520  0.0437
 3666W        W17080  17.648  17.118  12.190 -0.1077  0.2246 -0.3580
 3667W        W17081   2.317   1.662   4.013  0.2400  0.2146 -0.0580
 3668W        W17082  15.484  14.392  13.935 -0.1800 -0.1181 -0.0393
 3669W        W17083   1.693  16.013  14.450 -0.0155 -0.1251  0.1401
 3670W        W17084  12.487   4.725  13.407  0.0727 -0.2084  0.0768
 3671W        W17085   4.721  10.352  14.357  0.0406 -0.2376  0.0518
 3672W        W17086   8.731   5.720   4.571 -0.2307 -0.1841 -0.1550
 3673W        W17087   2.196  15.108  11.988 -0.3903 -0.0071 -0.2374
 3674W        W17088  17.770  11.927   3.811 -0.0303 -0.3363 -0.1235
 3675W        W17089   2.527  17.824   4.899 -0.0654 -0.1013 -0.0198
 3676W        W17090   7.040  12.370   6.824  0.0905 -0.1268 -0.1284
 3677W        W17091  12.390   0.218  10.340 -0.0487  0.1567  0.1175
 3678W        W17092   7.958   7.406   0.230 -0.1630 -0.1745  0.0221
 3679W        W17093  13.077   2.684  14.838  0.0941 -0.0056 -0.0330
 3680W        W17094   4.489  15.488   0.528  0.1353 -0.1630  0.1938
 3681W        W17095  15.639   5.140   1.837  0.1678  0.1364  0.1258
 3682W        W17096  10.128  17.644  13.297 -0.4370 -0.2502 -0.2054
 3683W        W17097   7.912   0.413   5.245 -0.2088  0.0183  0.0313
 3684W        W17098  13.865  17.117   3.513  0.1961  0.0912  0.1835
 3685W        W17099   6.249   9.436   0.442  0.0937  0.0483 -0.0124
 3686W        W17100   3.843  18.144  15.825 -0.1588  0.0126  0.0470
 3687W        W17101  16.363  10.899   1.711 -0.1640 -0.1390 -0.1037
 3688W        W17102  16.200  14.374  15.363 -0.1776 -0.0636 -0.0777
 3689W        W17103  14.785   4.539   5.664  0.0449 -0.1407  0.1238
 3690W        W17104  14.208   7.085  16.283  0.1286  0.3180 -0.0924
 3691W        W17105  17.490  13.064   3.335 -0.2003 -0.0451 -0.2220
 3692W        W17106  11.464  11.830  12.462 -0.0420 -0.0779  0.1295
 3693W        W17107  10.786  12.445  16.402 -0.1502  0.1410 -0.3250
 3694W        W17108   3.948   8.258   3.629  0.0280 -0.1971  0.0909
 3695W        W17109  11.267   0.392  12.449 -0.0443 -0.1117 -0.1811
 3696W        W17110  10.575  17.542   4.713  0.1091 -0.2455  0.0235
 3697W        W17111   7.930   9.992   4.795 -0.0496  0.1281  0.0569
 3698W        W17112   1.985  17.149  12.474  0.0758  0.1378  0.0031
 3699W        W17113  10.186  14.120   4.040 -0.2363 -0.0105  0.0290
 3700W        W17114   5.789  17.636  12.554 -0.0107  0.1261  0.1770
 3701W        W17115   9.130   1.424   4.174  0.0193  0.1383 -0.1304
 3702W        W17116   9.575   3.316   1.146 -0.0657  0.1737 -0.2399
 3703W        W17117   8.392   1.969   2.898 -0.0530 -0.1836  0.1490
 3704W        W17118  10.478  15.349   5.517  0.2365  0.1210 -0.2024
 3705W        W17119  15.318  15.602  14.612  0.0263  0.1085  0.3690
 3706W        W17120  12.193   5.484   3.006 -0.1368 -0.3392 -0.3223
 3707W        W17121   8.709   9.760  12.338  0.0963  0.0173 -0.2474
 3708W        W17122   6.551  12.774  12.758 -0.3179  0.0208 -0.3555
 3709W        W17123  17.112  13.915   3.570  0.2953 -0.0244  0.0202
 3710W        W17124   2.272  11.889  11.067 -0.0430  0.2055  0.1595
 3711W        W17125   0.290   9.785  15.385  0.1625 -0.0992  0.0464
 3712W        W17126   6.480   3.853   3.750  0.0945  0.0584  0.0850
 3713W        W17127   6.772   4.330   2.180  0.0785  0.0444 -0.2161
 3714W        W17128   6.877  14.039  10.591 -0.0906  0.3120 -0.2053
 3715W        W17129  10.313   3.765  13.931  0.0886  0.1771 -0.0311
 3716W        W17130  12.397   8.452  11.505 -0.2327  0.0837  0.0306
 3717W        W17131   2.887  15.105   0.773  0.0243  0.1332  0.2171
 3718W        W17132  10.961   9.439  11.024 -0.0858  0.0573 -0.0162
 3719W        W17133   8.272   6.532  15.802  0.4382 -0.0198  0.2109
 3720W        W17134   0.681  10.918   3.262  0.3190  0.1593  0.0951
 3721W        W17135   9.342  15.972  13.086 -0.1771  0.2196  0.0580
 3722W        W17136  17.088   8.322  11.620  0.0698 -0.4431 -0.4007
 3723W        W17137  12.918  12.506   1.293  0.0922  0.3402 -0.2974
 3724W        W17138   0.325  16.841  15.325  0.1281  0.0689 -0.1987
 3725W        W17139   4.886   7.512   2.684 -0.5295  0.0221  0.1642
 3726W        W17140  12.853   8.437  12.999 -0.0934  0.0114 -0.1225
 3727W        W17141  10.654   6.479   1.384  0.0516  0.2829 -0.1072
 3728W        W17142   7.501   0.913  10.428  0.0311  0.1070 -0.2704
 3729W        W17143   5.767  16.496   0.061  0.0772 -0.0009 -0.0185
 3730W        W17144   3.718   1.983   5.924  0.1983 -0.0110  0.1579
 3731W        W17145   2.535  12.651  11.588  0.0585  0.3831  0.4299
 3732W        W17146  16.199  17.446   5.882  0.0052 -0.0522 -0.2404
 3733W        W17147   8.198  17.000  10.676  0.1570 -0.0989  0.1552
 3734W        W17148  13.686   5.379   0.124 -0.2353  0.2695 -0.2669
 3735W        W17149  11.748  11.568  10.650 -0.1143 -0.0868 -0.1265
 3736W        W17150   0.974  12.153  12.252 -0.2450 -0.0797  0.1855
 3737W        W17151  10.009   3.748  13.564  0.1337 -0.2110 -0.1495
 3738W        W17152  12.058   7.345   5.036 -0.1907 -0.1854 -0.0072
 3739W        W17153  12.192   4.047   0.162  0.0245  0.0148 -0.2093
 3740W        W17154   9.992   9.221   0.367  0.2085 -0.1526 -0.1983
 3741W        W17155   6.679  10.426   6.624 -0.0613 -0.2132 -0.2999
 3742W        W17156  10.154   8.671   1.870 -0.0469  0.1969  0.0057
 3743W        W17157  14.203   8.418  12.291 -0.0816  0.0896 -0.2003
 3744W        W17158  14.112   4.626  15.583 -0.0811 -0.2705 -0.1005
 3745W        W17159   9.240   5.949   4.704 -0.0078 -0.1322  0.2018
 3746W        W17160  12.577   4.322  16.047 -0.2857 -0.0740 -0.0260
 3747W        W17161   1.910   9.873  12.715 -0.1655 -0.0651  0.0211
 3748W        W17162  14.642   0.601  12.812  0.4344  0.1613  0.0445
 3749W        W17163   0.090   7.752   3.654 -0.0520  0.2630  0.1064
 3750W        W17164   3.347   8.071   2.345 -0.2563  0.2527 -0.0468
 3751W        W17165  10.267   3.628  13.057  0.1441 -0.0380 -0.0859
 3752W        W17166   3.797  12.315   3.404 -0.1850 -0.2708 -0.0694
 3753W        W17167  11.218   7.383  11.583 -0.1724 -0.0635 -0.0666
 3754W        W17168  17.700   6.795  14.133  0.0941 -0.1652 -0.2468
 3755W        W17169   1.269   5.598  15.630  0.3164  0.1812 -0.3734
 3756W        W17170   4.534   0.029  10.894  0.2741 -0.0367  0.3128
 3757W        W17171   5.411   0.386   4.062  0.2585  0.0396  0.1976
 3758W        W17172  16.991   3.540   3.278 -0.0951 -0.0364  0.2439
 3759W        W17173  10.970   4.168  12.497 -0.0338  0.0722 -0.3591
 3760W        W17174   6.118   3.887  10.519 -0.0696  0.0626 -0.0679
 3761W        W17175  10.525   6.895  10.477 -0.1660  0.2389  0.0336
 3762W        W17176   6.219   1.157   2.593  0.2085 -0.0436  0.2371
 3763W        W17177   2.813  14.370   1.309  0.2132  0.0450 -0.3489
 3764W        W17178  12.910   0.899   2.474  0.0505  0.1643 -0.0036
 3765W        W17179  11.231   1.085  11.323 -0.0702 -0.1071 -0.1649
 3766W        W17180  16.944   4.949   2.915 -0.0704  0.2646  0.0392
 3767W        W17181  10.987   9.275   2.002 -0.0811 -0.0166  0.0711
 3768W        W17182  15.883  14.020  14.759 -0.1579 -0.1629  0.4606
 3769W        W17183   2.425  16.873  10.634 -0.3967  0.0577 -0.2307
 3770W        W17184   3.181   6.563   4.378  0.0942 -0.2636  0.0049
 3771W        W17185  11.456  11.527  14.550  0.2680 -0.1557 -0.4693
 3772W        W17186  14.101  12.225  15.291  0.0871 -0.0826  0.1288
 3773W        W17187   9.837   3.618  14.571  0.1223 -0.0505 -0.1859
 3774W        W17188   6.646  14.564   2.637 -0.0594 -0.0961 -0.0003
 3775W        W17189   3.897   5.098   3.809  0.1698 -0.1060 -0.0329
 3776W        W17190   5.348   8.682   2.742 -0.0467 -0.1302 -0.5151
 3777W        W17191  14.688   1.898   5.612 -0.2044 -0.0382  0.2194
 3778W        W17192  15.128   2.512  12.132  0.2209 -0.0725  0.1961
 3779W        W17193  11.265  17.374   5.383 -0.5880  0.1020 -0.3054
 3780W        W17194  14.194   3.427   0.571 -0.0108  0.1295 -0.0256
 3781W        W17195   3.220   4.285   5.484  0.1568 -0.0682  0.0491
 3782W        W17196   0.511  10.822  13.468  0.0380 -0.0213 -0.2869
 3783W        W17197   5.295  13.317  13.735  0.0641 -0.0084 -0.3553
 3784W        W17198   2.967   8.973  16.165  0.3963  0.0244  0.3516
 3785W        W17199   8.371   5.772   3.776 -0.0621 -0.2696 -0.0102
 3786W        W17200  12.741   9.105   3.445 -0.0374 -0.1078 -0.0583
 3787W        W17201  11.432   1.617   4.608 -0.0703 -0.0846 -0.1226
 3788W        W17202   4.269  15.687  16.269 -0.2021 -0.1169 -0.0557
 3789W        W17203   5.754  11.595   0.875  0.2662  0.2761 -0.2186
 3790W        W17204  14.775   1.982  12.163 -0.0328 -0.1435 -0.1915
 3791W        W17205  15.135   6.334   0.678  0.2825 -0.1518  0.0451
 3792W        W17206   0.575  12.741  14.272  0.2037  0.0681  0.2016
 3793W        W17207   2.847  10.545  11.326  0.1693  0.2631 -0.1157
 3794W        W17208  14.051  14.098   6.331 -0.1529 -0.0473 -0.0925
 3795W        W17209  14.935   5.160  11.875 -0.0309 -0.1208 -0.1019
 3796W        W17210  16.590  11.792   4.157  0.1913  0.0648  0.2517
 3797W        W17211  14.866  13.123  10.738  0.1805  0.1024 -0.1662
 3798W        W17212   3.405   5.680  15.875  0.2057 -0.0449 -0.1259
 3799W        W17213   7.943  18.088   4.335 -0.0605  0.1265  0.1262
 3800W        W17214  10.984  16.936   4.784 -0.1504 -0.0757  0.0382
 3801W        W17215  14.283  16.575   4.791 -0.2774 -0.1339 -0.1234
 3802W        W17216   4.720   4.970   5.031 -0.0564  0.0387 -0.3130
 3803W        W17217   4.423  10.694   6.205 -0.0994 -0.1238  0.1001
 3804W        W17218  16.480   2.706   4.953  0.0067 -0.0514  0.2226
 3805W        W17219  12.936  14.986   3.934 -0.2152  0.0247  0.1280
 3806W        W17220  14.417  11.507   5.728  0.4271  0.2331  0.1216
 3807W        W17221  10.126  15.586  10.469  0.0776  0.0771  0.0851
 3808W        W17222   8.812  11.400   5.765 -0.0985 -0.0526  0.1740
 3809W        W17223   8.301   2.152   4.561  0.2536 -0.1289 -0.0137
 3810W        W17224  17.601   6.354   4.215  0.1139 -0.1283  0.1427
 3811W        W17225   9.030  10.985   5.971 -0.1492  0.2683 -0.0828
 3812W        W17226   0.320  15.469   5.554 -0.0260  0.2056  0.0167
 3813W        W17227  17.108   9.745  13.675 -0.0621 -0.1815 -0.0974
 3814W        W17228  14.652  15.963  12.842  0.0504 -0.2829 -0.0105
 3815W        W17229  10.758  14.361  13.076 -0.1219 -0.0772 -0.0533
 3816W        W17230  14.217   1.845  14.726 -0.1807  0.1256  0.0182
 3817W        W17231  13.068  11.517  14.532  0.2247 -0.1624 -0.1398
 3818W        W17232   1.541  14.444  12.467 -0.1338 -0.3028  0.1110
 3819W        W17233   4.906   0.312  11.935  0.1128 -0.0578  0.1374
 3820W        W17234   6.130   6.374  14.504  0.1952  0.1447  0.1331
 3821W        W17235   1.079   3.173  16.253 -0.2328 -0.2346 -0.0434
 3822W        W17236   1.064  11.498  12.106 -0.3419  0.0817 -0.0748
 3823W        W17237   5.345   3.635   1.139 -0.1361 -0.1430 -0.0664
 3824W        W17238   1.469  14.389   1.024 -0.2628 -0.2618  0.2574
 3825W        W17239   1.089  12.883  11.916 -0.0284 -0.1055  0.1660
 3826W        W17240   2.996   0.832   1.469  0.1624 -0.1674 -0.2614
 3827W        W17241  15.692   0.760  12.651  0.2534  0.0508  0.0673
 3828W        W17242   8.796   2.220  14.003  0.1114 -0.0469  0.0062
 3829W        W17243  17.987   7.517  10.908 -0.1864  0.0491 -0.0274
 3830W        W17244   6.844  17.483  10.301 -0.0330 -0.0588  0.0317
 3831W        W17245  17.284  13.672  15.861 -0.2597 -0.3577 -0.0626
 3832W        W17246  14.736  17.493   1.056  0.1213  0.1259 -0.1372
 3833W        W17247   7.395   0.032  15.068  0.1388 -0.1639  0.2759
 3834W        W17248   6.828   4.228  15.914  0.0138  0.1069 -0.1139
 3835W        W17249  13.132  13.073  13.794 -0.0871 -0.1836 -0.3116
 3836W        W17250   2.598  17.963  16.341  0.1269 -0.0775  0.1314
 3837W        W17251   7.370   0.264   3.636  0.0391  0.1532  0.0077
 3838W        W17252  14.456   4.032   2.592 -0.0442  0.0163 -0.0773
 3839W        W17253   8.679   7.570   4.236 -0.2342 -0.2129  0.1531
 3840W        W17254  14.449  17.591   2.145 -0.1993  0.0868  0.0007
 3841W        W17255  15.063  17.293  14.260  0.1272 -0.0808  0.2545
 3842W        W17256  13.631   0.172  16.417 -0.2757  0.0152  0.0040
 3843W        W17257   0.016   9.142  14.671 -0.0123  0.0920  0.0667
 3844W        W17258   6.219   9.539   3.040 -0.0519 -0.1294  0.1638
 3845W        W17259   9.685   7.281  14.174  0.0296  0.0027  0.0027
 3846W        W17260   0.368  11.696   1.990  0.0323 -0.0003  0.3644
 3847W        W17261   5.414  15.697   0.974 -0.0122  0.1203  0.2019
 3848W        W17262   9.389  11.429   3.517 -0.0315  0.1833 -0.2924
 3849W        W17263  15.662   0.206   0.778  0.1297 -0.0864 -0.1085
 3850W        W17264   0.188   9.526   4.170 -0.3958  0.1397  0.2298
 3851W        W17265   5.897   4.990   3.782  0.1260  0.3465  0.2236
 3852W        W17266  15.143  14.791  11.109 -0.3613  0.0939  0.0667
 3853W        W17267   3.497  17.837   2.316 -0.2016  0.1176 -0.1000
 3854W        W17268  16.930  15.450   1.839  0.0813  0.3030 -0.1185
 3855W        W17269   1.510  10.818  15.571  0.4931  0.1149 -0.1227
 3856W        W17270  16.560  11.210  14.342  0.0401 -0.0806  0.2497
 3857W        W17271   2.764  15.334  12.688 -0.0127  0.1219  0.0979
 3858W        W17272   9.239  12.980   1.812  0.0142 -0.1643  0.1971
 3859W        W17273  16.072  12.999  15.340  0.4774 -0.3128  0.1077
 3860W        W17274  16.278   2.443   2.922 -0.0147  0.0873 -0.3964
 3861W        W17275   4.117   0.401   4.373 -0.0514  0.3157  0.1774
 3862W        W17276   3.315   9.371  13.454 -0.1441 -0.0678  0.0815
 3863W        W17277   0.599  17.717   1.303  0.1433 -0.2175  0.3404
 3864W        W17278   1.957   4.548   2.699  0.0811  0.2665 -0.1375
 3865W        W17279   7.469  15.495   0.729 -0.1491  0.1881  0.1138
 3866W        W17280   7.805  11.626  13.591  0.0973  0.0763  0.3180
 3867W        W17281  13.595   4.705  13.023  0.0426  0.2294 -0.1479
 3868W        W17282  15.128  14.482   0.300 -0.0635  0.0362  0.3237
 3869W        W17283   1.984   8.793  16.229  0.0659  0.0562  0.1862
 3870W        W17284  10.049  17.993  14.644  0.3354 -0.2841 -0.2126
 3871W        W17285   6.265   3.168  13.156  0.2327  0.0977 -0.0390
 3872W        W17286   9.464   8.560  11.081  0.1575 -0.1756 -0.2757
 3873W        W17287   3.463   2.967  15.648 -0.2296  0.0951  0.0176
 3874W        W17288  17.726   9.973  14.489 -0.0108 -0.2675  0.1599
 3875W        W17289   8.262   1.007  13.978 -0.0708  0.4485  0.3179
 3876W        W17290   3.464  10.779   6.279 -0.2482 -0.2114 -0.1625
 3877W        W17291  13.849  16.523  11.438 -0.1512  0.2803  0.2666
 3878W        W17292   0.828   2.544   0.597 -0.2207  0.0758 -0.2436
 3879W        W17293   5.025   1.717   1.061  0.0510 -0.0798  0.3043
 3880W        W17294  10.847  17.085   4.136  0.3578 -0.0508  0.0870
 3881W        W17295   3.595   4.006   2.206 -0.0176 -0.1165  0.1856
 3882W        W17296   2.540   4.476   3.897  0.1110  0.2040  0.1418
 3883W        W17297  16.125   7.191  16.346  0.2870  0.2540 -0.1972
 3884W        W17298   9.674  10.665  12.222 -0.3033  0.2474 -0.0685
 3885W        W17299  14.581  11.117   5.455  0.2786 -0.2270 -0.1922
 3886W        W17300   6.295  12.685  10.279 -0.0046 -0.0576 -0.2285
 3887W        W17301   1.990   8.678   4.307 -0.1810  0.2867 -0.4263
 3888W        W17302   5.468   7.639  10.974 -0.1604 -0.0868  0.3801
 3889W        W17303   8.837  10.918  11.733 -0.1096  0.0353  0.1957
 3890W        W17304   0.126   3.607  12.768  0.3200 -0.0523  0.0578
 3891W        W17305  15.457   2.541  12.556 -0.1399  0.2633 -0.1416
 3892W        W17306   5.357  10.884  15.205 -0.2782  0.1718 -0.0102
 3893W        W17307  14.112   9.707   1.558 -0.2536 -0.0408 -0.0694
 3894W        W17308  14.079   3.683   2.721  0.1779 -0.1567  0.0980
 3895W        W17309  13.692  17.348  12.052  0.0291  0.0341 -0.0240
 3896W        W17310   1.727  12.435  10.808  0.1747 -0.1156  0.0991
 3897W        W17311   0.658   7.563  11.311  0.2989 -0.2976  0.3011
 3898W        W17312   4.632  16.897  10.119  0.1081  0.1395 -0.1026
 3899W        W17313  14.102   2.909   0.801 -0.0287  0.0183 -0.2169
 3900W        W17314   2.691  11.960   0.991 -0.0117 -0.3752  0.1072
 3901W        W17315  13.268   0.761  15.818 -0.2911 -0.2754 -0.0739
 3902W        W17316   4.441  10.018  12.705 -0.2498  0.0671 -0.0241
 3903W        W17317   1.334  14.824   3.105  0.1093 -0.0468  0.1424
 3904W        W17318   4.996  12.107  11.796 -0.0276 -0.1347  0.0382
 3905W        W17319  10.613   1.302  15.835 -0.0718  0.0262 -0.0223
 3906W        W17320   1.251   9.878   1.644  0.0603  0.0211 -0.1169
 3907W        W17321  11.287  14.103  15.194 -0.0135  0.4212 -0.4923
 3908W        W17322   5.921  12.364   4.007  0.0274 -0.1312  0.0857
 3909W        W17323  11.283   1.116   3.249  0.0384  0.0854  0.1686
 3910W        W17324   3.702  13.275  11.673 -0.0790 -0.2392  0.0638
 3911W        W17325  15.746   5.696   2.516  0.0489  0.1544 -0.0765
 3912W        W17326   7.424   5.759   5.378 -0.1431 -0.1495  0.1127
 3913W        W17327  11.901  14.994  10.427  0.1375  0.2659  0.2891
 3914W        W17328   9.035   8.375   3.315 -0.0588 -0.0832  0.3498
 3915W        W17329  17.861   0.523   3.718 -0.2276  0.1192 -0.0444
 3916W        W17330   7.089   4.215  16.417 -0.3183 -0.1358  0.0757
 3917W        W17331  14.149  16.198   3.384  0.0363 -0.2534  0.0616
 3918W        W17332   4.174   6.494   4.437 -0.0580 -0.1851 -0.2216
 3919W        W17333   3.347   9.078  12.516  0.1206 -0.1006  0.0359
 3920W        W17334  12.602  11.907   0.545 -0.2374 -0.3476 -0.1510
 3921W        W17335   1.077  15.564   9.951  0.0856 -0.1275 -0.2015
 3922W        W17336  15.411  12.374  11.220  0.0570  0.1488  0.1070
 3923W        W17337   8.772  15.947  11.520 -0.0849  0.1762 -0.2115
 3924W        W17338  12.056   9.388   0.343 -0.0911 -0.1648  0.0601
 3925W        W17339  10.245   5.128  10.261  0.1005  0.0506 -0.2038
 3926W        W17340   3.388  12.698   1.553 -0.2350 -0.1121  0.2479
 3927W        W17341  11.932  14.332  13.694  0.0394  0.0688  0.1399
 3928W        W17342   1.995   5.689   4.789 -0.0487 -0.0774  0.1431
 3929W        W17343   3.309  14.020  11.688  0.0321 -0.2374  0.1188
 3930W        W17344   1.384  17.045  16.156 -0.1940  0.1091 -0.0236
 3931W        W17345  17.141   8.018  15.226 -0.1391  0.2527 -0.0544
 3932W        W17346   6.224   7.440   2.760 -0.0429  0.1426 -0.0197
 3933W        W17347   8.031  10.807   2.592 -0.3197  0.0003  0.0702
 3934W        W17348   1.151   2.091  14.702 -0.2218 -0.0012 -0.1881
 3935W        W17349   6.339   7.297  13.466 -0.1625  0.0818  0.0573
 3936W        W17350   6.895  14.606   1.182 -0.1866  0.0869  0.2140
 3937W        W17351  18.094  13.104  13.562 -0.1020  0.0940  0.2475
 3938W        W17352   3.259  17.666   1.842  0.0299 -0.0939  0.0271
 3939W        W17353  10.254   8.888  12.154  0.2201 -0.3414 -0.3552
 3940W        W17354  16.588  11.936  12.922 -0.3118 -0.1186 -0.2617
 3941W        W17355  13.868  17.468  16.467 -0.0678 -0.2021 -0.4028
 3942W        W17356   6.849   2.116  12.973 -0.1747 -0.0239 -0.1852
 3943W        W17357  14.901  16.668  12.951  0.0639  0.2209  0.0831
 3944W        W17358  16.745  13.950  15.990  0.0068  0.0048 -0.0185
 3945W        W17359  11.021   1.999  14.893  0.1625 -0.3169 -0.3025
 3946W        W17360  16.732  18.116   5.609  0.2186 -0.0445 -0.1391
 3947W        W17361   5.155  11.065   2.131 -0.1341  0.0429 -0.0071
 3948W        W17362  11.224   9.002  15.592 -0.2838 -0.2672  0.1549
 3949W        W17363   7.393   7.972  11.284 -0.2663 -0.0613  0.0341
 3950W        W17364  12.172   6.495   5.261  0.0543  0.1318 -0.0411
 3951W        W17365   0.330   2.701  11.515  0.0230 -0.0853 -0.1521
 3952W        W17366   8.395  14.621   2.089 -0.1705  0.4210 -0.1108
 3953W        W17367   5.092   0.986   3.233  0.0763  0.1425  0.2913
 3954W        W17368  17.025  15.285  16.074 -0.1147  0.1157 -0.1796
 3955W        W17369   5.714  17.847  14.197  0.2609 -0.1266 -0.0294
 3956W        W17370  11.935   0.448   3.663 -0.0710  0.0853  0.0290
 3957W        W17371   2.629   6.019  12.878  0.0139  0.0154  0.5920
 3958W        W17372  11.926   3.888  16.256  0.0284  0.1482  0.1802
 3959W        W17373  17.828   6.380   1.945  0.0576  0.1326  0.0921
 3960W        W17374   7.249   4.018   1.460 -0.2195  0.2679  0.1593
 3961W        W17375   3.808  18.177   5.789 -0.0177 -0.3281 -0.0808
 3962W        W17376  10.036   7.994  10.119  0.1717 -0.0091  0.0631
 3963W        W17377  10.110   1.611   4.399 -0.3115 -0.0940  0.0886
 3964W        W17378   1.833  13.669   5.079  0.0116  0.0078  0.3988
 3965W        W17379  13.754   4.794   4.164  0.1970  0.0759  0.1366
 3966W        W17380   8.227   2.468   4.149  0.1438  0.0858 -0.1385
 3967W        W17381   8.092   8.811   4.929  0.0824 -0.0169  0.1093
 3968W        W17382  13.080   4.083   1.026  0.0301 -0.2432  0.1175
 3969W        W17383  14.668  12.279  13.255  0.0471  0.0524 -0.2262
 3970W        W17384   9.208  11.266  15.788 -0.1639 -0.1124  0.4010
 3971W        W17385   1.690  18.168  14.368  0.0297  0.1901 -0.1810
 3972W        W17386   2.131   1.506   5.570  0.1350 -0.1296 -0.1817
 3973W        W17387   4.799  10.817  13.078  0.1143 -0.2162 -0.2909
 3974W        W17388   0.987  10.871   1.412 -0.4978  0.1922  0.3547
 3975W        W17389  14.692  12.244   4.307 -0.1010  0.3442  0.2219
 3976W        W17390  12.939   9.119   4.929 -0.0240  0.1464 -0.4150
 3977W        W17391  13.519  15.970   3.404 -0.0569  0.1273  0.2438
 3978W        W17392  17.157   9.973   4.440 -0.1350  0.3254  0.0982
 3979W        W17393   0.400  16.009  15.779 -0.1226 -0.1938  0.1465
 3980W        W17394  13.301  10.817  11.954  0.2982 -0.0546  0.2521
 3981W        W17395  12.617   2.898  16.374  0.1062 -0.1748  0.1211
 3982W        W17396   6.899   2.489   4.814 -0.0129  0.0854  0.0935
 3983W        W17397  11.694  15.681  11.276 -0.0558 -0.1802 -0.0308
 3984W        W17398  17.423   9.408   1.486 -0.3101  0.0429 -0.1697
 3985W        W17399   4.320  12.297   3.540 -0.0143  0.1909 -0.4556
 3986W        W17400   0.425   9.411  14.563  0.0172 -0.1003 -0.0761
 3987W        W17401   8.457   7.541   4.689 -0.3338  0.2198 -0.0848
 3988W        W17402  14.864  10.996   1.519  0.2161 -0.0688  0.3398
 3989W        W17403   2.604   8.376  14.179  0.1168  0.0923  0.2359
 3990W        W17404  11.843  14.167  14.747 -0.1264  0.0718  0.1211
 3991W        W17405   9.747  13.967  13.975  0.0603  0.0448 -0.1553
 3992W        W17406  15.942  13.073   6.090 -0.3511 -0.1599 -0.0737
 3993W        W17407   0.535   2.591  12.070 -0.0422  0.0352  0.2035
 3994W        W17408   6.795  17.874  15.269  0.0337  0.1126 -0.0768
 3995W        W17409   6.996   9.792   0.179  0.3530  0.0601  0.2946
 3996W        W17410   7.992  10.080  12.127 -0.1548 -0.2016 -0.2771
 3997W        W17411  14.835   1.666   1.176  0.2861 -0.1967  0.1410
 3998W        W17412   2.338   9.848   5.501  0.4062 -0.1025 -0.3031
 3999W        W17413   3.814  15.126   1.533 -0.0184 -0.2938 -0.3718
 4000W        W17414  17.577  14.399  10.552 -0.2331  0.0865 -0.1000
 4001W        W17415  10.183   0.274  13.878  0.0081 -0.0232  0.0706
 4002W        W17416   8.706  16.214   2.025  0.0546  0.1606 -0.1270
 4003W        W17417  14.227  18.164   4.932 -0.1148 -0.1565 -0.2045
 4004W        W17418  14.445   1.418  14.513  0.0072  0.1567  0.2161
 4005W        W17419   7.476   8.416   0.907 -0.1066  0.0320 -0.2923
 4006W        W17420   8.695  10.599   0.712  0.1767 -0.3579  0.3477
 4007W        W17421   0.190   1.173  14.997 -0.0242  0.1573 -0.0540
 4008W        W17422   1.629   4.249  11.905 -0.0316  0.1620  0.0931
 4009W        W17423  14.159  16.627   3.123 -0.0364  0.3729 -0.0074
 4010W        W17424   7.459   5.650   1.024 -0.1105 -0.1795  0.0610
 4011W        W17425   4.205   9.847  15.477 -0.0823  0.2866 -0.1498
 4012W        W17426   2.283   8.398   2.275  0.1063 -0.0304  0.0985
 4013W        W17427   7.719  12.003   4.514 -0.1835  0.1730  0.0905
 4014W        W17428   6.727   1.792   3.598  0.1473  0.2149 -0.0680
 4015W        W17429  14.549   8.238   1.042 -0.0263  0.1523  0.2030
 4016W        W17430  16.327   4.600  14.222 -0.0199  0.3375 -0.0204
 4017W        W17431   6.939  11.555   2.103  0.1460 -0.1770  0.0597
 4018W        W17432   3.540   9.244  14.500 -0.0716 -0.0611 -0.1044
 4019W        W17433   9.192  12.641   0.820  0.0592 -0.5474 -0.1878
 4020W        W17434   0.350  15.748   3.750 -0.2054 -0.1099  0.0859
 4021W        W17435   4.002   9.635   1.731  0.2901 -0.1001  0.1814
 4022W        W17436   4.593   7.561   0.532 -0.0123 -0.1210  0.0627
 4023W        W17437  11.389   6.453   6.052 -0.2091 -0.1447 -0.0602
 4024W        W17438  15.294  12.797   2.385 -0.1718  0.2115 -0.3473
 4025W        W17439   8.928   0.141   4.989 -0.1171 -0.0319 -0.2543
 4026W        W17440   3.058  16.607  11.255  0.0331  0.1605 -0.0463
 4027W        W17441  17.396   9.283  15.780  0.1286 -0.4707  0.0036
 4028W        W17442   4.269  12.006  12.617  0.1685  0.0649  0.0277
 4029W        W17443  12.113   4.036   3.594 -0.0695 -0.0706 -0.0175
 4030W        W17444  17.788   9.602  10.913 -0.1721  0.0174  0.1737
 4031W        W17445   0.569   3.015  11.140  0.2451  0.3450  0.1401
 4032W        W17446   2.083   7.170  13.441  0.3154  0.0723 -0.3028
 4033W        W17447   4.243   1.689  11.588  0.2466  0.1659 -0.0924
 4034W        W17448  12.518   9.667  13.181  0.0437  0.2148  0.1542
 4035W        W17449   4.460   1.681   9.988 -0.0121  0.2109  0.2368
 4036W        W17450  12.344  13.565  10.778  0.0782  0.0927 -0.0445
 4037W        W17451   3.583   7.325  13.598 -0.0633  0.0072 -0.1873
 4038W        W17452   7.962   3.006   1.979  0.2068  0.0306 -0.1673
 4039W        W17453   0.229   0.187  10.724  0.0300 -0.3877 -0.0824
 4040W        W17454   1.282   5.137   4.354  0.2770  0.0253 -0.0581
 4041W        W17455   8.534   8.154  15.187 -0.0293 -0.0447 -0.0696
 4042W        W17456   8.059   6.262   1.313 -0.3428  0.3105  0.0159
 4043W        W17457  17.494  15.948   2.088 -0.0879 -0.1545  0.1667
 4044W        W17458  13.428  16.891   3.666 -0.2171  0.2058  0.1117
 4045W        W17459   5.582   0.947  13.596  0.3062 -0.1293  0.0274
 4046W        W17460  15.174   5.991  16.182  0.1054 -0.3418 -0.1238
 4047W        W17461   3.886  10.832   2.109 -0.1530 -0.1092  0.0474
 4048W        W17462   6.455  17.052  13.712  0.0516  0.0032  0.2201
 4049W        W17463   8.623  16.850   1.910  0.0538  0.0286 -0.1153
 4050W        W17464  16.666   0.721   3.287 -0.1720  0.0933 -0.4055
 4051W        W17465  11.264  17.478  11.079 -0.0723 -0.3106 -0.0327
 4052W        W17466   7.211   3.333   2.022 -0.1190  0.2217  0.0337
 4053W        W17467  10.669  13.830   4.655 -0.1516 -0.0422 -0.1960
 4054W        W17468   4.285   0.941  13.374 -0.2085  0.2404 -0.1141
 4055W        W17469   4.366  12.093  13.070 -0.2151 -0.0429 -0.4464
 4056W        W17470   2.559   0.711  12.630  0.3799 -0.2978 -0.1150
 4057W        W17471  14.065   8.329   2.338 -0.0306 -0.0219 -0.0849
 4058W        W17472  16.454  13.401  16.230 -0.2685  0.3919  0.3193
 4059W        W17473  17.233  16.533   0.371 -0.0401  0.0211 -0.0873
 4060W        W17474   6.726  13.518   2.102 -0.0445 -0.0104  0.3681
 4061W        W17475  15.223   7.695   5.948  0.1046  0.0930  0.3966
 4062W        W17476  16.341   7.108  14.018 -0.5720 -0.2705 -0.0029
 4063W        W17477   1.507  18.132   4.852 -0.2134 -0.0902 -0.0361
 4064W        W17478   1.201   0.502   3.700 -0.2623  0.2540 -0.2025
 4065W        W17479  14.709   0.059   4.812  0.0888  0.0172  0.1887
 4066W        W17480  16.522  13.239  11.028  0.0372 -0.0341  0.0234
 4067W        W17481   3.635   5.417  13.697  0.0610  0.1998  0.1216
 4068W        W17482   2.653   9.838   4.029 -0.2691  0.1749  0.0446
 4069W        W17483   7.759  16.461   0.290 -0.1926  0.1827 -0.0792
 4070W        W17484  14.424  10.753   2.224 -0.0964 -0.0168 -0.0962
 4071W        W17485   0.694   5.047   3.117 -0.0340 -0.1121  0.0410
 4072W        W17486   1.555   7.609   2.591 -0.2271  0.1415 -0.2034
 4073W        W17487   9.536   9.310   5.800  0.1354 -0.1236  0.3130
 4074W        W17488  13.385  17.931   2.950  0.1787 -0.0143 -0.1180
 4075W        W17489  11.859  14.255  12.059 -0.2448  0.3588  0.3142
 4076W        W17490   8.297   8.454  14.834 -0.0077 -0.0660 -0.2088
 4077W        W17491  18.172   3.310   2.914  0.4303 -0.3872  0.2452
 4078W        W17492  11.677   4.811   3.577 -0.0213  0.1924  0.0659
 4079W        W17493   7.704  18.119  14.664  0.1059 -0.2116 -0.1105
 4080W        W17494  10.247   2.986  14.373 -0.1764 -0.0715 -0.0606
 4081W        W17495   2.573  10.051   0.047 -0.2539  0.1540  0.0780
 4082W        W17496  14.358  15.861  14.902  0.1718 -0.2448 -0.0714
 4083W        W17497   7.506  13.759   1.253 -0.1028  0.6483 -0.0960
 4084W        W17498  11.877   5.205   3.248  0.1213  0.2467 -0.1595
 4085W        W17499   7.133   2.090  11.232  0.0950  0.1282  0.0809
 4086W        W17500   6.452   1.114   3.035 -0.0541  0.1228 -0.3855
 4087W        W17501   1.645   4.516   0.150 -0.1925  0.0940 -0.2448
 4088W        W17502   7.839  12.704   3.730 -0.0270  0.0134 -0.0754
 4089W        W17503  12.988   6.253   5.443 -0.0145  0.1942 -0.3683
 4090W        W17504  16.496  15.244   3.195 -0.2046  0.0185 -0.1124
 4091W        W17505  17.660   3.355   5.956  0.2916  0.2677  0.0549
 4092W        W17506  13.913   3.687   5.119  0.1175  0.2421  0.2317
 4093W        W17507   1.757   3.694   4.153  0.1649 -0.2385  0.1023
 4094W        W17508  14.517   0.993  14.298 -0.0932  0.1623 -0.1794
 4095W        W17509   6.407   3.136  12.672  0.1296 -0.1902 -0.0278
 4096W        W17510   4.494  14.865  13.250 -0.0485 -0.1540 -0.0022
 4097W        W17511   4.451  16.775   2.310  0.0678  0.1196 -0.0370
 4098W        W17512   7.962   0.282   2.233 -0.1761  0.1030  0.0574
 4099W        W17513   5.378  14.883  12.707  0.2446  0.1608 -0.0382
 4100W        W17514  11.234   6.391   1.050  0.0422  0.0432 -0.4197
 4101W        W17515   3.708   0.891  10.968  0.2153  0.2452 -0.1381
 4102W        W17516   3.872  17.724  14.174  0.0006  0.1458 -0.1525
 4103W        W17517   2.487   4.306   2.247  0.0392 -0.1424  0.3549
 4104W        W17518   7.890   0.126   5.717  0.1129  0.0246  0.3000
 4105W        W17519  18.216   0.853  12.715  0.1864  0.0117  0.1268
 4106W        W17520  10.992   1.725   2.013 -0.2448 -0.0485 -0.0246
 4107W        W17521   2.405   0.862  14.961 -0.1593  0.0341  0.3689
 4108W        W17522   5.478   4.928  10.930 -0.1210  0.0469 -0.1188
 4109W        W17523  12.571   2.215  12.074  0.1056 -0.5054  0.0044
 4110W        W17524   4.789   0.526  13.685  0.1094  0.0827 -0.0902
 4111W        W17525  17.798   3.021   3.672 -0.1323 -0.0910 -0.0948
 4112W        W17526   5.339   4.988   2.178  0.0275  0.0315 -0.1765
 4113W        W17527   2.493  11.499   5.277 -0.2021 -0.0512 -0.2694
 4114W        W17528  15.045  14.285   4.924 -0.1587  0.1260 -0.3342
 4115W        W17529  16.093  12.244  13.764 -0.1096  0.1355  0.1513
 4116W        W17530  16.205   3.325  15.798 -0.0778 -0.0173  0.2702
 4117W        W17531   7.412  17.018  12.023  0.2791  0.1503  0.1600
 4118W        W17532  16.326  11.227   5.016  0.1132  0.0061 -0.0659
 4119W        W17533   4.026   0.567   1.980 -0.1992  0.2757  0.1987
 4120W        W17534  13.765   6.661   4.456  0.1487  0.1382  0.1590
 4121W        W17535   4.338  13.614   3.141  0.1159 -0.1618 -0.1202
 4122W        W17536  16.038  17.374   1.859 -0.1327 -0.0053  0.0435
 4123W        W17537  16.138  16.411  15.985  0.0479  0.2392 -0.1275
 4124W        W17538  16.884  11.749   0.897  0.2408  0.3109  0.2312
 4125W        W17539   7.775  13.682  11.297 -0.4228 -0.0002  0.1423
 4126W        W17540   4.400  15.308  11.017  0.0841  0.1409 -0.3028
 4127W        W17541   1.437  13.398   1.964 -0.0460 -0.1529 -0.3081
 4128W        W17542  15.607  10.207  16.503  0.0418 -0.1819  0.1503
 4129W        W17543   8.299   7.110  16.449  0.2596  0.0915  0.0477
 4130W        W17544   0.244   0.632   2.047  0.3483  0.0363 -0.2613
 4131W        W17545   2.645   3.158   5.014 -0.1692  0.1648  0.0878
 4132W        W17546   6.177  17.814  14.213  0.1021 -0.1465 -0.2349
 4133W        W17547  17.536   5.978   5.991  0.0852 -0.0437  0.1679
 4134W        W17548   9.141   0.294  10.629  0.0704 -0.0399  0.1328
 4135W        W17549   3.069  14.277  13.604  0.0115 -0.0497  0.3291
 4136W        W17550  17.925   3.578   2.458 -0.0057 -0.0821  0.0809
 4137W        W17551   6.769  17.477  11.309  0.1581 -0.0774 -0.0840
 4138W        W17552   7.726  14.947  12.958 -0.0791  0.0706  0.0578
 4139W        W17553  15.524  17.417   1.104  0.1006  0.2813  0.0272
 4140W        W17554   4.506  11.252  13.206  0.1574  0.0028  0.3217
 4141W        W17555  12.680   4.334  14.691 -0.0071  0.3859 -0.3851
 4142W        W17556   7.282  14.025   0.377  0.3225 -0.2476  0.0865
 4143W        W17557   7.099  16.995  16.259 -0.0017  0.1400  0.4515
 4144W        W17558   3.597   0.379   3.015 -0.0468 -0.1018  0.1346
 4145W        W17559   5.049   4.839  14.798 -0.4485  0.0282  0.1276
 4146W        W17560  13.943   8.831  14.412  0.0583  0.0037  0.0982
 4147W        W17561   5.328   0.568  11.852 -0.0724  0.2186 -0.1054
 4148W        W17562  17.415   6.547  12.336 -0.0712  0.1156  0.0338
 4149W        W17563  12.165   9.579   1.306  0.2682  0.0478 -0.1083
 4150W        W17564   8.557  15.912   2.842 -0.1897  0.1779  0.2111
 4151W        W17565   5.039   5.478  16.487 -0.0261  0.0170  0.0456
 4152W        W17566  16.812   7.885  11.824 -0.1656  0.0645  0.0758
 4153W        W17567  16.628  10.972  15.896  0.0285  0.3093 -0.0179
 4154W        W17568   0.413   3.482   2.916  0.1780  0.2529  0.3262
 4155W        W17569   5.336  14.853   4.822  0.0053 -0.1435  0.2141
 4156W        W17570  12.471  15.494  14.985  0.0907 -0.2396  0.2020
 4157W        W17571   5.740  10.680   5.210 -0.2116  0.1616  0.1199
 4158W        W17572   4.361   9.821   4.702  0.1583  0.1315  0.2877
 4159W        W17573   1.578   1.074   4.125 -0.0593 -0.2603  0.0528
 4160W        W17574   9.366   7.547  13.846 -0.2038  0.1531  0.0663
 4161W        W17575   5.732  10.095   0.404 -0.1867  0.0153  0.2662
 4162W        W17576   4.286   5.323   3.440 -0.0957 -0.1441 -0.1102
 4163W        W17577  12.442   8.167   1.142  0.0329  0.2734 -0.0039
 4164W        W17578   0.011   2.506   0.358  0.4420  0.0351  0.0642
 4165W        W17579   8.197  13.608   3.211  0.0683 -0.0541 -0.1118
 4166W        W17580  10.020  15.841   5.388  0.0860  0.4547  0.1682
 4167W        W17581  15.749  11.328   3.774  0.3278 -0.1322  0.3115
 4168W        W17582   3.992   4.742   5.163 -0.1620 -0.2221  0.0022
 4169W        W17583  13.918  14.468  10.433 -0.1092  0.0404 -0.1109
 4170W        W17584  12.631   6.438   5.058  0.0883  0.0596  0.2113
 4171W        W17585  12.721   9.068   0.222  0.1001  0.1103 -0.0530
 4172W        W17586  11.678   4.174  14.126 -0.3515 -0.1099 -0.2439
 4173W        W17587  12.476   0.309   2.929  0.0870 -0.1424 -0.1184
 4174W        W17588  14.325  14.991   5.466 -0.0591  0.0989  0.2214
 4175W        W17589   2.907  12.233  13.420 -0.0440  0.2388 -0.3627
 4176W        W17590  10.399   3.828   3.858 -0.1447 -0.0602 -0.3712
 4177W        W17591  17.750  17.901   0.176  0.2453  0.0830 -0.1036
 4178W        W17592   5.644   8.183  11.751 -0.3261  0.0180 -0.0547
 4179W        W17593  15.029   5.561  15.346 -0.0850  0.0393 -0.1990
 4180W        W17594   9.127   6.805   3.796  0.0026 -0.1309 -0.0720
 4181W        W17595   1.194  13.104  13.706  0.1013  0.0113  0.1931
 4182W        W17596   4.974   7.190   1.865 -0.0847  0.0677  0.1140
 4183W        W17597   4.926  12.562   1.510  0.2802  0.0052  0.3906
 4184W        W17598   8.630   0.942   1.370  0.1314 -0.0325 -0.4621
 4185W        W17599  12.038  13.710  14.824 -0.1342  0.0875 -0.1280
 4186W        W17600  15.920   2.086  14.721  0.1635  0.0775 -0.0319
 4187W        W17601   3.928   7.055  13.906 -0.0797  0.2603  0.1098
 4188W        W17602   2.281  17.054   1.837 -0.0411 -0.1791  0.0637
 4189W        W17603   8.677   2.557   3.762  0.1464 -0.2306 -0.2118
 4190W        W17604  14.974   6.876   5.762  0.2401 -0.1295  0.1653
 4191W        W17605  13.296  16.348   3.675 -0.1933 -0.0308 -0.2558
 4192W        W17606   6.985   7.895  15.141 -0.2647 -0.0756 -0.1017
 4193W        W17607  13.921   1.970  10.415  0.2522 -0.1999  0.2154
 4194W        W17608  12.318   0.503  12.147  0.1203 -0.0660 -0.0727
 4195W        W17609   7.232   0.089  12.812 -0.1319 -0.2427 -0.1044
 4196W        W17610  12.187  11.853  13.269 -0.1586 -0.0252 -0.1347
 4197W        W17611  17.430   5.938   0.623  0.0424  0.0175  0.0378
 4198W        W17612   6.642   7.749  13.296 -0.0637 -0.5333 -0.1164
 4199W        W17613  11.249  18.154  13.268  0.0528 -0.1748  0.2941
 4200W        W17614  14.167   8.209   2.795  0.0521  0.1698  0.1203
 4201W        W17615  17.301  18.064  14.858  0.0731  0.1071  0.0007
 4202W        W17616   6.747   1.302   3.444 -0.0416 -0.0967 -0.0015
 4203W        W17617   8.228   4.658  11.092 -0.1027 -0.0067 -0.2039
 4204W        W17618   4.128   3.890   5.774  0.1525  0.0020 -0.2469
 4205W        W17619   1.802   3.586   5.093  0.0511 -0.2497  0.2033
 4206W        W17620  18.178  17.581  11.351 -0.1458  0.2954 -0.3222
 4207W        W17621   0.426   1.059   4.758  0.2026 -0.1038  0.4044
 4208W        W17622   5.517  16.337  12.565 -0.0497 -0.1495 -0.1021
 4209W        W17623   2.413  16.476  11.947 -0.2336  0.0109  0.0947
 4210W        W17624  12.063  12.128   5.216  0.1762  0.1057 -0.1758
 4211W        W17625  10.764  16.993   1.175 -0.0224  0.1099 -0.1306
 4212W        W17626   4.602   4.783   3.244  0.1702 -0.1820 -0.2219
 4213W        W17627   9.250   5.141   1.858  0.2831  0.0683 -0.1172
 4214W        W17628   1.378   3.420   2.447 -0.1232  0.3074  0.2457
 4215W        W17629  15.202  11.347  12.916  0.0543 -0.1106 -0.0354
 4216W        W17630   1.798  17.870  14.833  0.0997 -0.0213  0.0049
 4217W        W17631  12.545  14.036   5.085  0.3573 -0.0805 -0.0511
 4218W        W17632   6.466   9.720   0.026 -0.1320  0.1539  0.1451
 4219W        W17633  10.053   0.891  10.527 -0.0592 -0.1341 -0.0195
 4220W        W17634   1.854  15.395  12.302  0.3661  0.1146 -0.0480
 4221W        W17635   4.112  17.358   2.787  0.0478  0.2532  0.0124
 4222W        W17636   8.306  14.743   5.457  0.0429 -0.0957 -0.1438
 4223W        W17637   4.872   8.556   5.031 -0.1062 -0.2700 -0.2931
 4224W        W17638  12.550  16.104   3.305 -0.2386 -0.2259  0.1703
 4225W        W17639   2.728   5.234   1.487 -0.1371 -0.0102  0.0496
 4226W        W17640  13.576   7.014   3.035 -0.3640  0.1074  0.2132
 4227W        W17641   8.511   8.306   0.810 -0.3702  0.0849  0.0716
 4228W        W17642   9.962  13.234  14.537 -0.4355  0.0499  0.0968
 4229W        W17643   1.224   6.553  11.936  0.0099 -0.1661 -0.0643
 4230W        W17644   9.604  10.555  11.701 -0.3267 -0.3086  0.2771
 4231W        W17645   3.390  17.821  10.810 -0.2575 -0.0151 -0.1290
 4232W        W17646  12.445   1.754   2.854 -0.0815  0.1189 -0.0810
 4233W        W17647  14.093  17.274   0.952 -0.0209  0.0629 -0.2598
 4234W        W17648   7.796  11.516  10.861  0.0785  0.3088  0.2576
 4235W        W17649   0.846   9.477  13.537 -0.0122 -0.4010  0.1998
 4236W        W17650   3.852   8.022  16.208  0.2336 -0.0972 -0.2455
 4237W        W17651  12.831   5.788  11.314 -0.1567 -0.0834 -0.1327
 4238W        W17652  11.923  12.503   1.458 -0.0350  0.0239  0.0651
 4239W        W17653   6.981  11.236   1.078 -0.3226 -0.4249 -0.0912
 4240W        W17654   8.118  17.682  13.671  0.0363 -0.0319  0.3070
 4241W        W17655  12.023  10.431  12.753 -0.2887 -0.0252 -0.0785
 4242W        W17656  16.471   8.550   4.780  0.1385 -0.1312  0.1354
 4243W        W17657  13.461  13.928  15.640  0.1073  0.3469 -0.0605
 4244W        W17658   1.961   5.881  12.317  0.3849 -0.1562 -0.1337
 4245W        W17659   2.458  11.987  15.557 -0.1195  0.1069  0.1918
 4246W        W17660   1.194  11.184  11.708 -0.0033 -0.2322  0.3005
 4247W        W17661   3.233   8.785  12.001  0.1369 -0.2146 -0.0941
 4248W        W17662   5.049  18.033  13.180  0.0425 -0.2195 -0.0603
 4249W        W17663  10.610   2.117   1.878 -0.1541  0.0772  0.1882
 4250W        W17664  13.265  14.001  11.684 -0.3158 -0.0315 -0.0376
 4251W        W17665  16.913  12.024   3.866 -0.1762  0.0262  0.3220
 4252W        W17666  10.619  12.832  14.010  0.1717  0.0814  0.1359
 4253W        W17667   3.539  10.620   1.735  0.2110 -0.1515 -0.0206
 4254W        W17668   5.097   8.402  13.499 -0.1304  0.0304  0.1464
 4255W        W17669  10.243  16.818   9.680  0.0231  0.2299  0.0881
 4256W        W17670   5.759   1.620   4.819 -0.2395  0.2635 -0.5270
 4257W        W17671  16.463  15.758  13.497  0.2154 -0.1730 -0.2241
 4258W        W17672  13.263  14.793  14.477 -0.0053  0.1422  0.0393
 4259W        W17673   5.129  10.350   1.595 -0.0397 -0.0324  0.1849
 4260W        W17674  11.863   8.424   0.524 -0.0346 -0.0342 -0.0828
 4261W        W17675   9.122   6.238   1.392  0.1679 -0.2120  0.1275
 4262W        W17676  13.874   1.206   5.816 -0.2022 -0.1193 -0.1671
 4263W        W17677   7.338  10.865  15.902  0.0586  0.0302 -0.1831
 4264W        W17678  15.667   2.021  16.462 -0.0103  0.2866  0.0409
 4265W        W17679   8.832  17.470   2.691 -0.2133  0.0781  0.0143
 4266W        W17680   1.867  13.166   1.570 -0.3083 -0.0775  0.2219
 4267W        W17681   7.493  13.430  14.310 -0.1079  0.0367  0.0284
 4268W        W17682  14.397   0.615  13.310  0.1740 -0.1774 -0.3007
 4269W        W17683  17.690   3.168   2.694  0.1820 -0.3979 -0.1517
 4270W        W17684  17.208  17.819  11.576 -0.1192 -0.1181  0.3022
 4271W        W17685   4.350  17.539  13.337  0.0202  0.2270 -0.2517
 4272W        W17686  16.555   7.911   6.565 -0.0815 -0.2138 -0.0290
 4273W        W17687  14.336  11.428   3.904  0.0624 -0.1440  0.1706
 4274W        W17688   8.620   6.479   0.424  0.0097  0.3326 -0.2033
 4275W        W17689   4.344   5.258  12.065 -0.3018 -0.2267 -0.1167
 4276W        W17690   7.457   0.775   3.058  0.2000 -0.0267 -0.1987
 4277W        W17691   6.285   5.671   4.235  0.0912  0.2138 -0.0295
 4278W        W17692  10.474  15.484   3.545  0.3286  0.0960  0.0432
 4279W        W17693   4.556   4.498   5.897  0.0618 -0.2212  0.0336
 4280W        W17694   4.330   3.348  15.811  0.2276 -0.1669  0.2316
 4281W        W17695   0.128  13.370  10.075  0.2079 -0.1020  0.0545
 4282W        W17696   8.201   3.858   0.657  0.1912 -0.3009 -0.2488
 4283W        W17697   9.536   8.960  10.735 -0.1536 -0.0461  0.0932
 4284W        W17698  17.669  11.966   3.331  0.2413 -0.2574 -0.1418
 4285W        W17699  10.731  16.511   1.433  0.0599  0.1299 -0.0313
 4286W        W17700  12.282  10.828  13.460 -0.1911 -0.0335  0.1112
 4287W        W17701  14.629   7.398  16.171  0.3323  0.0756  0.1068
 4288W        W17702   2.453  15.008  15.995  0.2529 -0.0458  0.1106
 4289W        W17703  17.584   9.442  16.259 -0.1341 -0.0644  0.2081
 4290W        W17704  16.569   5.548  15.090 -0.1059  0.3482 -0.2480
 4291W        W17705  16.226   5.379  13.910  0.3888 -0.0145 -0.1735
 4292W        W17706  12.172   2.671   3.184 -0.0124 -0.2318 -0.2191
 4293W        W17707   6.993   9.932   2.417  0.0010  0.1026  0.2155
 4294W        W17708  11.256  11.604   5.503 -0.0082 -0.0481  0.0728
 4295W        W17709  16.824   7.887   1.353 -0.1235  0.2080  0.1506
 4296W        W17710   1.559  17.280  14.193  0.4261 -0.1390 -0.2011
 4297W        W17711   9.733  13.651  14.345  0.1451  0.0291 -0.1697
 4298W        W17712  14.205  15.990   0.698  0.2182  0.1104  0.0022
 4299W        W17713   9.611   7.768  14.258  0.3535 -0.0410 -0.2677
 4300W        W17714  17.162  10.249  12.731  0.2260  0.1357 -0.0726
 4301W        W17715   5.417   5.799   3.900  0.0489  0.2455 -0.0437
 4302W        W17716  17.256  10.389   5.349 -0.1681  0.1654  0.0242
 4303W        W17717   3.605  17.097  14.968  0.0181 -0.0335 -0.1357
 4304W        W17718   6.324  17.943  14.670 -0.0410 -0.0765 -0.0540
 4305W        W17719  13.844  11.632  14.079  0.1218 -0.0227  0.0901
 4306W        W17720  12.152   8.068   4.424 -0.1680  0.2183  0.2583
 4307W        W17721  12.139   4.631   0.176  0.3143 -0.0822  0.0081
 4308W        W17722  12.578  13.656   2.460  0.3233  0.0853 -0.4541
 4309W        W17723   6.754   1.848   1.181  0.2363  0.2009 -0.1507
 4310W        W17724   5.242   9.816  11.954 -0.1318  0.2814 -0.2204
 4311W        W17725  12.395  16.176  10.580  0.0324 -0.0735  0.2464
 4312W        W17726  18.187   9.591  10.478 -0.0427  0.0193  0.0312
 4313W        W17727  11.324  10.600   4.060  0.4026 -0.0420 -0.1133
 4314W        W17728   7.281  12.944   2.507  0.0994 -0.0396  0.0098
 4315W        W17729   4.592  17.155  13.616  0.0913  0.0083  0.0467
 4316W        W17730   6.102   6.590   5.908  0.0052 -0.0123  0.1868
 4317W        W17731  16.927   1.312   5.324 -0.3216 -0.0001 -0.0193
 4318W        W17732   3.453   5.460   5.489  0.1122  0.0147 -0.0695
 4319W        W17733  17.277  13.581   5.551  0.0962 -0.1483  0.0340
 4320W        W17734   6.575   5.231  13.671 -0.0307 -0.0703 -0.1645
 4321W        W17735   3.410   8.513   5.266  0.2735  0.0680 -0.0378
 4322W        W17736  13.485   4.513  13.565 -0.0000 -0.2651  0.0757
 4323W        W17737  11.302   2.776   2.081  0.3144  0.0177 -0.0596
 4324W        W17738  16.230   4.741  15.437 -0.1134  0.0282 -0.0207
 4325W        W17739   4.594   3.332  14.920  0.0775  0.2311 -0.0703
 4326W        W17740  14.369  14.472   6.107  0.2436  0.0475 -0.0947
 4327W        W17741   2.323   0.373   4.288 -0.1109 -0.1259 -0.1627
 4328W        W17742   9.620  15.905   3.057  0.1071 -0.0082 -0.0510
 4329W        W17743   1.677   7.041  15.775 -0.0266 -0.1801 -0.0175
 4330W        W17744   2.450  10.000   5.034 -0.1450 -0.0803 -0.0708
 4331W        W17745  17.116   1.981   5.110 -0.1088 -0.0216  0.0172
 4332W        W17746   4.733  11.681   0.014  0.1698  0.1474 -0.0718
 4333W        W17747   0.722  16.681  11.080  0.0418  0.2006 -0.3313
 4334W        W17748   9.957   6.566   2.652  0.1635 -0.0592  0.1769
 4335W        W17749  15.087   4.312  12.113 -0.4555 -0.1967 -0.0406
 4336W        W17750   2.788   7.504  15.472 -0.2326 -0.0527 -0.1502
 4337W        W17751   5.431  12.651   3.373  0.0307  0.2364 -0.0446
 4338W        W17752   5.190  11.185  13.336 -0.2842 -0.4538  0.0839
 4339W        W17753   8.292   1.358  11.157  0.4698  0.0342  0.1611
 4340W        W17754  12.046   5.378  12.360  0.0633  0.0864 -0.0966
 4341W        W17755  15.834   5.080  14.892 -0.1180 -0.1611 -0.2091
 4342W        W17756   9.303   4.617   4.344 -0.0960 -0.3329  0.2883
 4343W        W17757   1.156   3.550  12.982 -0.0882 -0.1369  0.1782
 4344W        W17758   5.141   1.609   0.081 -0.2574  0.1763 -0.1109
 4345W        W17759   1.551   7.731  11.401  0.3181 -0.2633  0.0259
 4346W        W17760   3.980  15.351  15.921  0.3255 -0.0276  0.0685
 4347W        W17761   9.315   6.518  14.681 -0.2664  0.0091 -0.2522
 4348W        W17762   2.171   9.394   2.423 -0.0615  0.3665  0.3466
 4349W        W17763   8.394   8.298   2.593  0.3126 -0.0400 -0.1631
 4350W        W17764   8.268   2.432  11.181  0.3282 -0.3251  0.0258
 4351W        W17765   4.160   8.203   5.042 -0.0287 -0.1932  0.3605
 4352W        W17766  10.714   9.055  12.134  0.0062  0.2879  0.0311
 4353W        W17767  16.760   1.220  15.223  0.0441 -0.0473 -0.2926
 4354W        W17768  12.583   7.093   5.807  0.0634 -0.1757  0.2895
 4355W        W17769   5.585  14.377  13.893  0.1103 -0.0174  0.2630
 4356W        W17770   7.098   8.151   1.673 -0.0511  0.2524  0.0850
 4357W        W17771   4.430  17.953  15.817 -0.2670  0.1402 -0.3063
 4358W        W17772  14.517  18.002  12.588 -0.0285 -0.3557  0.0825
 4359W        W17773   8.400   6.266   0.032 -0.0576 -0.1172 -0.0756
 4360W        W17774  12.438  18.194   2.600 -0.1069  0.4065 -0.0379
 4361W        W17775   6.571   9.236   0.117  0.1666  0.0953  0.2624
 4362W        W17776   9.764   5.571  10.598  0.0139  0.0007 -0.0519
 4363W        W17777   3.563   8.089   2.841 -0.3265 -0.3003  0.2052
 4364W        W17778   4.327   6.100   4.159 -0.0116  0.2336  0.0834
 4365W        W17779   7.731  10.961   2.937  0.1140  0.4064 -0.2961
 4366W        W17780   7.750   6.037  10.814  0.1006  0.0938 -0.1025
 4367W        W17781   9.413   1.834  12.486  0.3873 -0.3571 -0.1035
 4368W        W17782   8.762   1.217  12.247  0.0873 -0.0021  0.0556
 4369W        W17783   4.306  12.507  15.087 -0.1160  0.0414 -0.0497
 4370W        W17784   7.131   3.771   2.943  0.2226  0.1610  0.1923
 4371W        W17785  17.035  17.964   3.324 -0.0566 -0.2563 -0.0930
 4372W        W17786   6.792   0.063  16.088  0.2930 -0.2026  0.2261
 4373W        W17787   7.603   0.699  15.679 -0.1467 -0.1829  0.0972
 4374W        W17788  10.462  12.300  12.510  0.2524  0.0885  0.2291
 4375W        W17789  17.222   7.128  15.196 -0.3693 -0.1683  0.2555
 4376W        W17790   5.749   7.161   1.894 -0.1274  0.0916  0.4237
 4377W        W17791  17.357   9.404  10.894  0.1216 -0.0149  0.0126
 4378W        W17792   4.032  13.491  12.513  0.0341 -0.0734  0.1710
 4379W        W17793   4.836   7.847  11.696  0.0408 -0.0280  0.0011
 4380W        W17794  15.590  14.659  15.599  0.0179 -0.2270  0.0852
 4381W        W17795   8.172   0.412  10.808  0.2646 -0.0718 -0.0429
 4382W        W17796  15.179   4.993   5.597 -0.0618 -0.1849  0.1544
 4383W        W17797   0.389  12.556  11.690 -0.2021  0.0470 -0.2490
 4384W        W17798   7.117  12.328  13.718  0.1580  0.0440 -0.2383
 4385W        W17799  10.095   4.708  16.023  0.3653 -0.1070 -0.0192
 4386W        W17800   4.005  10.871   6.482 -0.2757 -0.0979  0.1703
 4387W        W17801   4.885   1.349   1.384  0.1043 -0.0849  0.2976
 4388W        W17802  12.240  16.464  14.573  0.1015  0.0706 -0.0716
 4389W        W17803  14.630   7.165  10.693  0.0637 -0.0367  0.2443
 4390W        W17804  16.239   9.027  11.239 -0.1808  0.0936 -0.1349
 4391W        W17805  14.922   7.754   3.494  0.1185 -0.0884  0.0059
 4392W        W17806  14.110  11.917  16.239  0.1842  0.3327 -0.1549
 4393W        W17807   1.525  14.080   5.225 -0.2199 -0.0299  0.0381
 4394W        W17808  16.988  16.967   3.822 -0.1176  0.0217 -0.3470
 4395W        W17809   7.998  14.907  15.228 -0.1162 -0.1143  0.1978
 4396W        W17810  13.134  16.845   2.819  0.0729 -0.1241 -0.2831
 4397W        W17811   8.038  16.394   2.793 -0.0035  0.1702  0.2267
 4398W        W17812   9.753   1.044   1.609 -0.2644  0.1854  0.0903
 4399W        W17813   1.442   3.260  14.266 -0.1786  0.0355 -0.1856
 4400W        W17814   0.810   9.930   1.331 -0.2680  0.0234  0.0928
 4401W        W17815  13.710  11.937  16.022 -0.1553 -0.0633  0.1058
 4402W        W17816  10.113   1.594   4.930 -0.0920  0.1049  0.1455
 4403W        W17817  12.569   5.474  13.423 -0.0768 -0.0068 -0.0759
 4404W        W17818   0.883   0.545  14.886  0.1396  0.0551  0.0314
 4405W        W17819  14.938  17.629  12.614 -0.0982  0.1454  0.2765
 4406W        W17820  12.874  14.060  11.364 -0.1997  0.0830  0.0229
 4407W        W17821   7.389  15.628  14.929 -0.6113 -0.3176 -0.0586
 4408W        W17822  10.053  11.856   2.319 -0.0857  0.2250 -0.1932
 4409W        W17823  13.840  16.389  14.971 -0.0218 -0.0405  0.1894
 4410W        W17824  14.981   9.917   3.414 -0.0291 -0.0173  0.2010
 4411W        W17825   0.926  14.255  15.289  0.1769  0.2722  0.1697
 4412W        W17826  12.491   8.922  11.347  0.2551  0.0859  0.0932
 4413W        W17827  15.146   0.073  13.431 -0.3831  0.0667  0.2018
 4414W        W17828   4.272   0.564  13.776 -0.0101  0.0271 -0.0876
 4415W        W17829   0.329  15.988   5.650 -0.1083 -0.1244  0.0140
 4416W        W17830  14.458  16.844  12.628  0.1801 -0.2169 -0.2227
 4417W        W17831  11.066   8.550   1.498 -0.0807  0.2236  0.2241
 4418W        W17832  14.970  15.912   1.113  0.1894 -0.1042  0.0546
 4419W        W17833   9.801   5.664   2.642 -0.0968 -0.0043 -0.0894
 4420W        W17834  17.721  15.881   2.763  0.1984 -0.4634  0.0229
 4421W        W17835   7.713   1.434   1.885 -0.0547  0.3162  0.0873
 4422W        W17836   7.701  11.612   4.866 -0.0697 -0.0248  0.2631
 4423W        W17837   2.178  18.012   0.178 -0.1842 -0.0484 -0.0930
 4424W        W17838  10.506   3.092  10.386  0.0608 -0.2594  0.0189
 4425W        W17839   2.706  10.173  11.631  0.1242 -0.3213 -0.1249
 4426W        W17840   8.414   6.838   5.195 -0.0720  0.0757 -0.0986
 4427W        W17841  15.509   5.004  14.553 -0.0871 -0.2183  0.0218
 4428W        W17842   0.440   2.466   1.864 -0.1885 -0.0396  0.1247
 4429W        W17843   6.404  15.283   5.194 -0.1225 -0.3887 -0.0977
 4430W        W17844   0.753  16.231  14.597 -0.0047  0.0914  0.3546
 4431W        W17845  10.901   5.794  11.675 -0.4146 -0.2087 -0.0452
 4432W        W17846   6.628   5.142   3.061 -0.1329  0.2267 -0.2968
 4433W        W17847  12.995   5.699  13.415 -0.2737  0.2784  0.2612
 4434W        W17848  11.352   5.342   9.907  0.1820  0.0582 -0.0109
 4435W        W17849  15.834   3.192  10.998  0.0301  0.0086  0.2916
 4436W        W17850   9.067  16.443  11.417  0.0401 -0.1896 -0.0148
 4437W        W17851  10.118   9.736  15.637  0.0167  0.1441  0.2094
 4438W        W17852   4.518  14.158  14.875  0.0923  0.0235  0.1384
 4439W        W17853   3.018  17.520   4.544  0.2623 -0.1315  0.2252
 4440W        W17854  15.348   1.076   1.928 -0.0951 -0.0298 -0.0019
 4441W        W17855  11.310   3.780  15.433  0.2039 -0.0713  0.0126
 4442W        W17856   5.760   7.196   5.072  0.0044 -0.0251 -0.2638
 4443W        W17857  14.807   7.444   5.732 -0.1531  0.0346  0.0913
 4444W        W17858  15.004   0.873  14.255 -0.2804 -0.1564  0.0585
 4445W        W17859  17.232  13.976  13.266  0.2026  0.0593  0.1235
 4446W        W17860   0.268   5.607   2.635 -0.1430 -0.1420 -0.1268
 4447W        W17861  12.940   0.245   4.278 -0.1193  0.1093 -0.0687
 4448W        W17862   9.659   4.768   3.969 -0.1282 -0.3003 -0.2232
 4449W        W17863  14.654  10.035  14.724  0.3476  0.1743  0.0293
 4450W        W17864  11.784   2.549  15.879 -0.1606  0.2006 -0.0398
 4451W        W17865  16.389   4.985  13.034  0.2486 -0.0469  0.0094
 4452W        W17866   4.463  16.457  12.943 -0.1910 -0.0073 -0.0489
 4453W        W17867  12.586  13.879  11.762 -0.1284  0.0073 -0.1768
 4454W        W17868  16.158   2.958   0.755 -0.1237  0.1379  0.1219
 4455W        W17869   3.457  17.444   4.330  0.0880  0.1745  0.1979
 4456W        W17870   8.211   2.975  14.014 -0.4277 -0.1019 -0.0876
 4457W        W17871  16.912   3.649  15.604 -0.0001  0.2896  0.3623
 4458W        W17872   3.108   4.078   3.219  0.1428 -0.2998 -0.4682
 4459W        W17873  14.455  14.611   3.631  0.0112 -0.0486 -0.0833
 4460W        W17874   8.979   2.844   4.414  0.1549 -0.0353  0.0591
 4461W        W17875   2.107   1.521   3.593  0.0869  0.1212 -0.1791
 4462W        W17876   4.556  10.167  15.682  0.1289 -0.1856  0.0401
 4463W        W17877   6.748   9.874   6.472 -0.0756  0.0288  0.1552
 4464W        W17878  14.077   4.020   6.104  0.0544 -0.1895  0.0724
 4465W        W17879   5.837  10.452   1.234 -0.0898  0.0744  0.3944
 4466W        W17880   3.583   8.687  13.976 -0.1960  0.1122 -0.2002
 4467W        W17881  10.063  10.991  16.272 -0.1148 -0.0200 -0.0799
 4468W        W17882  14.598   0.185  16.059  0.1895  0.5329  0.0029
 4469W        W17883   1.616   5.427   4.141 -0.0451 -0.2117  0.2105
 4470W        W17884  11.421  17.356  15.327 -0.2219 -0.0114 -0.0832
 4471W        W17885   9.044   3.638  14.541  0.0154 -0.2148  0.2398
 4472W        W17886  13.933  14.033  13.972 -0.1193 -0.0442 -0.1788
 4473W        W17887  11.913   3.014  15.557  0.1104 -0.3212 -0.1600
 4474W        W17888   4.481  14.963  14.337 -0.4107  0.1245 -0.0135
 4475W        W17889   0.721   7.450  13.155 -0.0182 -0.0659  0.1095
 4476W        W17890  12.557  11.001   3.736 -0.1878 -0.3116 -0.3013
 4477W        W17891  13.755  15.073   3.584  0.1970  0.1499 -0.1005
 4478W        W17892  15.488   1.899  15.014 -0.0054  0.0392  0.0553
 4479W        W17893   8.523   6.448  14.517  0.1699 -0.0054 -0.1055
 4480W        W17894  10.300  12.889  15.355 -0.1176 -0.0325  0.1443
 4481W        W17895  13.795  12.350  12.886  0.3116 -0.0968 -0.1880
 4482W        W17896   6.595   8.586  11.310 -0.1143 -0.1097 -0.0413
 4483W        W17897   9.732   8.780  14.177 -0.0158  0.0958 -0.3379
 4484W        W17898  15.722   0.373  10.715  0.1509  0.0633  0.0745
 4485W        W17899   3.960   2.850   6.220 -0.1654  0.0717  0.2397
 4486W        W17900  10.692   0.524  13.140 -0.3975  0.0821 -0.1330
 4487W        W17901  12.332  13.508  13.944 -0.2724 -0.0762 -0.0525
 4488W        W17902  11.936  17.095   4.631  0.1845  0.0313  0.1958
 4489W        W17903   0.405  16.921   3.090  0.1113  0.1437  0.2051
 4490W        W17904  11.621  14.179  12.773  0.0403 -0.0324  0.1046
 4491W        W17905  10.591  18.171  10.136  0.2817 -0.0698  0.2645
 4492W        W17906  16.600  17.757   5.959  0.0114  0.1453 -0.2471
 4493W        W17907   3.766  13.790  11.665  0.0509  0.0437 -0.0160
 4494W        W17908   0.546  16.218  11.253 -0.1295 -0.1434 -0.1729
 4495W        W17909  17.137   8.504   0.562 -0.1919  0.0280  0.1155
 4496W        W17910  15.256  16.447   0.135  0.0183 -0.0324 -0.0457
 4497W        W17911   3.194  13.674   0.505 -0.1278 -0.3393 -0.0084
 4498W        W17912   3.497   2.589  10.795  0.0844  0.0537 -0.0209
 4499W        W17913   3.387  17.223  11.661  0.1683  0.1382  0.3283
 4500W        W17914   2.488  12.074   2.413 -0.1064 -0.2837  0.1181
 4501W        W17915   5.273   2.976  13.880 -0.0480 -0.0190 -0.1748
 4502W        W17916   5.013  11.085   2.617  0.1573  0.2734 -0.0248
 4503W        W17917   4.777   8.718  12.414  0.1889  0.0336  0.3690
 4504W        W17918   9.209   2.516   5.484  0.2673 -0.1488 -0.0019
 4505W        W17919  15.970  18.123  10.668 -0.1701 -0.1042  0.4125
 4506W        W17920  12.088   5.963   3.272  0.3439 -0.3409  0.2857
 4507W        W17921   1.238   1.693  11.334  0.3846 -0.1564  0.1109
 4508W        W17922   5.399  11.055  16.083 -0.1195 -0.0975 -0.0861
 4509W        W17923   2.532   9.522   6.304  0.0562 -0.1426 -0.0870
 4510W        W17924   9.571   0.569  14.582  0.1750  0.1108 -0.2478
 4511W        W17925  17.130  12.231  14.718 -0.1262 -0.0773 -0.2903
 4512W        W17926   7.800  10.993   6.703  0.0503 -0.2898 -0.0027
 4513W        W17927   8.149   1.452  13.752 -0.0898 -0.3731 -0.1877
 4514W        W17928   1.349   1.846  12.470  0.4345  0.2043 -0.3513
 4515W        W17929   8.986   5.334   0.918 -0.0707  0.1324 -0.0267
 4516W        W17930   1.309   6.264   1.804  0.2225  0.0895 -0.1318
 4517W        W17931  17.077   5.329   0.041 -0.3112  0.3306  0.0696
 4518W        W17932   9.679   9.052  12.212  0.1470 -0.1877 -0.1425
 4519W        W17933   7.224  10.199  14.706 -0.3622  0.2043  0.3120
 4520W        W17934  15.910  17.424   2.783  0.1645  0.2542 -0.1838
 4521W        W17935   2.899  12.180   3.727 -0.1190  0.0040 -0.0836
 4522W        W17936  12.618   3.521  10.847 -0.3339  0.2942  0.0655
 4523W        W17937  10.532   7.376   4.988 -0.2199 -0.0819  0.1825
 4524W        W17938   1.369   6.546  12.839  0.3505 -0.0190 -0.0391
 4525W        W17939   5.525   2.487   4.654  0.2689  0.1030 -0.0513
 4526W        W17940  14.236   1.612  13.577 -0.3476  0.1316 -0.3311
 4527W        W17941   1.518   5.572  10.954 -0.2110 -0.0191 -0.1291
 4528W        W17942   6.310  14.872  14.772  0.2557  0.0707 -0.1358
 4529W        W17943   5.909  16.461   2.177  0.1687 -0.1150  0.3924
 4530W        W17944   2.881   8.760  15.162 -0.0548  0.2905 -0.0431
 4531W        W17945  10.618   7.783  11.720  0.1821  0.0260  0.1315
 4532W        W17946   1.018   2.010   0.718  0.2858  0.0644  0.1415
 4533W        W17947   6.824  12.024  16.115 -0.0026 -0.0114  0.0656
 4534W        W17948   3.814  15.906  15.376 -0.1171  0.1526  0.3395
 4535W        W17949   4.484   1.261  11.166  0.1589 -0.0743  0.3280
 4536W        W17950   5.788  13.878  16.031  0.2126 -0.3007 -0.3873
 4537W        W17951  16.333  15.070   0.177 -0.2863  0.0868 -0.0394
 4538W        W17952  10.850   0.845   1.973  0.1100 -0.2537 -0.0973
 4539W        W17953   4.216  14.099  10.898 -0.1585  0.0395 -0.3744
 4540W        W17954  15.028   2.183  11.740 -0.1723 -0.2305  0.2682
 4541W        W17955  17.645  18.108  11.297  0.1234  0.0495  0.0776
 4542W        W17956  18.083  13.250   3.488  0.0388 -0.1780 -0.0518
 4543W        W17957   9.112  17.386   9.202 -0.1326 -0.2211  0.1770
 4544W        W17958  10.270   0.382   0.335  0.0503  0.1252  0.3568
 4545W        W17959  12.234   0.122  11.252  0.2975  0.1499  0.1462
 4546W        W17960   0.711   0.117  16.124  0.1460 -0.1064  0.0533
 4547W        W17961   9.453   4.157   5.639  0.0012 -0.1119  0.1182
 4548W        W17962  11.091  13.731  11.988  0.0977  0.2377 -0.3789
 4549W        W17963   0.786  16.048   3.569  0.1926  0.0019 -0.1292
 4550W        W17964   1.347   6.905  16.171 -0.0650  0.0002  0.1829
 4551W        W17965   9.907  17.838  15.614 -0.1746 -0.1878  0.0133
 4552W        W17966   6.828   5.982   2.978 -0.1289 -0.1064  0.1809
 4553W        W17967   5.331   8.070   0.211 -0.2671  0.0540  0.0261
 4554W        W17968  18.196  15.197  14.700 -0.0821 -0.1637 -0.1173
 4555W        W17969  16.404   6.870  12.729  0.0328  0.1838 -0.1953
 4556W        W17970   5.536   0.748  10.784 -0.0000  0.0175 -0.3325
 4557W        W17971   3.500  17.552  11.241  0.1066 -0.0435 -0.2035
 4558W        W17972  17.388  12.799  15.476  0.0954  0.0913  0.3481
 4559W        W17973   8.965  15.114  11.854  0.1057 -0.2352  0.3032
 4560W        W17974  14.145   2.437  14.810  0.1873 -0.0749  0.0775
 4561W        W17975   8.018  11.813   1.064  0.2703 -0.4074  0.2047
 4562W        W17976   3.055   8.791  10.987 -0.0252 -0.0508 -0.0360
 4563W        W17977  12.749   6.988   5.322 -0.3170 -0.0350  0.0556
 4564W        W17978  11.101   5.645   6.370 -0.0519 -0.2178  0.2853
 4565W        W17979   3.533   2.971  13.439 -0.1278 -0.2158 -0.1974
 4566W        W17980  15.229  16.664   1.028 -0.1311  0.0480 -0.0621
 4567W        W17981   6.834  16.219   0.937 -0.0214  0.0590 -0.0506
 4568W        W17982   4.304   8.419   0.461  0.0499 -0.3088  0.3308
 4569W        W17983   7.094   3.498  13.519 -0.1084 -0.0166 -0.3421
 4570W        W17984  15.158   0.097  11.481  0.1586 -0.2228  0.1912
 4571W        W17985   2.449   0.570   4.707 -0.2184  0.0069 -0.0124
 4572W        W17986  17.804  17.005   1.449 -0.0883 -0.0010 -0.1024
 4573W        W17987   6.994  15.798  15.691 -0.2086  0.0816  0.2415
 4574W        W17988   7.210  12.479   0.223  0.0485  0.0079  0.0946
 4575W        W17989  17.908  11.864   1.102  0.0640 -0.0234  0.0149
 4576W        W17990  13.335  16.928  14.150 -0.0694  0.0302  0.1225
 4577W        W17991   6.344  15.951   0.554 -0.1004  0.0279 -0.0696
 4578W        W17992   0.499  11.880   3.276 -0.0922  0.0543  0.1460
 4579W        W17993   4.818  12.347  15.048  0.0989  0.2507  0.1842
 4580W        W17994  15.302  14.050   2.121  0.2310 -0.0510  0.0816
 4581W        W17995  13.384   1.676  14.811  0.0673 -0.2277 -0.3779
 4582W        W17996   9.382   3.925  13.758  0.3317  0.0860 -0.2000
 4583W        W17997  13.213  10.499  14.511 -0.1101 -0.0127  0.1896
 4584W        W17998   9.555  14.900  11.025  0.0475 -0.0464  0.0077
 4585W        W17999   4.129  10.274   6.131 -0.0915 -0.1192 -0.0058
 4586W        W18000   8.368   5.662  11.217 -0.0463  0.0303  0.0191
 4587W        W18001   7.530   4.956   4.779  0.0767  0.2965 -0.1075
 4588W        W18002   0.670  16.053   5.038  0.0965  0.0096 -0.1462
 4589W        W18003   2.039   3.716  14.515 -0.0477 -0.0997 -0.1200
 4590W        W18004   3.258   8.929   5.963 -0.0898 -0.0276  0.2193
 4591W        W18005   8.580   9.057   3.258 -0.0810 -0.0226  0.3051
 4592W        W18006   3.865  10.938   1.587  0.3987  0.0096  0.2522
 4593W        W18007  10.121   8.201   1.624  0.2007 -0.2329  0.2012
 4594W        W18008  14.045   1.224   5.317  0.0455  0.1942 -0.2021
 4595W        W18009   1.057  14.490  16.014  0.1164 -0.1085 -0.1287
 4596W        W18010  15.313   3.797  15.060 -0.0031  0.0175  0.1595
 4597W        W18011   9.647  12.570   5.319  0.0425  0.0602 -0.1996
 4598W        W18012  17.496   4.781  15.927  0.0784 -0.1593 -0.3771
 4599W        W18013   7.598   7.937   2.538  0.0787  0.1370 -0.0312
 4600W        W18014  16.496   6.967   0.278 -0.2282 -0.1360  0.0005
 4601W        W18015  11.369   7.023  12.553 -0.3475  0.2044  0.1389
 4602W        W18016   5.532  14.855  10.914 -0.0411 -0.4614 -0.1319
 4603W        W18017  12.288  17.325   4.948 -0.3200  0.1114 -0.3464
 4604W        W18018  16.368  10.448   4.656  0.1761  0.0586  0.0718
 4605W        W18019  14.794  13.385  15.339  0.3248 -0.1820  0.1036
 4606W        W18020   5.468  13.810  11.611  0.2635 -0.0899 -0.1107
 4607W        W18021   4.976   7.326   5.726 -0.2347  0.5295  0.1563
 4608W        W18022   2.483   4.210  13.097 -0.1110 -0.0041  0.1170
 4609W        W18023  17.451   0.765  12.511  0.0856  0.0985 -0.1339
 4610W        W18024  15.984  10.749  11.494  0.0815  0.1474  0.0824
 4611W        W18025  17.740   3.254   5.228  0.2285  0.2463  0.1692
 4612W        W18026  18.066  17.001  10.450  0.1578 -0.0897  0.2455
 4613W        W18027  16.726  12.856  16.344  0.1846  0.0455  0.0593
 4614W        W18028   5.244  15.505  11.614  0.2448  0.1522 -0.3902
 4615W        W18029   9.833  15.692   4.352  0.0399  0.1780  0.1699
 4616W        W18030   3.756  14.211   1.598  0.1289  0.2198 -0.1559
 4617W        W18031  13.903   6.982  15.907 -0.3000 -0.2262 -0.1005
 4618W        W18032  13.541   5.022  14.195  0.0891  0.0339 -0.1387
 4619W        W18033   6.634  13.242  13.611 -0.2140  0.1364 -0.0695
 4620W        W18034  16.316  12.349  10.775  0.0675 -0.1699  0.1501
 4621W        W18035  13.584  11.348  10.981 -0.0311 -0.1201 -0.0980
 4622W        W18036   8.967  14.388   0.607 -0.1315  0.1747  0.0523
 4623W        W18037   7.308   1.762  12.048  0.1135  0.1112  0.1150
 4624W        W18038   9.399   7.016  13.415  0.0773  0.0919  0.0197
 4625W        W18039   3.919  13.060  13.992  0.4038  0.3753 -0.0740
 4626W        W18040  17.715   6.709   4.549 -0.5129 -0.0865 -0.3720
 4627W        W18041   6.150   4.127  13.864 -0.1282 -0.2975 -0.0040
 4628W        W18042   5.406  17.496  14.355  0.2644  0.0850  0.2541
 4629W        W18043  10.375   3.110   0.717 -0.2663  0.1085  0.4833
 4630W        W18044   8.880   9.609  15.458 -0.0601  0.2682 -0.1216
 4631W        W18045  12.189   1.166   2.173  0.3314 -0.0225 -0.0172
 4632W        W18046   9.948  16.710   2.099  0.2195 -0.0530 -0.2090
 4633W        W18047  11.613   0.527  16.167 -0.0223 -0.1622 -0.0873
 4634W        W18048   2.511   1.255  10.651  0.1444 -0.0954 -0.0508
 4635W        W18049  10.123   7.761   0.450  0.2093  0.2972 -0.0052
 4636W        W18050   9.167  10.414  15.133 -0.2898 -0.3167 -0.1319
 4637W        W18051  15.461  17.015   0.782 -0.1405  0.1211  0.3458
 4638W        W18052  16.841   4.878   1.523  0.2364 -0.1315  0.1927
 4639W        W18053   9.946  15.081  12.938  0.0037  0.0450  0.0222
 4640W        W18054   6.183   5.269  15.082  0.1784 -0.1241  0.1600
 4641W        W18055  13.557   4.395   1.940  0.1129 -0.0975  0.1644
 4642W        W18056   1.384   5.142   0.132  0.1806  0.3678  0.0331
 4643W        W18057   6.913  17.581   3.951 -0.0314  0.3855  0.1130
 4644W        W18058   1.697   5.437  16.385  0.2498 -0.1233 -0.3886
 4645W        W18059  10.878   0.050   3.568 -0.3892  0.0955  0.0883
 4646W        W18060   8.502   4.200  12.528 -0.0408 -0.0063  0.0044
 4647W        W18061   3.291   7.604  13.843 -0.0440 -0.0615  0.0165
 4648W        W18062  18.147   3.834   0.662 -0.2566  0.2111  0.1566
 4649W        W18063   1.236   1.272   5.931  0.1940 -0.1637 -0.0134
 4650W        W18064   7.259   9.517  12.372  0.1300  0.0322  0.1215
 4651W        W18065   4.447   9.777   5.909  0.0199 -0.2518  0.0259
 4652W        W18066   8.235   3.782  12.540  0.2090 -0.1974  0.1433
 4653W        W18067  13.782  12.625   1.495 -0.0420 -0.0847  0.2427
 4654W        W18068  14.667   2.079   1.567  0.0290 -0.0251  0.0444
 4655W        W18069  18.122   7.309  13.136  0.0227 -0.3044  0.2394
 4656W        W18070   8.354  12.246  11.989 -0.1808 -0.0553  0.0028
 4657W        W18071  17.773  13.121  16.076  0.2942 -0.0693 -0.1711
 4658W        W18072  16.099   8.133  15.667 -0.0304 -0.0983 -0.1710
 4659W        W18073   5.511  12.258  14.832 -0.0067 -0.3663  0.0078
 4660W        W18074   0.801  13.552  14.460  0.2494 -0.1872  0.1504
 4661W        W18075   4.207  17.043   0.136 -0.2138 -0.1373 -0.2051
 4662W        W18076  12.023   9.276  11.070 -0.0680  0.1521 -0.2599
 4663W        W18077  14.374  10.659  14.143 -0.1288 -0.6414 -0.0681
 4664W        W18078  16.837   4.895  15.376 -0.1570  0.1209  0.0193
 4665W        W18079   2.483   7.225  11.576  0.4351  0.1970 -0.4593
 4666W        W18080   3.244   7.161   1.446  0.1432 -0.0100  0.1064
 4667W        W18081   9.287  12.674  14.702  0.1509 -0.0557  0.1874
 4668W        W18082  17.375  15.521   3.319  0.0721 -0.0335 -0.1846
 4669W        W18083  12.732   0.284  14.429  0.0165  0.0265  0.1635
 4670W        W18084   7.730   1.007   4.706  0.0463 -0.0929  0.0802
 4671W        W18085  11.262   3.369  16.205  0.3160 -0.1653  0.3709
 4672W        W18086  13.126   5.279  12.054  0.0422 -0.0042 -0.2411
 4673W        W18087   9.518   6.400   0.071  0.2269 -0.2222 -0.3136
 4674W        W18088   6.615   0.493   1.234  0.0830  0.1170  0.1161
 4675W        W18089  14.560   4.905  15.645  0.1919 -0.1093 -0.0559
 4676W        W18090  13.671   2.330  11.927  0.3363 -0.0004  0.0145
 4677W        W18091   9.279  12.928   6.033 -0.2103 -0.1187 -0.4058
 4678W        W18092  14.735  17.651  14.061 -0.0311 -0.1314 -0.5656
 4679W        W18093   7.743  10.779  13.221 -0.0030 -0.1935  0.5474
 4680W        W18094   3.932   2.604  11.172 -0.0287  0.0757  0.1453
 4681W        W18095   5.522   6.287  13.681 -0.4097 -0.1905 -0.0968
 4682W        W18096  11.972   9.343   4.238 -0.1009 -0.0040 -0.0597
 4683W        W18097   0.121   2.730   4.600 -0.0582  0.1929 -0.2240
 4684W        W18098   2.668   8.020  10.989 -0.2102 -0.2327 -0.1603
 4685W        W18099  16.221  11.799  12.579  0.0838 -0.0853 -0.0368
 4686W        W18100   9.789   1.923   4.720 -0.1114  0.1400  0.0773
 4687W        W18101  12.121  16.469  12.446 -0.0467 -0.2742 -0.1735
 4688W        W18102  11.458   9.457   5.237 -0.2034  0.0295 -0.0890
 4689W        W18103   7.942   0.641   0.078  0.0995  0.0182 -0.0636
 4690W        W18104   7.197   8.068  15.641 -0.2058  0.0172  0.3230
 4691W        W18105  12.109   1.820   3.890  0.1441  0.0781 -0.0217
 4692W        W18106   4.404  17.493  15.949 -0.1642 -0.1087 -0.1055
 4693W        W18107  14.634   8.239  14.629 -0.0959  0.0438 -0.1404
 4694W        W18108   5.288   9.078  10.687 -0.1500  0.1811  0.2293
 4695W        W18109   6.477  16.563   5.437 -0.1713  0.5059  0.1801
 4696W        W18110   8.813  14.484   1.730  0.2429 -0.0142  0.3459
 4697W        W18111  16.792   1.072   4.681 -0.3405 -0.0450 -0.2159
 4698W        W18112  17.821  16.756  16.100  0.1667  0.0827  0.1274
 4699W        W18113   5.099   2.258   5.212  0.0534 -0.3094 -0.2735
 4700W        W18114   8.047  13.828  12.169 -0.0244  0.0405  0.0922
 4701W        W18115   6.775   3.383   0.858  0.1117 -0.4317 -0.2450
 4702W        W18116  16.432   1.192  13.326  0.1552  0.0684 -0.1893
 4703W        W18117   0.016  10.077  12.487 -0.3453  0.3456 -0.0744
 4704W        W18118   9.533   3.316  16.226 -0.1370 -0.2359 -0.3568
 4705W        W18119   3.374   7.212  14.539  0.1792 -0.0715  0.1363
 4706W        W18120   8.258  13.650   0.616 -0.1259 -0.1207  0.0443
 4707W        W18121   5.193   1.866  16.140 -0.3405  0.0553  0.4283
 4708W        W18122   4.302   3.922  10.970 -0.3148  0.0199 -0.1849
 4709W        W18123  13.620   1.491   0.536 -0.0300  0.0483  0.1409
 4710W        W18124   3.600  10.096   0.023  0.1493  0.0091 -0.3311
 4711W        W18125   7.973   4.252   4.669 -0.1123 -0.0475 -0.0907
 4712W        W18126  12.431  12.302   4.208  0.1411 -0.0488  0.1112
 4713W        W18127   0.973  10.976   6.364  0.2954  0.1551 -0.0611
 4714W        W18128   3.951   9.269  10.806 -0.1303 -0.0452  0.0346
 4715W        W18129   7.739  16.649  16.330  0.0181 -0.1235 -0.4288
 4716W        W18130  11.435  14.919  11.646  0.0980 -0.1588  0.0883
 4717W        W18131   6.329  10.162   6.310  0.0912 -0.1456  0.1334
 4718W        W18132  10.541   4.159  12.820 -0.0026  0.0295  0.2798
 4719W        W18133  11.037  12.595   4.215  0.2764 -0.0743  0.0022
 4720W        W18134  13.464   8.958  13.255  0.0742 -0.0383 -0.1235
 4721W        W18135  17.172  17.311  15.507  0.0058  0.3352  0.2554
 4722W        W18136   9.133   0.490   0.962 -0.1717 -0.1769 -0.0110
 4723W        W18137   3.612   3.545   4.834  0.1105  0.2510  0.2139
 4724W        W18138   4.042  14.668   1.561  0.3537  0.2541  0.1140
 4725W        W18139   4.260   1.801   5.990  0.0939 -0.0988 -0.0218
 4726W        W18140  18.051   9.988  16.026  0.0657 -0.0010  0.0665
 4727W        W18141   6.931  13.702   0.109 -0.1622 -0.1047  0.0094
 4728W        W18142  18.011   1.230   3.307 -0.1552 -0.0393  0.0209
 4729W        W18143  10.903  16.733  10.137  0.0501 -0.1102 -0.2046
 4730W        W18144   3.133   9.624  14.430 -0.0128  0.1178  0.0122
 4731W        W18145   6.716  16.390   1.869 -0.0183 -0.0325  0.0617
 4732W        W18146  12.976  10.174   3.726 -0.3317  0.0287 -0.1977
 4733W        W18147  15.488   6.779  15.086  0.0621 -0.0551  0.1841
 4734W        W18148   4.852  14.895  12.498  0.0876 -0.0756 -0.5018
 4735W        W18149  16.178   0.049  15.215 -0.0036 -0.0209 -0.0683
 4736W        W18150  10.806  17.456   3.001  0.4604 -0.1458 -0.3892
 4737W        W18151  16.845  14.187   0.247 -0.0929 -0.0582 -0.0330
 4738W        W18152   2.873   2.563  13.523 -0.2660  0.2034  0.0879
 4739W        W18153   0.709  14.748   3.700  0.1372 -0.1217  0.0292
 4740W        W18154  16.203   3.138   4.844  0.0731  0.0644  0.1080
 4741W        W18155   9.711   1.345  15.494  0.1534 -0.0653 -0.0367
 4742W        W18156   3.553   4.968   2.365  0.2278  0.1449 -0.0885
 4743W        W18157   7.792   4.419  11.989  0.1502  0.1450  0.2363
 4744W        W18158  15.380  16.311   9.768 -0.1421  0.1565 -0.1653
 4745W        W18159   4.636   6.554   6.721 -0.3516 -0.1263  0.5479
 4746W        W18160  10.476   7.371  14.376 -0.0057 -0.2179  0.2964
 4747W        W18161   3.871  13.516  16.090  0.4161  0.0579 -0.0232
 4748W        W18162  17.705   4.179  14.195  0.0652 -0.0605  0.0718
 4749W        W18163   6.321  11.082  11.325  0.1159  0.2407 -0.1183
 4750W        W18164  11.547  17.737   9.686 -0.0168  0.0026  0.0330
 4751W        W18165  15.000   0.250   3.754  0.2657 -0.0428 -0.0021
 4752W        W18166   7.703   3.698   0.622 -0.0469  0.1692  0.2519
 4753W        W18167   8.342  16.862   0.996  0.0870  0.0214 -0.0767
 4754W        W18168  18.130   2.643   0.915 -0.0404  0.3574 -0.0243
 4755W        W18169  18.095   1.085  11.763 -0.1959 -0.0131  0.1104
 4756W        W18170   1.648  14.467   4.061 -0.0413 -0.0827 -0.0698
 4757W        W18171  12.599  17.363   4.007 -0.3500 -0.0803 -0.1108
 4758W        W18172   7.724   9.961   3.002  0.3852  0.0494 -0.2690
 4759W        W18173  16.733  10.881  14.680 -0.0949 -0.1246 -0.2982
 4760W        W18174  12.920  10.194  12.875  0.1237 -0.3538 -0.0581
 4761W        W18175   4.887  15.516   4.141  0.2745 -0.2680  0.1352
 4762W        W18176  10.729   8.605   2.151 -0.3792 -0.0268  0.0892
 4763W        W18177  13.821  15.256  13.193 -0.1242  0.1242  0.0656
 4764W        W18178  13.295  17.494  10.393 -0.0206  0.0875 -0.0015
 4765W        W18179  13.312   0.071   0.248 -0.1385  0.0222  0.2165
 4766W        W18180   6.964   5.961   6.774 -0.1649  0.0629  0.0094
 4767W        W18181  11.480   8.842   0.327 -0.1186  0.0410  0.1128
 4768W        W18182  15.723   7.569  14.282 -0.2234  0.0498  0.0374
 4769W        W18183   9.526  10.794  15.108  0.1916 -0.2477 -0.1984
 4770W        W18184  17.451   1.578   4.409  0.0967  0.0802 -0.0317
 4771W        W18185   0.002   7.135   4.307 -0.2522 -0.2825  0.0430
 4772W        W18186   5.421   2.870   0.339  0.0394  0.0492 -0.1100
 4773W        W18187   6.438   1.021  10.652 -0.2828 -0.2202  0.1993
 4774W        W18188   0.139  12.101   1.675 -0.2255 -0.2655  0.1541
 4775W        W18189  12.520   8.496  12.348 -0.1325  0.1043  0.0120
 4776W        W18190   1.505  11.346   4.681 -0.1152  0.0618  0.0544
 4777W        W18191   3.328   3.347   4.142  0.0124  0.0163 -0.1169
 4778W        W18192  16.567   7.378  14.710 -0.0328  0.2973  0.1795
 4779W        W18193   1.075   3.817   4.402 -0.0148  0.0948  0.1801
 4780W        W18194   6.052   1.692   2.346  0.3648 -0.1903 -0.0804
 4781W        W18195   5.145   4.433  15.042 -0.1593 -0.2622 -0.1521
 4782W        W18196   5.392   0.078   1.970  0.3382 -0.0860  0.1583
 4783W        W18197  11.424  13.247   6.240 -0.1088 -0.0931 -0.1381
 4784W        W18198   6.886   8.899  12.979  0.0837  0.2459  0.1232
 4785W        W18199   7.613   4.810   2.661 -0.0817  0.0471  0.0256
 4786W        W18200   1.489   6.139   0.162  0.1975 -0.0602  0.5377
 4787W        W18201  12.285   3.167  15.991  0.3954 -0.1975  0.0308
 4788W        W18202   3.871   9.330   3.040 -0.0825  0.0902 -0.0302
 4789W        W18203   2.930  15.839   4.119  0.2372  0.0156  0.1973
 4790W        W18204   3.894   6.890  12.299  0.0456 -0.0832 -0.1036
 4791W        W18205   6.491  13.921   5.269  0.2610 -0.0087  0.0555
 4792W        W18206   3.820   8.228   2.447  0.0613 -0.3576 -0.1044
 4793W        W18207   6.836   8.726   5.632 -0.0242  0.3079  0.0099
 4794W        W18208  14.953  11.781  13.170 -0.0364  0.0262 -0.1312
 4795W        W18209  10.561   5.384  10.888 -0.1951  0.2336 -0.1756
 4796W        W18210   4.260   7.433  11.472 -0.1839 -0.0414  0.1856
 4797W        W18211  13.971  13.467   1.586 -0.1394 -0.0995  0.1188
 4798W        W18212   7.961  13.197  15.728 -0.0255  0.1575 -0.0608
 4799W        W18213  17.921   7.911   6.024 -0.0686 -0.0910 -0.2381
 4800W        W18214  15.590   6.724   0.835 -0.0577  0.1313 -0.0652
 4801W        W18215  12.196  16.690   2.175 -0.0159 -0.0167 -0.0722
 4802W        W18216   6.013   9.237  11.895 -0.1146  0.2045 -0.1520
 4803W        W18217   7.477  16.804   4.619  0.3425 -0.0980  0.1877
 4804W        W18218   3.039  14.323   0.887  0.2081 -0.1959  0.0510
 4805W        W18219   1.508   7.441  14.136 -0.2438  0.1252  0.1455
 4806W        W18220   9.839  12.733   4.049  0.1489 -0.0913 -0.0169
 4807W        W18221   0.519   5.209  13.505 -0.1024 -0.0699 -0.1829
 4808W        W18222   6.596   7.284   4.234 -0.3288 -0.4276  0.2199
 4809W        W18223  16.427  12.454  12.971 -0.2984 -0.2232 -0.0445
 4810W        W18224   7.907   0.942   2.953  0.1542 -0.0254 -0.0787
 4811W        W18225   2.475  17.172   3.968  0.1694  0.0166  0.0432
 4812W        W18226  14.037   2.037  11.370  0.0657 -0.2558  0.2565
 4813W        W18227  11.172   9.229   5.725 -0.0921  0.0216  0.0988
 4814W        W18228  13.684  10.700   1.099  0.0253 -0.0992  0.2496
 4815W        W18229   4.012  15.136   4.697 -0.1969  0.0631  0.3047
 4816W        W18230   8.481  15.364  11.862  0.2703 -0.0330 -0.2870
 4817W        W18231   2.507  14.015  12.672 -0.1899  0.2123 -0.0165
 4818W        W18232   4.659  16.578   5.064  0.1897  0.2699  0.0194
 4819W        W18233   7.557  11.396   0.950  0.3110  0.1067 -0.1849
 4820W        W18234  10.777   3.564  14.765 -0.3175 -0.0947 -0.0540
 4821W        W18235  10.062  14.655  10.751  0.2704 -0.1850 -0.2712
 4822W        W18236  10.504  15.304   6.082 -0.5845 -0.1492  0.0130
 4823W        W18237  11.547  14.657  13.978  0.1084  0.3177  0.0736
 4824W        W18238  11.684   6.850   5.762  0.0915 -0.1577  0.0009
 4825W        W18239   8.645  16.112   3.283  0.2847  0.3944 -0.0724
 4826W        W18240  14.591  12.286  14.216  0.1508 -0.3945 -0.0658
 4827W        W18241   4.633   0.443   2.353  0.0187  0.1600 -0.2186
 4828W        W18242  15.427   9.497   4.096 -0.1282  0.1488  0.2780
 4829W        W18243  16.405   0.697   1.766  0.1378 -0.1415 -0.0911
 4830W        W18244  13.980   9.239   2.894  0.2080  0.0098 -0.0752
 4831W        W18245   7.049  11.204   2.427  0.0547  0.0537  0.1195
 4832W        W18246   3.232   9.037   0.904  0.0088 -0.0553 -0.0207
 4833W        W18247  12.964   4.326   3.354 -0.1331 -0.1029 -0.1196
 4834W        W18248   0.159   4.955  13.279  0.3349  0.1927  0.1795
 4835W        W18249  15.134   2.173  10.325 -0.0828  0.1355 -0.0459
 4836W        W18250  14.400  12.410  11.124  0.7587 -0.0163  0.2890
 4837W        W18251   3.277   1.614  14.867  0.0882 -0.4365  0.0059
 4838W        W18252   7.232  16.016   0.602  0.3414 -0.5058 -0.2914
 4839W        W18253  11.445   5.168  14.258  0.0874  0.0408 -0.1352
 4840W        W18254   9.232   6.378  12.544 -0.0587  0.3513  0.0237
 4841W        W18255   7.379  11.535  13.818 -0.1129  0.0739  0.1217
 4842W        W18256   3.588  13.282  15.027  0.0488 -0.0066  0.0622
 4843W        W18257  10.602   8.355  11.535 -0.0515 -0.2008 -0.2046
 4844W        W18258  15.794   7.865   2.580  0.0915  0.0488  0.1144
 4845W        W18259   2.257  13.614  12.568  0.1459  0.2407  0.2926
 4846W        W18260   8.759  17.207  12.426  0.0858 -0.1536  0.1380
 4847W        W18261   6.957   4.460  13.808 -0.2385  0.0440 -0.0961
 4848W        W18262  16.845   6.457   4.034  0.1402 -0.1595  0.1178
 4849W        W18263   5.394   4.241  15.536  0.2229  0.1148 -0.2937
 4850W        W18264   8.694  13.920   0.574  0.0071  0.0976  0.0810
 4851W        W18265   8.717  15.822  16.049  0.2643  0.2963 -0.1205
 4852W        W18266   7.771  13.019  12.264 -0.0576 -0.1038  0.0085
 4853W        W18267  14.023  11.332  11.859 -0.4496 -0.2417  0.0435
 4854W        W18268   5.668   8.744   0.159  0.1713 -0.0430 -0.0165
 4855W        W18269   7.736   7.444  14.240  0.2784 -0.0995 -0.1301
 4856W        W18270   6.419   4.019  16.117  0.3880  0.3846 -0.0142
 4857W        W18271  15.449  10.341  10.336 -0.0265  0.2582 -0.2515
 4858W        W18272   5.897  17.390  15.363 -0.1437 -0.1419  0.0084
 4859W        W18273  14.050   1.604   4.288 -0.1016 -0.2617  0.1476
 4860W        W18274  12.468  15.236   4.644  0.0717 -0.1927 -0.1262
 4861W        W18275   0.782   6.372   3.217  0.0631  0.1090 -0.1974
 4862W        W18276   7.318   9.043   5.605  0.1635 -0.1850  0.0461
 4863W        W18277   4.817  13.131   6.658 -0.0244 -0.0208 -0.1465
 4864W        W18278  14.016  15.932   1.123 -0.0304 -0.2528 -0.1018
 4865W        W18279  13.750   7.133   4.696  0.0686 -0.0221 -0.1688
 4866W        W18280   1.904  15.786   5.347  0.0587 -0.0994 -0.1420
 4867W        W18281  15.593   0.549   5.245  0.0876 -0.1745  0.0218
 4868W        W18282   8.462  13.050   6.022 -0.1911 -0.1127  0.1955
 4869W        W18283   3.078   6.529   6.545 -0.0349  0.2648  0.2997
 4870W        W18284   4.459   0.369   5.400  0.1536 -0.0015  0.3850
 4871W        W18285   2.949   2.129  16.335  0.0552  0.0613 -0.3458
 4872W        W18286   6.407   6.799   4.568  0.3202  0.0708  0.0914
 4873W        W18287   3.331  11.725  14.342 -0.1225  0.2735  0.4429
 4874W        W18288  16.608   0.610   0.898  0.0987  0.2882 -0.1183
 4875W        W18289   8.082   0.470   3.059  0.1489 -0.0991  0.1626
 4876W        W18290  15.589   0.431   2.177  0.0532  0.0013  0.1308
 4877W        W18291  17.280   5.596  15.802  0.1273 -0.2817  0.1308
 4878W        W18292  10.838  13.956  11.103 -0.0201 -0.1274 -0.4038
 4879W        W18293   1.958   8.894  13.790  0.1205 -0.0734  0.3353
 4880W        W18294  16.111   2.946   3.109  0.0971  0.1996  0.2185
 4881W        W18295   5.648   7.828   3.033 -0.1717  0.1217  0.3599
 4882W        W18296   4.134  16.237  10.630 -0.1221 -0.1249  0.0370
 4883W        W18297   0.767  15.681   5.733  0.2328  0.0143 -0.0936
 4884W        W18298   9.323  16.803  14.245 -0.2454  0.3095 -0.2649
 4885W        W18299   0.020   1.102   1.769 -0.1186  0.0552 -0.1138
 4886W        W18300  13.400  17.384   3.716 -0.0360 -0.1857 -0.0502
 4887W        W18301   9.014   0.113  13.729 -0.1150  0.3489  0.1660
 4888W        W18302  10.351   3.253  10.956  0.1835 -0.0631  0.1263
 4889W        W18303  12.357  15.530   4.179 -0.1702  0.2143 -0.0707
 4890W        W18304  10.098   5.084  14.742 -0.1715 -0.1998 -0.1439
 4891W        W18305   0.733  15.174   5.729 -0.0371  0.0084  0.0169
 4892W        W18306   7.754  10.406  12.444  0.2672 -0.1834 -0.0495
 4893W        W18307   3.266  16.828  13.068  0.2250  0.1742 -0.2470
 4894W        W18308  12.959   1.669   2.853  0.1922  0.1236 -0.0566
 4895W        W18309   7.909  17.234  13.469 -0.0047 -0.0129  0.0075
 4896W        W18310   9.850  14.252   4.865  0.1098 -0.1437 -0.0946
 4897W        W18311  13.080  16.671   4.015  0.0588  0.3731 -0.0252
 4898W        W18312  17.460   0.269  13.054 -0.2107  0.1770  0.2040
 4899W        W18313   8.768  16.969   3.371 -0.1227  0.3551  0.1119
 4900W        W18314  11.585  16.405  10.176 -0.4207 -0.1081 -0.3086
 4901W        W18315  16.371   8.222  12.856  0.0072 -0.2007  0.0923
 4902W        W18316   2.978   3.116  15.369  0.1154  0.1498  0.2656
 4903W        W18317   6.953  14.973   2.563  0.0233  0.0956 -0.1048
 4904W        W18318  12.203   8.672  14.249 -0.0053 -0.1368  0.0685
 4905W        W18319   0.399   4.587   2.872  0.4104 -0.2601  0.2275
 4906W        W18320  16.351   8.409  13.340  0.6208 -0.0930  0.3667
 4907W        W18321  12.059  18.179   3.817  0.2442  0.2291  0.3088
 4908W        W18322   3.885   9.538  16.078 -0.1281  0.0637 -0.0913
 4909W        W18323   3.175   9.441   1.193  0.0720 -0.1971  0.1361
 4910W        W18324  13.579  12.460  15.690 -0.1797 -0.1819  0.0301
 4911W        W18325   3.574  15.317  12.254  0.0311  0.2059  0.0291
 4912W        W18326  10.808   5.735   2.817 -0.1198 -0.2416 -0.0369
 4913W        W18327  11.209  13.004   2.524 -0.3138 -0.1803 -0.0751
 4914W        W18328   1.094   0.229   5.823  0.0355  0.1410 -0.0553
 4915W        W18329  12.874   2.763   4.651  0.2359 -0.2084 -0.1082
 4916W        W18330   9.531   7.135   3.717 -0.0148  0.1067  0.1184
 4917W        W18331   2.384   8.901   5.724 -0.1750  0.1311  0.0738
 4918W        W18332   7.311   8.075  16.440 -0.0133  0.1125 -0.2206
 4919W        W18333   9.611  15.539  12.841 -0.0617  0.0546  0.3419
 4920W        W18334   3.319   2.829  15.208 -0.3018 -0.1120  0.1669
 4921W        W18335   8.275   4.479  12.055 -0.1313 -0.1112  0.1547
 4922W        W18336  10.751   5.596   1.393  0.0661 -0.0094  0.1420
 4923W        W18337  13.714   0.292  10.362  0.0544 -0.1973 -0.0638
 4924W        W18338  17.444   8.414  12.085 -0.0055  0.0159  0.0780
 4925W        W18339  13.515   8.374   0.209  0.1919 -0.2745 -0.0242
 4926W        W18340   7.932   7.713   0.634  0.2593 -0.1526  0.0162
 4927W        W18341   5.766   7.993  16.347 -0.2097 -0.0936 -0.0442
 4928W        W18342   3.131   8.303   4.874  0.0851  0.0871  0.0010
 4929W        W18343  16.325   5.854   0.159  0.1011 -0.3654 -0.0794
 4930W        W18344   2.103   2.961  12.891 -0.3131  0.1119 -0.0173
 4931W        W18345  11.001  14.398   1.693  0.2929  0.0648  0.2467
 4932W        W18346  17.115   6.631   0.932 -0.3695  0.1360 -0.0552
 4933W        W18347   9.975   8.896  15.972 -0.0341  0.0907 -0.0198
 4934W        W18348  12.927  14.936   0.953 -0.2796 -0.1341 -0.2436
 4935W        W18349  18.022  13.539  16.232  0.1615 -0.2325 -0.0511
 4936W        W18350   7.761   2.610  11.459 -0.0254  0.1981 -0.0498
 4937W        W18351  16.921   4.911   5.949 -0.1598  0.1922 -0.1671
 4938W        W18352  10.083   4.109  12.145 -0.0624 -0.1481 -0.0458
 4939W        W18353   8.131   0.003   3.277 -0.2213 -0.0852 -0.1022
 4940W        W18354  17.944   6.226   3.096 -0.3102  0.0197 -0.1114
 4941W        W18355   7.062  13.000  16.017  0.1562 -0.1385  0.1868
 4942W        W18356  15.546   3.559  15.889 -0.0501 -0.0412  0.1182
 4943W        W18357   7.070   6.186  13.492 -0.2556 -0.0765 -0.3087
 4944W        W18358   1.067   5.630   4.601 -0.0357 -0.0920 -0.2433
 4945W        W18359  17.728   2.825  14.480 -0.3261 -0.1945 -0.1877
 4946W        W18360  11.220   8.527   0.692  0.0715  0.1171 -0.0082
 4947W        W18361  10.626  17.627  12.265  0.1418  0.0158  0.1399
 4948W        W18362  11.718   4.212   0.101 -0.1760  0.1276 -0.2916
 4949W        W18363  15.081  16.265   0.751 -0.5145  0.1103  0.2685
 4950W        W18364  15.761   2.884   0.479  0.0755  0.4692  0.2413
 4951W        W18365   1.846   6.345  15.249  0.0237  0.1858 -0.1495
 4952W        W18366   5.954   4.917  13.035  0.2906  0.1275 -0.0495
 4953W        W18367  10.529  11.800  12.537  0.1817  0.1379  0.2649
 4954W        W18368  17.483   2.905   1.973  0.2981  0.2793 -0.1786
 4955W        W18369   9.848  15.004  13.431 -0.0379  0.0358  0.1018
 4956W        W18370  16.437  12.381   3.002 -0.2795 -0.2130  0.4010
 4957W        W18371   4.896   4.967   6.063  0.2594  0.0739 -0.0326
 4958W        W18372   5.997   4.919  10.075 -0.0474  0.1694  0.4609
 4959W        W18373   4.475  15.843  14.877 -0.0406 -0.1104 -0.2073
 4960W        W18374   7.602  17.378  10.111 -0.3310  0.2036  0.3005
 4961W        W18375   2.425   1.460  12.896 -0.0436  0.3491 -0.3047
 4962W        W18376  11.470   5.963  15.291  0.0303  0.0877  0.2374
 4963W        W18377   5.777   2.526   2.831 -0.1459 -0.2105 -0.1865
 4964W        W18378   6.852  15.238  10.971 -0.1507 -0.1139 -0.0633
 4965W        W18379  11.273   6.273   2.080 -0.3062  0.0397 -0.0045
 4966W        W18380   7.042   3.461   2.447 -0.2197  0.5105 -0.0007
 4967W        W18381  12.361  16.078   4.288  0.2381 -0.1388  0.1387
 4968W        W18382   4.569  17.810   1.234 -0.0659 -0.4425  0.0182
 4969W        W18383  16.608   9.892  16.406  0.2568 -0.0307 -0.1423
 4970W        W18384   9.257   5.246  15.165 -0.0548  0.0067  0.1827
 4971W        W18385  11.597  15.495  10.290  0.0698 -0.3822 -0.0682
 4972W        W18386   7.459   6.867  12.984 -0.2131 -0.2765 -0.1118
 4973W        W18387   6.741  17.425   0.562 -0.1928 -0.0004 -0.0955
 4974W        W18388   2.953  12.743  11.243  0.1303 -0.0431 -0.0989
 4975W        W18389   9.136  15.867  11.137 -0.0070  0.0653  0.1527
 4976W        W18390   1.280  12.225  12.666  0.0797  0.0396 -0.0035
 4977W        W18391   5.633  15.939   3.066 -0.0898  0.2739  0.0493
 4978W        W18392   4.158  12.865   5.459 -0.0063  0.0492  0.0874
 4979W        W18393   5.657   4.113  14.307 -0.1418  0.0602  0.0310
 4980W        W18394  12.984  16.610   1.678 -0.1436  0.0429  0.0847
 4981W        W18395   4.265   5.565   4.510 -0.0048  0.2758  0.0793
 4982W        W18396   7.924   9.779  16.223  0.3723 -0.2589  0.0553
 4983W        W18397  17.613   5.744  14.955 -0.0047 -0.1834  0.0090
 4984W        W18398  15.482   7.865  16.064  0.2801  0.1205 -0.2000
 4985W        W18399   6.357   4.203   2.469  0.3474  0.1311 -0.0700
 4986W        W18400  15.614   3.547   5.146 -0.1067 -0.1005 -0.1179
 4987W        W18401  12.381  11.038   1.853 -0.0253 -0.0870 -0.0360
 4988W        W18402   8.351   5.901   0.693 -0.0949  0.1225 -0.1074
 4989W        W18403  12.462   8.773   1.916  0.2745 -0.2005  0.1784
 4990W        W18404  16.904   0.594  13.211 -0.0046 -0.0511 -0.3190
 4991W        W18405   8.519  10.147  12.079  0.1079  0.2360  0.1361
 4992W        W18406  16.084   9.881   3.956 -0.1280  0.0642  0.0463
 4993W        W18407  14.653   9.051  12.859 -0.1003 -0.3800  0.1759
 4994W        W18408   2.994   6.335  14.313 -0.4677  0.0472 -0.0058
 4995W        W18409  16.878  12.895  11.123 -0.4866  0.3434  0.0163
 4996W        W18410   9.222   1.913   0.011  0.2321  0.0629  0.0167
 4997W        W18411   7.616  13.375   5.644  0.1123  0.1494  0.3269
 4998W        W18412  12.305   7.325  11.498 -0.0306  0.2976 -0.0840
 4999W        W18413  16.373   1.423  10.508 -0.1031 -0.1556  0.0776
 5000W        W18414  17.262   5.787  16.348 -0.0785  0.0267 -0.1400
 5001W        W18415  10.392  16.045  12.804 -0.1866  0.3428  0.1083
 5002W        W18416   9.162  12.363   5.767  0.1776 -0.0385 -0.2686
 5003W        W18417   3.032   4.044   1.419  0.1584 -0.2612 -0.2087
 5004W        W18418   0.990  17.321  14.843 -0.2082  0.0478 -0.3429
 5005W        W18419   0.964   9.382   2.904 -0.0520  0.2536 -0.1934
 5006W        W18420   2.669   3.048  16.310  0.2066 -0.0333  0.0646
 5007W        W18421  11.667  15.114   5.177 -0.1014  0.0894  0.1131
 5008W        W18422  13.870   5.647  11.232  0.1273  0.1330  0.4197
 5009W        W18423   4.421  11.613  12.040  0.0075 -0.0588  0.0993
 5010W        W18424   3.665   5.044  14.055 -0.0153 -0.0122  0.0729
 5011W        W18425   9.999  13.413  14.997 -0.0034  0.1237 -0.0471
 5012W        W18426   6.053  17.736   2.277  0.3790 -0.1924  0.0824
 5013W        W18427  14.777   2.281   2.448 -0.0664 -0.2022 -0.0026
 5014W        W18428   7.922  13.754  13.521 -0.0611  0.0714  0.0494
 5015W        W18429  14.328   1.411   3.948  0.1556 -0.0542  0.1195
 5016W        W18430  17.841  17.183   4.834 -0.1739  0.5447  0.0415
 5017W        W18431   1.537   0.572  15.977  0.3606 -0.0288  0.2852
 5018W        W18432   4.471  14.629  14.732  0.1934 -0.0154  0.0698
 5019W        W18433  11.922  14.431  13.096 -0.0733 -0.3290 -0.2132
 5020W        W18434  13.616  10.405   4.052 -0.0379  0.1041 -0.0977
 5021W        W18435   6.670   1.979  14.511 -0.0072 -0.2188 -0.0165
 5022W        W18436  13.052  15.492   3.003  0.2214  0.1538 -0.0967
 5023W        W18437   1.517  13.143  14.904  0.1263 -0.2180 -0.1121
 5024W        W18438   2.263  13.308  12.986  0.0214 -0.2416  0.1434
 5025W        W18439  13.716  15.520   1.149 -0.0641  0.2455  0.2079
 5026W        W18440  18.130  12.302  16.252 -0.0891  0.0006 -0.2170
 5027W        W18441   8.990   4.896   3.285  0.2165  0.1205 -0.0779
 5028W        W18442   8.044   5.562  13.764  0.0723  0.0466  0.0107
 5029W        W18443  12.269  12.878  12.745 -0.2949 -0.3779  0.0923
 5030W        W18444  14.342   4.747   0.882  0.3410  0.0501 -0.2539
 5031W        W18445  16.311   3.212   2.641 -0.3972 -0.1189  0.1434
 5032W        W18446   1.569   6.000  15.516 -0.1454  0.1219  0.0058
 5033W        W18447  11.656  11.637  15.851  0.0343 -0.0601 -0.1817
 5034W        W18448  14.461  11.741   3.485 -0.0778 -0.3817  0.0096
 5035W        W18449  18.165   3.411   0.931  0.0321 -0.2725 -0.0056
 5036W        W18450  15.755  13.388   3.665  0.1023  0.0632  0.0261
 5037W        W18451   7.339   6.364   5.604  0.0028 -0.2355  0.2439
 5038W        W18452   8.004   6.123  12.499 -0.0671 -0.0091  0.3192
 5039W        W18453   9.945   5.752  11.197 -0.3158 -0.1933 -0.0955
 5040W        W18454   5.894   3.099  10.969 -0.0484  0.2674  0.1426
 5041W        W18455   8.908   3.606   1.503 -0.1060  0.0634 -0.2552
 5042W        W18456  15.505   1.503   1.618  0.0333 -0.0908  0.0806
 5043W        W18457   5.154  15.071   6.371  0.0590 -0.0386 -0.0799
 5044W        W18458  18.161   0.152  15.546 -0.0183  0.3337  0.1073
 5045W        W18459   5.010  12.336   6.111 -0.1556 -0.2185 -0.2263
 5046W        W18460   1.901  16.749  10.745  0.1683  0.0369  0.0171
 5047W        W18461  12.047   3.281  12.994 -0.2918  0.1725 -0.1849
 5048W        W18462   8.698   4.399   3.481  0.0625 -0.0245  0.2542
 5049W        W18463   2.849   1.047   5.392  0.0009 -0.0448 -0.4316
 5050W        W18464   1.640  13.047   4.356  0.0988 -0.1635  0.3265
 5051W        W18465  13.893  13.979   9.986 -0.2149  0.1018 -0.0043
 5052W        W18466  17.772   3.631   2.963  0.0701  0.2455  0.2282
 5053W        W18467  15.226   0.881   5.964 -0.2229 -0.0036 -0.0211
 5054W        W18468   0.634  13.557   0.072 -0.1915  0.2948 -0.0603
 5055W        W18469   5.859   1.450  15.833  0.0667  0.1813 -0.1082
 5056W        W18470  14.303   5.564   4.121  0.0875  0.0659  0.2057
 5057W        W18471  14.054  12.604  15.622  0.1886  0.4772  0.0844
 5058W        W18472  16.668  11.843  16.416 -0.0305  0.3893  0.0536
 5059W        W18473  13.916  13.737  15.815  0.1627 -0.1303  0.1707
 5060W        W18474  10.174  14.627   1.073 -0.3430  0.0658  0.2169
 5061W        W18475  10.238  10.766   3.562 -0.2431  0.1912  0.0783
 5062W        W18476  15.564  14.171   3.189 -0.0553 -0.3769  0.0235
 5063W        W18477  11.613   3.794   2.349  0.2434 -0.2199 -0.0263
 5064W        W18478   4.119   5.005   1.756  0.0902 -0.1610 -0.2728
 5065W        W18479  11.955  16.731   5.696  0.0019 -0.1344  0.1290
 5066W        W18480   6.257   7.947   1.357  0.0246  0.1592  0.0071
 5067W        W18481  15.906   7.380  11.436  0.0507  0.1156 -0.2995
 5068W        W18482   8.405  11.851   3.744  0.2571  0.0257 -0.0030
 5069W        W18483   4.287   2.899   3.681  0.0403 -0.0801 -0.0695
 5070W        W18484  15.627   8.975   0.619 -0.1043  0.0514  0.1049
 5071W        W18485  13.131  16.171  11.999 -0.0154 -0.1090  0.0355
 5072W        W18486  12.840   8.531   5.843 -0.1396 -0.1520 -0.3189
 5073W        W18487  11.448   7.092   4.556 -0.0034  0.4544  0.6432
 5074W        W18488   8.395   2.027   1.989 -0.2700 -0.1904 -0.0726
 5075W        W18489  13.917  10.538  16.505 -0.0489  0.0650 -0.0227
 5076W        W18490   4.721  14.414   2.158  0.0155 -0.1228  0.1789
 5077W        W18491  15.525  10.696   5.721  0.1329  0.0205  0.0169
 5078W        W18492   2.428   3.657  14.206 -0.0306  0.1875  0.1068
 5079W        W18493   0.377   7.806   3.151 -0.0824  0.1368 -0.1257
 5080W        W18494   4.321   6.660  16.312 -0.0611 -0.0797  0.2685
 5081W        W18495   3.923  14.650   4.955 -0.2342 -0.0979  0.0145
 5082W        W18496   6.716   8.292  12.597  0.0406  0.2933  0.2861
 5083W        W18497  13.664   1.591   2.344 -0.0073  0.0953 -0.1325
 5084W        W18498  16.502   2.720   3.332  0.3228  0.0832  0.3060
 5085W        W18499   9.582   9.986  11.783 -0.0229 -0.3758  0.1896
 5086W        W18500  12.809   0.446   4.738 -0.0663  0.0371  0.1189
 5087W        W18501   6.308   6.050   0.224  0.0121 -0.3057  0.0152
 5088W        W18502  11.405   9.397   7.115  0.1765 -0.0502  0.2127
 5089W        W18503  12.777  15.610   0.341 -0.1548 -0.1899 -0.1075
 5090W        W18504   0.414  12.817   5.536 -0.0457 -0.0051  0.0145
 5091W        W18505   9.833   7.487  13.184 -0.0415  0.2751 -0.0689
 5092W        W18506   0.560   2.694  13.021 -0.1031  0.0907  0.3697
 5093W        W18507  16.671   1.566  14.812  0.0822  0.2750  0.0074
 5094W        W18508  11.561   6.255  14.884  0.1699 -0.1299  0.0731
 5095W        W18509  15.102   8.661  13.194  0.0350 -0.1651 -0.0804
 5096W        W18510  16.626  17.582  14.300  0.0547 -0.2165  0.1612
 5097W        W18511   1.801   9.158  10.877 -0.1987  0.0314  0.0350
 5098W        W18512   7.958   5.999   3.955 -0.2010 -0.1907 -0.0572
 5099W        W18513   6.060   8.862   2.279 -0.1243  0.2873 -0.2863
 5100W        W18514  13.955  13.461  12.240  0.1673 -0.1364  0.0778
 5101W        W18515   2.108  15.572   2.792  0.0861 -0.1540 -0.2477
 5102W        W18516   3.530  18.123  12.855  0.1931 -0.1494 -0.1632
 5103W        W18517   6.186  11.026  14.514  0.4340  0.0331 -0.1062
 5104W        W18518   0.347   8.139   5.659 -0.0985  0.0904  0.0421
 5105W        W18519  16.293   1.476   1.088 -0.2556 -0.1126  0.0469
 5106W        W18520  12.189  13.064  14.911 -0.3508 -0.1263 -0.1019
 5107W        W18521  10.053  10.241   5.522 -0.3402 -0.0569 -0.0887
 5108W        W18522  13.500   1.022  12.772 -0.0361 -0.3394  0.0340
 5109W        W18523   7.882  12.801  15.993  0.0487 -0.2174 -0.2631
 5110W        W18524   8.298   3.284  10.520  0.0468 -0.1833 -0.0179
 5111W        W18525   9.401   2.673  13.516  0.3226 -0.2314  0.0808
 5112W        W18526   2.223  12.606  10.737  0.1146  0.0016 -0.6411
 5113W        W18527  17.956  12.701  15.626  0.2314  0.1567  0.0695
 5114W        W18528   9.455   2.270   2.066 -0.0525 -0.1947  0.2566
 5115W        W18529   4.994   5.325  12.146 -0.2167  0.0401 -0.2339
 5116W        W18530   6.608  12.444   4.204  0.0287 -0.1812 -0.0292
 5117W        W18531  13.742  13.475   2.977 -0.2368 -0.2613  0.1295
 5118W        W18532   9.577   2.405  15.045  0.0498  0.2587 -0.2417
 5119W        W18533   9.801  12.583  15.773  0.0812  0.0298 -0.2490
 5120W        W18534   7.822  13.528   0.845  0.3319 -0.1774  0.2263
 5121W        W18535   7.480   2.856  14.960  0.1521 -0.1489  0.0301
 5122W        W18536   0.443  11.817  15.692 -0.1827  0.1050 -0.0686
 5123W        W18537   8.915   3.865  15.053 -0.1869 -0.2296  0.0547
 5124W        W18538  13.440  15.620  13.678 -0.2795  0.0346 -0.0163
 5125W        W18539   1.067   0.069  11.946  0.1535  0.0891  0.0683
 5126W        W18540   8.853   7.473   2.656  0.0118  0.2418 -0.0759
 5127W        W18541  14.312   2.669   5.952 -0.1114  0.1316  0.0949
 5128W        W18542  14.813   7.466  13.113  0.2755 -0.3008 -0.1056
 5129W        W18543   5.248   4.347   3.733  0.1218 -0.0748  0.0573
 5130W        W18544  10.734   7.613  12.183  0.0762 -0.0280  0.2175
 5131W        W18545  10.434   7.045   3.514 -0.1711  0.3305  0.1770
 5132W        W18546   9.161  12.027   2.103  0.0800 -0.1553 -0.1363
 5133W        W18547   5.863  15.625   0.553 -0.1626 -0.3234 -0.0222
 5134W        W18548   9.928  11.055   6.717  0.2829  0.0076 -0.1743
 5135W        W18549  13.131  15.245  10.984  0.0461 -0.3835  0.2027
 5136W        W18550  15.486   9.344   1.385  0.0532  0.0466  0.0516
 5137W        W18551   7.771  10.999  11.754 -0.0936 -0.1507  0.0151
 5138W        W18552   1.072  15.138  14.332 -0.3291  0.2222 -0.3289
 5139W        W18553  14.264   3.882   1.598  0.0311  0.0669 -0.2613
 5140W        W18554  10.027  17.651   0.450 -0.0773  0.3360  0.1731
 5141W        W18555  14.669  16.902   4.711  0.0133  0.2483 -0.1214
 5142W        W18556  15.222  12.777   3.488  0.1271  0.0048  0.1785
 5143W        W18557  16.308  12.081   0.505  0.1030 -0.1507  0.0126
 5144W        W18558   1.309  12.597   4.226 -0.0358 -0.1406  0.0720
 5145W        W18559  17.729  10.760   5.297  0.0338 -0.2253  0.0217
 5146W        W18560   8.985  14.946   3.796  0.2642 -0.0523 -0.0177
 5147W        W18561  13.753   4.523  10.786  0.2364  0.2154 -0.0013
 5148W        W18562  16.688   6.176   3.717  0.1363  0.1240  0.3827
 5149W        W18563   8.819   5.374  10.584 -0.0086  0.2752 -0.0630
 5150W        W18564  13.497   4.242  12.834  0.2834 -0.2566 -0.1027
 5151W        W18565   1.958   4.035  14.933 -0.1586 -0.0713  0.1521
 5152W        W18566  16.421  15.852   0.564 -0.0667  0.1172 -0.0922
 5153W        W18567   6.651  17.169   4.864 -0.1304  0.0805 -0.2830
 5154W        W18568   4.708   3.630  16.023 -0.2575  0.0786  0.1999
 5155W        W18569  12.087   8.160   5.672 -0.0131  0.1023  0.0973
 5156W        W18570   2.174   4.997  11.559  0.0634  0.0538 -0.0124
 5157W        W18571   4.689   5.359  14.579 -0.0710  0.2784  0.0696
 5158W        W18572  13.073  15.561  16.370 -0.0150 -0.1607 -0.1611
 5159W        W18573  11.162   4.299   0.884 -0.0571 -0.1547  0.0459
 5160W        W18574   9.658   3.802   2.008  0.2677  0.0430 -0.0016
 5161W        W18575   7.532  12.040   5.141  0.2021 -0.1026  0.1646
 5162W        W18576   2.920  14.892  15.060  0.0914  0.3490 -0.1977
 5163W        W18577  17.027   5.819  11.951  0.0027 -0.0155  0.2006
 5164W        W18578   6.241  12.990   5.660  0.0855  0.3718  0.1214
 5165W        W18579  16.266  13.125   4.379  0.0637  0.0657  0.2962
 5166W        W18580  16.611  10.962   4.701 -0.0718  0.1324  0.2718
 5167W        W18581  15.096   3.337  15.892  0.1335 -0.1487  0.0164
 5168W        W18582  16.529  11.452   0.701 -0.0139  0.1311 -0.1201
 5169W        W18583   2.590   1.537  12.036 -0.0164 -0.0813 -0.0075
 5170W        W18584  13.646  17.585   0.485  0.1037  0.2886 -0.0164
 5171W        W18585   2.227  16.042  15.922  0.2517 -0.2863  0.1072
 5172W        W18586   9.381   0.037  11.011  0.2231 -0.0394  0.1694
 5173W        W18587   9.639   1.485   4.320 -0.2401 -0.1396 -0.1650
 5174W        W18588  17.633   8.979   3.000 -0.2510  0.0697 -0.1235
 5175W        W18589  10.146   0.542   1.047 -0.0047 -0.0937  0.1145
 5176W        W18590  15.786  13.688   3.156  0.0706  0.2138 -0.1616
 5177W        W18591  12.845   0.655   3.874 -0.0834 -0.0946  0.1083
 5178W        W18592   3.132  10.806  12.845  0.0718 -0.0801 -0.2753
 5179W        W18593   5.716  10.649   1.675  0.0935 -0.0771 -0.2706
 5180W        W18594  13.243   6.807   3.862  0.0243 -0.2246  0.0090
 5181W        W18595  11.394   7.832   2.902 -0.1846  0.0206  0.0779
 5182W        W18596   4.320  11.030   0.756 -0.2300  0.1525 -0.0385
 5183W        W18597   0.472   7.702   5.369 -0.3665  0.1020 -0.0403
 5184W        W18598   2.852  12.931  15.354  0.0855  0.0489  0.0556
 5185W        W18599  12.896   7.908  14.286 -0.0686 -0.1026  0.2282
 5186W        W18600   1.757   3.294   4.619 -0.1743 -0.2517 -0.0785
 5187W        W18601   3.652   7.835  15.755 -0.0553 -0.0476 -0.0506
 5188W        W18602  12.658   7.054  11.723  0.1888  0.0041 -0.3357
 5189W        W18603   7.475   1.814  14.673  0.0571 -0.2883 -0.3881
 5190W        W18604  14.336  14.203   0.537  0.0411 -0.0787  0.0308
 5191W        W18605  15.322  11.445  15.207 -0.0598 -0.2750 -0.0689
 5192W        W18606  15.701  15.985  10.900  0.0838 -0.1025 -0.0022
 5193W        W18607  18.146  14.399   1.563 -0.0445  0.0573 -0.0304
 5194W        W18608  15.240   3.588  13.329 -0.3466  0.1390  0.0761
 5195W        W18609  12.772   6.926  16.195  0.3327 -0.0991 -0.3049
 5196W        W18610   4.389  15.859  13.994  0.2486  0.1026 -0.0407
 5197W        W18611   4.208   9.291   2.121  0.2439 -0.0721  0.1837
 5198W        W18612   8.193   2.539   1.775  0.0460 -0.1222 -0.0370
 5199W        W18613   4.345   4.615   2.270 -0.1416 -0.4170  0.3447
 5200W        W18614   6.791  17.000   3.118 -0.1307 -0.4982 -0.2699
 5201W        W18615   6.227   8.864  14.059  0.1764 -0.1015  0.0152
 5202W        W18616  17.341   6.333  14.068 -0.2031  0.0383 -0.0902
 5203W        W18617  17.585   9.832   2.960  0.0857 -0.0879 -0.3440
 5204W        W18618  11.260   5.642   3.280  0.2374 -0.1462 -0.3741
 5205W        W18619  16.475   0.812  12.938 -0.1936 -0.1418 -0.1212
 5206W        W18620   1.376   2.803  16.323 -0.1968  0.2141  0.0456
 5207W        W18621   4.030   4.021  12.684 -0.2840 -0.0184 -0.0548
 5208W        W18622  13.222  11.746  16.323  0.0841  0.2246 -0.1768
 5209W        W18623   2.181   6.730   6.268 -0.0236 -0.0061  0.0862
 5210W        W18624  11.890   0.531   4.178 -0.2151  0.2548  0.0667
 5211W        W18625  11.894  13.335   3.668  0.0477  0.0082  0.0106
 5212W        W18626  10.495   5.842   3.716  0.4017  0.0700  0.2363
 5213W        W18627  16.474  17.683   4.364  0.1561  0.0167 -0.2583
 5214W        W18628   0.933  13.380   0.411  0.1361 -0.0068 -0.1161
 5215W        W18629   8.541   7.408  16.018  0.1254  0.1586 -0.0531
 5216W        W18630  11.743  14.743   3.753 -0.0164 -0.2359  0.5944
 5217W        W18631   8.519   0.502   0.231  0.1266  0.1487  0.1773
 5218W        W18632  17.250  10.170  11.407  0.1782  0.1847 -0.1424
 5219W        W18633  16.005  11.071   1.425  0.0902 -0.0213  0.2477
 5220W        W18634  17.968   7.458   5.752  0.0913 -0.1436  0.0607
 5221W        W18635  10.948  16.414   3.231  0.1111 -0.0923 -0.1020
 5222W        W18636   2.105   6.057   5.198 -0.1181 -0.1357 -0.2500
 5223W        W18637   1.514   1.241  13.110 -0.1842 -0.0591  0.3004
 5224W        W18638  10.249   1.707   2.040  0.0968  0.2406  0.2544
 5225W        W18639   9.542   7.654  15.979 -0.0211  0.0890  0.0652
 5226W        W18640   8.871   8.287  16.142  0.1085  0.1200  0.1280
 5227W        W18641   9.487   6.148   1.030 -0.1115  0.0806  0.0668
 5228W        W18642   9.264   8.291   2.359  0.6538  0.0801  0.0369
 5229W        W18643   9.827   4.664  14.500  0.1888 -0.0991  0.3797
 5230W        W18644  17.269  12.583  16.366  0.0063  0.2028  0.0676
 5231W        W18645  18.041  12.584   1.627  0.1140  0.0609 -0.1576
 5232W        W18646  15.022  12.419   0.757 -0.0288 -0.0278 -0.3029
 5233W        W18647  13.236   7.277   3.254  0.0614  0.4476  0.0260
 5234W        W18648  14.929  12.002  13.622 -0.0378  0.0144 -0.0190
 5235W        W18649   4.076   4.976  12.395 -0.3471 -0.2484 -0.0378
 5236W        W18650   9.062   5.938   2.855  0.2548  0.0071  0.0202
 5237W        W18651   8.094  12.799   3.017 -0.0628  0.1265 -0.4405
 5238W        W18652   8.645   0.500  10.160 -0.0456 -0.2243  0.3952
 5239W        W18653  10.685   4.209   4.028  0.0074  0.0590  0.0391
 5240W        W18654   3.125   3.881  14.781  0.0323  0.0623  0.0430
 5241W        W18655  17.117   2.285  13.093 -0.0351  0.0537  0.2610
 5242W        W18656   5.100  14.306  13.805 -0.0925  0.0199  0.0834
 5243W        W18657  10.751  10.188   2.176  0.0295  0.0016 -0.1492
 5244W        W18658   1.569   0.467   2.447 -0.1155 -0.1646 -0.0993
 5245W        W18659   4.908  16.610  10.806  0.3813  0.1667  0.1051
 5246W        W18660  13.267  17.919   1.378 -0.2025 -0.0201 -0.1038
 5247W        W18661  17.870   6.132  11.586  0.1762  0.1803 -0.1152
 5248W        W18662   6.140  14.600  13.916  0.3027  0.0756 -0.1159
 5249W        W18663  16.923  11.409   6.361  0.0642 -0.0015 -0.1256
 5250W        W18664   0.134   5.229   0.862 -0.0634 -0.0519  0.1250
 5251W        W18665  13.331   9.354   4.837 -0.0211  0.0321  0.1114
 5252W        W18666   3.299  10.005  14.042 -0.4125  0.0508 -0.0587
 5253W        W18667  16.573   5.411   4.207 -0.1314 -0.0897  0.0189
 5254W        W18668  13.277  12.214  11.583 -0.1022  0.1540  0.1381
 5255W        W18669  10.179  14.379  16.203  0.1235  0.2261 -0.1802
 5256W        W18670   3.882   2.441   1.247  0.1392  0.1229 -0.0662
 5257W        W18671   2.727   4.802   3.014 -0.0137 -0.0309  0.0038
 5258W        W18672  15.948   4.769   2.684  0.2209  0.0942  0.2143
 5259W        W18673   6.903  13.783   2.455 -0.2603 -0.0761 -0.0314
 5260W        W18674   2.687  18.144  11.018  0.0691 -0.1132  0.2658
 5261W        W18675  17.583   4.186  12.538  0.0537 -0.0357 -0.1470
 5262W        W18676  12.753  11.167  16.468 -0.3866  0.0479  0.1995
 5263W        W18677   5.570  17.782  13.495 -0.1261  0.2931 -0.1986
 5264W        W18678   5.746   7.616  15.210 -0.0003 -0.0537 -0.3572
 5265W        W18679   8.511   8.411   4.909 -0.0163  0.3259 -0.1839
 5266W        W18680  17.675   7.175   3.127 -0.2214  0.1322 -0.1718
 5267W        W18681  14.574   7.774  14.971 -0.0620 -0.2715 -0.3842
 5268W        W18682   2.313  12.740  16.288  0.0168 -0.0428 -0.2334
 5269W        W18683   6.392   0.034  11.496 -0.2009 -0.1812 -0.0946
 5270W        W18684   2.001  11.256   4.578  0.2934 -0.1452 -0.0383
 5271W        W18685   0.355  10.583  15.737 -0.0670 -0.1137  0.0013
 5272W        W18686   2.007   4.018   6.049  0.0023 -0.0237  0.0614
 5273W        W18687   8.455  11.342  14.535  0.2414 -0.0246 -0.2478
 5274W        W18688  16.770  13.505  11.525  0.1116 -0.1316  0.1952
 5275W        W18689  10.059  14.680   3.873 -0.2440 -0.0842 -0.0739
 5276W        W18690  16.800  10.008  11.567  0.1590  0.0925  0.4499
 5277W        W18691   3.584  15.576   2.942 -0.1589 -0.0710  0.1692
 5278W        W18692   3.913   7.618   6.219  0.0125  0.1476  0.0814
 5279W        W18693   5.110   4.595   2.571  0.3538 -0.0610  0.1639
 5280W        W18694   6.179  11.211   3.868 -0.2035  0.1597  0.0233
 5281W        W18695  12.761   0.445   1.626 -0.0216  0.0468  0.0129
 5282W        W18696   4.683  14.630   5.429  0.1660 -0.1392  0.0370
 5283W        W18697  15.155  18.157   4.592 -0.1534 -0.0647 -0.0248
 5284W        W18698  17.955   2.820  13.087 -0.2292  0.0598 -0.1531
 5285W        W18699  12.530   2.588   1.388  0.1008  0.0055 -0.1587
 5286W        W18700   8.902  16.717  14.447  0.0829  0.1270  0.0540
 5287W        W18701  13.808   5.768  15.533 -0.0022 -0.0525 -0.1150
 5288W        W18702   3.210  10.312   4.516  0.1522  0.2001  0.0752
 5289W        W18703  18.063  10.947  11.217  0.2406  0.0662 -0.3374
 5290W        W18704  17.244  13.084  16.228  0.1922  0.3189 -0.0705
 5291W        W18705   1.473  12.744   3.348  0.0019  0.0307 -0.2095
 5292W        W18706   2.857   8.062  12.287 -0.1601 -0.1092  0.1672
 5293W        W18707  11.196  10.665  12.889 -0.0246  0.0398  0.0557
 5294W        W18708  11.427   6.351  12.965  0.1130 -0.1225  0.1739
 5295W        W18709  13.870  11.253  12.872  0.0445 -0.1005 -0.3080
 5296W        W18710  10.100   7.152   5.692  0.3003 -0.0288  0.0241
 5297W        W18711   7.432   3.903   4.047 -0.1437  0.2430 -0.1816
 5298W        W18712  16.174   0.410   3.741 -0.0702 -0.0101  0.0966
 5299W        W18713   4.875  13.386   4.062 -0.0349  0.0714  0.0545
 5300W        W18714   8.965  11.154   3.223 -0.0082 -0.0682 -0.1676
 5301W        W18715   6.656  17.754  16.329  0.4037 -0.0368 -0.0156
 5302W        W18716   9.606  18.044  16.119  0.1339  0.2538 -0.0693
 5303W        W18717  17.324   5.833   3.145 -0.0381  0.3480  0.3011
 5304W        W18718  14.462   0.974  12.493  0.0292  0.3378  0.4148
 5305W        W18719   5.355  15.469   4.234 -0.2675  0.0833  0.2249
 5306W        W18720   8.501   1.607   4.819  0.0333  0.3033  0.1863
 5307W        W18721   8.758   5.347   1.457 -0.0170 -0.2013 -0.0230
 5308W        W18722   2.752  14.283   4.498 -0.1693  0.0502 -0.5642
 5309W        W18723   4.531   6.608   1.194  0.4263 -0.2142 -0.1041
 5310W        W18724  13.775  16.346   0.853 -0.1164 -0.2157  0.0028
 5311W        W18725   2.908   1.329   1.816  0.2195  0.3623  0.2582
 5312W        W18726   2.641   2.541  16.497 -0.3098  0.0319  0.1482
 5313W        W18727   0.726   4.231  15.656  0.2647  0.0192  0.3354
 5314W        W18728  17.386  13.167  15.761 -0.0877 -0.3317 -0.0853
 5315W        W18729  13.312   0.655  10.456 -0.1063  0.3241 -0.2745
 5316W        W18730   4.041  10.144   0.425 -0.0603 -0.3528 -0.0002
 5317W        W18731  13.577   1.650  12.702  0.0993 -0.0133 -0.1870
 5318W        W18732   1.566   4.539  10.221  0.0524 -0.0080 -0.2853
 5319W        W18733  11.154   0.276   2.803 -0.1511 -0.0281  0.1064
 5320W        W18734  16.628   0.984  11.975 -0.1146  0.0704 -0.1117
 5321W        W18735  16.373  11.921   1.147 -0.0953 -0.2071 -0.3733
 5322W        W18736  17.945  12.354  12.438 -0.1420  0.0254  0.0477
 5323W        W18737  15.831   7.041   5.102 -0.0284 -0.2249 -0.1732
 5324W        W18738   7.652  16.037  15.000  0.2531  0.0267  0.2367
 5325W        W18739  17.028  15.180  11.994  0.0569  0.0281 -0.1175
 5326W        W18740   4.039   6.486  12.714 -0.0822  0.1731 -0.0618
 5327W        W18741   1.745   5.681  13.471  0.1581 -0.2358 -0.0827
 5328W        W18742   2.111  11.376  13.670  0.3980 -0.0888 -0.0432
 5329W        W18743   9.982   0.777  14.956  0.1594 -0.0455 -0.0065
 5330W        W18744   9.798   8.596  11.738 -0.0735  0.2102 -0.0065
 5331W        W18745   0.093   1.952  11.031 -0.0551  0.1265 -0.0982
 5332W        W18746  12.126  14.570  10.481 -0.0163 -0.0394 -0.1511
 5333W        W18747  11.229  10.547   3.166  0.1119 -0.1486 -0.0475
 5334W        W18748  13.710  17.912   3.913 -0.0615 -0.4882  0.0676
 5335W        W18749   3.610  12.906  13.050  0.0029  0.0765  0.2781
 5336W        W18750   9.010   6.894  12.672  0.1433 -0.0309  0.0629
 5337W        W18751  17.958   6.807   0.471  0.0855  0.4999  0.1210
 5338W        W18752  16.285   6.756   4.242  0.0923  0.1559 -0.2064
 5339W        W18753  14.757  10.278   3.929  0.4197 -0.0994 -0.1994
 5340W        W18754   5.013   8.381   6.905 -0.1954  0.0066 -0.2169
 5341W        W18755  12.643  13.189   4.880  0.2294 -0.1539 -0.0970
 5342W        W18756   1.334  11.367  12.497 -0.1233  0.1295  0.2328
 5343W        W18757  17.143  17.617  14.245 -0.0662  0.0368 -0.1944
 5344W        W18758   2.420  11.194  12.531 -0.1575 -0.0562 -0.2805
 5345W        W18759  11.675  11.244  15.455 -0.1920 -0.1350 -0.2696
 5346W        W18760  16.674   5.234  11.161 -0.4005 -0.0747  0.1825
 5347W        W18761  17.720  10.495   1.551  0.1337  0.1909  0.2445
 5348W        W18762  11.309   8.915  11.873  0.4468  0.0786  0.0614
 5349W        W18763   0.203   8.243   0.256 -0.1823 -0.0529  0.0245
 5350W        W18764   0.911   6.946   4.297  0.0879  0.2176  0.0231
 5351W        W18765  14.621   8.619  11.635 -0.2783 -0.1917 -0.3551
 5352W        W18766  17.339  18.053  12.796  0.0814 -0.0832  0.0136
 5353W        W18767  11.743   5.612   1.413 -0.0696  0.0376 -0.0967
 5354W        W18768   0.212   6.855  15.370  0.0816 -0.3791 -0.0761
 5355W        W18769   7.418   7.168   5.286  0.2029  0.0523 -0.0285
 5356W        W18770  17.388   6.270  16.398 -0.2308  0.2119  0.2809
 5357W        W18771   8.705   4.462   4.137 -0.1256 -0.1328  0.4026
 5358W        W18772  11.998   5.077  10.452 -0.1181 -0.1790  0.0517
 5359W        W18773   4.803   1.780  12.936 -0.1443  0.0248 -0.0438
 5360W        W18774   5.014  12.326   5.063  0.1013  0.2080  0.0500
 5361W        W18775   9.956  10.791  14.854  0.0998  0.5607  0.1617
 5362W        W18776   6.150   5.453   2.943 -0.1884 -0.0059 -0.0023
 5363W        W18777   3.141  16.128  13.113  0.1791  0.0186 -0.3507
 5364W        W18778  18.196  17.620   4.566  0.2450 -0.0019 -0.2467
 5365W        W18779  10.328   1.135  14.907  0.2285  0.0403  0.1072
 5366W        W18780   9.290  10.176  13.361 -0.1137 -0.1671  0.0142
 5367W        W18781  13.710   5.139  11.350 -0.3862  0.1105 -0.0977
 5368W        W18782  13.822   5.695  12.917  0.0559 -0.2497 -0.2309
 5369W        W18783   1.081  13.177   3.586  0.1602 -0.3214  0.1002
 5370W        W18784  14.289  10.877   6.312 -0.0126 -0.0414 -0.0107
 5371W        W18785  16.260  14.686   3.924  0.1027  0.1815 -0.1145
 5372W        W18786   7.135  11.216   6.168 -0.2046  0.0298  0.3456
 5373W        W18787   1.531  15.707   0.486  0.4685 -0.1460  0.1812
 5374W        W18788  12.088  18.012  16.358  0.1879 -0.2336 -0.0783
 5375W        W18789   3.414   2.845   0.161 -0.0268  0.1146 -0.2173
 5376W        W18790  18.031   0.536  10.905 -0.0197 -0.1792  0.0830
 5377W        W18791   4.290   1.160  12.197 -0.1638 -0.4131  0.0124
 5378W        W18792   5.914   4.332  15.716 -0.0806  0.1286  0.0712
 5379W        W18793  15.951  15.003   5.650  0.0950  0.0276 -0.0505
 5380W        W18794  12.713  11.636  11.358  0.2027  0.1204  0.3062
 5381W        W18795   2.160   4.624   0.703  0.1058  0.0235 -0.0934
 5382W        W18796   8.725  17.962  12.995  0.1774  0.0243 -0.0600
 5383W        W18797  14.086  16.660  10.523 -0.1736 -0.1423 -0.0066
 5384W        W18798   6.487   5.455  12.012  0.1921  0.0249 -0.0172
 5385W        W18799  10.713   8.744   6.930  0.1993  0.2215 -0.0971
 5386W        W18800   6.563  16.304   5.011  0.0023 -0.1315 -0.1936
 5387W        W18801  10.028  14.183  12.958 -0.1340 -0.1550  0.0164
 5388W        W18802  16.584  16.599  16.117  0.0979  0.0642 -0.2072
 5389W        W18803  13.896  13.209   5.359 -0.0166 -0.3215  0.0757
 5390W        W18804   8.183   2.668   4.700  0.0374  0.1548 -0.1686
 5391W        W18805   3.707  18.195   1.283 -0.1197 -0.1243  0.0404
 5392W        W18806   7.437   3.130  12.296  0.1775  0.1320  0.3401
 5393W        W18807   4.146  16.082  14.490  0.0904 -0.1649 -0.1704
 5394W        W18808   2.677   3.388   0.625  0.0097 -0.1218  0.1502
 5395W        W18809  12.810   1.123  12.725 -0.0867  0.1548  0.1088
 5396W        W18810   9.367   4.064  11.989  0.0969  0.1861 -0.0602
 5397W        W18811  17.073   3.774  13.689 -0.2772  0.0154  0.0557
 5398W        W18812  17.951  10.758  14.681 -0.1421  0.2465  0.0804
 5399W        W18813   5.643   8.704   1.773  0.2137  0.0519  0.2873
 5400W        W18814  12.703   1.722   0.764 -0.1143 -0.1278  0.2069
 5401W        W18815   8.114  18.051  13.285  0.0706  0.0487 -0.2410
 5402W        W18816   4.579   6.750   5.317 -0.0609 -0.1507  0.3872
 5403W        W18817   5.679   6.785  15.612  0.0488  0.2659  0.4922
 5404W        W18818   5.045   2.650   4.923  0.0967 -0.3849 -0.1292
 5405W        W18819  10.909  13.507   2.589 -0.0736  0.0498  0.0081
 5406W        W18820   1.542   3.032  11.188  0.3101 -0.0739  0.2466
 5407W        W18821   4.708   3.529   1.362 -0.2543  0.1677 -0.0299
 5408W        W18822   4.568  17.110   2.676 -0.2954  0.2508  0.0554
 5409W        W18823  14.196  17.536   2.670 -0.1047 -0.0330 -0.0506
 5410W        W18824  17.931   8.344  11.957  0.3868 -0.1603 -0.3018
 5411W        W18825   1.183  15.116   4.454  0.1260  0.0960  0.1151
 5412W        W18826  18.137  11.617   5.067 -0.2595  0.0889  0.2849
 5413W        W18827  15.448   1.866   2.043  0.0254  0.1373 -0.3719
 5414W        W18828   5.311   1.538   5.051  0.1990  0.3311 -0.2105
 5415W        W18829   1.743  15.709  15.994  0.3429  0.0931  0.1078
 5416W        W18830  14.971   2.218   0.574 -0.0027 -0.1015  0.0572
 5417W        W18831  16.961   7.256   2.210  0.2343  0.3008 -0.2154
 5418W        W18832   3.332  14.603  15.498  0.3314 -0.0462 -0.0305
 5419W        W18833   2.565  14.516   5.775  0.2744  0.0799  0.0650
 5420W        W18834   8.438   4.933  16.366 -0.3148 -0.0617 -0.0676
 5421W        W18835  10.982   7.003  12.207 -0.1020 -0.0139 -0.1199
 5422W        W18836   0.491   5.037   4.997  0.1735 -0.0843 -0.3329
 5423W        W18837   5.695  11.774  11.378 -0.2985  0.0146 -0.0422
 5424W        W18838  15.374   9.984  13.563  0.1892  0.0304 -0.2181
 5425W        W18839  10.093   6.222   4.494 -0.1710  0.0581  0.0383
 5426W        W18840   6.591  15.583  10.503 -0.2972  0.4089 -0.0644
 5427W        W18841   9.699   1.461   3.424  0.1457  0.2668 -0.1419
 5428W        W18842  13.399   9.878   4.898 -0.1520 -0.0364  0.0455
 5429W        W18843  17.134  10.749  14.441 -0.0139  0.1057  0.2122
 5430W        W18844   4.213  18.204   5.535 -0.1263  0.1059 -0.7730
 5431W        W18845  16.887  17.417   6.580  0.0470  0.1484 -0.0219
 5432W        W18846   2.344  17.088  14.592 -0.1341 -0.1617  0.0459
 5433W        W18847   9.711   7.829  13.590  0.0823  0.0694 -0.2908
 5434W        W18848  12.701   6.761  15.689  0.0159 -0.3864 -0.3523
 5435W        W18849  10.450  14.014   2.386 -0.1191 -0.2236 -0.0912
 5436W        W18850  13.142   9.399  11.706 -0.0257 -0.0497 -0.1372
 5437W        W18851   3.856  17.434  11.594  0.0151 -0.1335 -0.2099
 5438W        W18852   0.819  17.844   1.814 -0.0431 -0.2819  0.3554
 5439W        W18853  10.238  10.400   6.301  0.0411 -0.0933 -0.1195
 5440W        W18854   2.357  14.532  12.993  0.0293  0.3870  0.0926
 5441W        W18855   9.000  17.624  12.289  0.1459  0.0696  0.0796
 5442W        W18856   4.992   1.544   3.228  0.0554  0.2231  0.2310
 5443W        W18857   5.144  10.678  13.514  0.2370  0.3993 -0.1425
 5444W        W18858   3.152   7.020  13.565 -0.0339 -0.0038 -0.0554
 5445W        W18859  11.256   2.322   2.455  0.0454 -0.0473  0.1318
 5446W        W18860   8.811   1.965   5.020 -0.0859  0.2315  0.0349
 5447W        W18861   5.009   6.057  13.354  0.5171 -0.0595 -0.1294
 5448W        W18862   0.788  17.271   0.996  0.0904  0.0605 -0.0773
 5449W        W18863   4.631   2.712   4.564  0.1213  0.1453 -0.4708
 5450W        W18864   5.633   5.708  13.372  0.2546  0.0337  0.2034
 5451W        W18865   6.635  14.254  15.798 -0.2625  0.1024  0.1629
 5452W        W18866  12.628  16.765   2.550 -0.1476  0.0068  0.1845
 5453W        W18867   9.220  12.298  11.407 -0.2362  0.0936  0.2886
 5454W        W18868   1.267   8.210   4.321 -0.2056  0.0260  0.0715
 5455W        W18869   1.634  14.818  15.188  0.1395 -0.0375 -0.3889
 5456W        W18870   3.993  13.202  13.021 -0.0523 -0.2196 -0.1041
 5457W        W18871   5.679   8.082  10.763  0.0771  0.1511  0.2586
 5458W        W18872   0.038  12.706   3.641  0.0341  0.2936 -0.1923
 5459W        W18873  13.133  17.868   1.976 -0.3293 -0.3131  0.2115
 5460W        W18874   5.699   9.145  13.911  0.2540 -0.0030 -0.1433
 5461W        W18875   2.924   2.850  12.177 -0.1347 -0.0756 -0.1690
 5462W        W18876   2.420  16.851  15.798  0.0779 -0.4010 -0.3767
 5463W        W18877  12.196  11.456   1.518  0.0084 -0.1387  0.2284
 5464W        W18878  11.061   7.913  15.109  0.0568  0.0672  0.4357
 5465W        W18879   4.662  10.952   5.439  0.0011  0.3327 -0.0732
 5466W        W18880  14.518   2.832  13.033 -0.0491  0.0204 -0.0599
 5467W        W18881  11.230   1.525  14.976  0.2823 -0.1403 -0.3845
 5468W        W18882   8.898  17.725   3.898  0.0785 -0.0363 -0.1405
 5469W        W18883  14.465   4.604  14.314  0.5832  0.1452 -0.1606
 5470W        W18884  13.357   7.068  13.187 -0.0924  0.0074 -0.0672
 5471W        W18885   5.035  17.647  10.324 -0.0293  0.1080 -0.1282
 5472W        W18886  17.648   6.555  13.059 -0.0470  0.2621  0.2998
 5473W        W18887   5.951  10.439   3.998 -0.2141 -0.1184  0.0216
 5474W        W18888  10.268   2.285   2.287 -0.2487 -0.2612  0.0690
 5475W        W18889   4.103   4.230   5.073  0.1835  0.1713 -0.0758
 5476W        W18890  13.977   7.692  12.051 -0.1180 -0.0738 -0.0910
 5477W        W18891  17.643   1.876  14.776  0.0458 -0.0759  0.0603
 5478W        W18892   8.968  11.704   3.107  0.2753  0.0283 -0.0966
 5479W        W18893   9.046   6.778  15.902  0.0694 -0.0348  0.0612
 5480W        W18894   7.156   3.923   2.397  0.0692  0.2373  0.0329
 5481W        W18895   5.198  13.785  12.121 -0.0132  0.2853  0.0624
 5482W        W18896  12.460   0.813   2.954 -0.0673 -0.1509  0.1651
 5483W        W18897  14.121  13.902   1.227  0.0746 -0.4899  0.0192
 5484W        W18898   8.228   1.095  16.393  0.0560  0.0868  0.2878
 5485W        W18899  17.398   5.006   3.219 -0.0639  0.0221  0.0398
 5486W        W18900   3.011  14.045   2.221  0.2337 -0.1505  0.2309
 5487W        W18901   8.949   2.981   3.894  0.3517  0.0506  0.2329
 5488W        W18902   9.564   6.747   0.454 -0.1658  0.1550  0.0517
 5489W        W18903   4.179  16.810   3.179 -0.1145  0.1419 -0.2148
 5490W        W18904   4.853   9.820   0.659 -0.1780 -0.0018  0.1257
 5491W        W18905   3.985  16.313  15.968  0.0328 -0.2760  0.0030
 5492W        W18906  17.431   0.422  13.557  0.0872  0.0941  0.4069
 5493W        W18907   4.756   4.968  11.418  0.0439 -0.2096 -0.1502
 5494W        W18908   5.344  16.456   0.450 -0.2275 -0.3599  0.0766
 5495W        W18909  14.786   5.897   2.343  0.0813  0.0393  0.0950
 5496W        W18910   4.151  13.276  15.655  0.2187 -0.1333  0.0493
 5497W        W18911  16.117   8.506   3.744 -0.0072 -0.0637  0.2510
 5498W        W18912  10.247   8.416  15.395 -0.3554  0.1931 -0.1113
 5499W        W18913   6.077  17.584  14.897 -0.0814 -0.3545  0.1389
 5500W        W18914  16.181   7.493   2.026  0.0774 -0.0153 -0.0248
 5501W        W18915   7.822  11.534  16.164 -0.1821 -0.0572 -0.0834
 5502W        W18916  18.207  15.447  13.760  0.0570 -0.0606  0.0771
 5503W        W18917   3.575  15.592  10.782  0.0878 -0.0221 -0.2156
 5504W        W18918   0.791  14.377  13.746  0.1010 -0.0671  0.1389
 5505W        W18919   6.089   2.323   4.524  0.3178  0.0710 -0.1741
 5506W        W18920   0.756   0.646  13.985  0.3173  0.0494  0.2014
 5507W        W18921   9.526   1.080  11.680 -0.1127 -0.0887 -0.1342
 5508W        W18922  14.603   8.692   0.823  0.2723  0.1033  0.2917
 5509W        W18923  14.984  14.086  12.597  0.0969 -0.0018  0.3043
 5510W        W18924   4.165   7.348   2.482 -0.2244 -0.0257 -0.1281
 5511W        W18925   6.891   6.753   1.023  0.0292 -0.2542 -0.1027
 5512W        W18926  17.902  11.315   3.308  0.0885  0.1595 -0.0652
 5513W        W18927   5.441   1.922  12.050 -0.0666  0.0735 -0.0483
 5514W        W18928   9.937   2.038  14.898 -0.2090 -0.1266  0.1173
 5515W        W18929  13.585   2.521   3.946 -0.0688  0.0560  0.1556
 5516W        W18930  15.138  17.076   5.225  0.0888  0.3701  0.2573
 5517W        W18931  11.379  16.644  12.980 -0.1028  0.2983 -0.1070
 5518W        W18932  11.149  13.639  15.462  0.0112  0.1496  0.2775
 5519W        W18933  17.290  11.251   2.572 -0.0180  0.1136 -0.0211
 5520W        W18934   5.190  16.083   1.586 -0.3397  0.0479  0.1751
 5521W        W18935  11.575   6.313   0.485  0.1726 -0.4036 -0.0766
 5522W        W18936   8.209   1.601   0.048  0.0202 -0.1929 -0.0507
 5523W        W18937  12.273  15.276  13.045  0.0635 -0.2974  0.2712
 5524W        W18938   2.970  12.640  15.798  0.2471 -0.0881  0.0988
 5525W        W18939  11.623  14.313   4.012  0.0461  0.0947 -0.0637
 5526W        W18940   2.338  10.037  13.984 -0.0322  0.2126 -0.2843
 5527W        W18941   0.912  14.689  12.383  0.0802 -0.1193 -0.0149
 5528W        W18942   0.994  17.523   0.620  0.0063  0.0809 -0.0432
 5529W        W18943   2.707   9.255  14.598  0.2739 -0.1883 -0.1373
 5530W        W18944   0.844  15.824  15.613 -0.1092 -0.2347 -0.2700
 5531W        W18945   0.376  16.681   0.178  0.0251  0.3025  0.0635
 5532W        W18946  17.189  15.183   3.722  0.1558 -0.0201  0.0822
 5533W        W18947   2.575   8.301   0.904  0.0141 -0.0401  0.1393
 5534W        W18948  15.323  13.070   4.200  0.4254  0.5685 -0.1777
 5535W        W18949  11.488  13.694  14.298 -0.2147  0.0106 -0.4324
 5536W        W18950  12.244   8.980   5.368  0.1271  0.1911  0.2396
 5537W        W18951  16.464   0.168  11.906  0.0684 -0.1059 -0.2090
 5538W        W18952  13.534   8.907   2.094  0.0136  0.2199 -0.1685
 5539W        W18953   9.375  12.242   4.786 -0.1969  0.1347 -0.0093
 5540W        W18954   3.622  12.473   2.390  0.1233 -0.2759  0.0362
 5541W        W18955   5.943  17.318   0.226  0.1646 -0.2181 -0.0670
 5542W        W18956  11.202   2.938  11.054  0.2281  0.2033 -0.0094
 5543W        W18957  18.168   4.540   6.363  0.0799 -0.2305  0.1295
 5544W        W18958   8.151   9.677  14.729  0.0872 -0.1506  0.3516
 5545W        W18959  10.234  14.209  12.402 -0.1809 -0.1020  0.2418
 5546W        W18960   1.039   8.690  15.031  0.0888 -0.1263 -0.1738
 5547W        W18961  10.168   2.272   2.888  0.0742 -0.3278 -0.0071
 5548W        W18962   0.818   9.726  15.399 -0.2899 -0.1218 -0.2198
 5549W        W18963   2.307   5.253  13.200  0.0518 -0.1844  0.1812
 5550W        W18964  15.914   5.699  13.682  0.1284 -0.0242  0.1776
 5551W        W18965  11.355   3.153  15.565  0.0032  0.2651 -0.0479
 5552W        W18966   2.987  18.192   5.128 -0.1654  0.4011  0.2950
 5553W        W18967  16.414  10.742  15.470  0.0645  0.1271  0.1362
 5554W        W18968  17.222  13.635  14.950  0.0160  0.3130  0.4149
 5555W        W18969   8.708  15.055   1.901  0.4424  0.0224 -0.2047
 5556W        W18970  11.038  18.211   1.249  0.0374 -0.0546  0.1725
 5557W        W18971   7.975  16.102  15.529  0.0224 -0.4940  0.1948
 5558W        W18972  16.341  16.281   3.026 -0.2158 -0.1127 -0.2574
 5559W        W18973   5.498  15.638  14.052  0.1539  0.0453 -0.1307
 5560W        W18974  12.656  11.059   2.271 -0.1964 -0.1406  0.3301
 5561W        W18975  10.265  10.171  15.359  0.1329 -0.0883  0.3797
 5562W        W18976   9.154   2.164  15.274 -0.1195 -0.1855 -0.1523
 5563W        W18977  13.709   0.672  14.542 -0.0831 -0.0480 -0.0795
 5564W        W18978   1.627  11.099   3.334 -0.0466  0.1327  0.0349
 5565W        W18979   1.650  16.233   5.332  0.0246 -0.2962  0.0750
 5566W        W18980  14.575   7.950  16.377  0.2814  0.0947 -0.3049
 5567W        W18981  16.581  12.317   4.087  0.0653 -0.1164  0.1282
 5568W        W18982   8.047  14.902  11.793  0.2203  0.0208  0.0372
 5569W        W18983   3.540   9.053   2.590 -0.2762 -0.1920 -0.1150
 5570W        W18984  13.452   9.189  13.903  0.0043  0.0652 -0.0235
 5571W        W18985  14.980   8.402  13.591 -0.1961  0.0738 -0.7493
 5572W        W18986   2.066   7.352  11.336  0.4749 -0.2370 -0.0813
 5573W        W18987  16.686  12.071   5.350 -0.1420 -0.0770 -0.0912
 5574W        W18988  15.242   4.575   5.010  0.0608  0.1572  0.0878
 5575W        W18989   8.661  18.213   2.305  0.2163  0.0714  0.0875
 5576W        W18990   5.853   1.619   1.385 -0.1398  0.1021 -0.1299
 5577W        W18991   3.424   0.178   5.507 -0.3361 -0.0844 -0.2144
 5578W        W18992   0.410   3.248   1.652  0.3043  0.0827 -0.3613
 5579W        W18993  14.310  10.418   1.226 -0.0218  0.1680  0.0708
 5580W        W18994   4.004   6.477  14.590  0.0391  0.1669  0.3063
 5581W        W18995  16.583   4.986  15.799 -0.0025  0.0277  0.1102
 5582W        W18996  12.061   5.479  13.893 -0.1132  0.1233  0.2132
 5583W        W18997   8.591   5.736  14.038 -0.1360 -0.0630  0.2106
 5584W        W18998  15.944   4.740  14.500 -0.5918  0.2577  0.2591
 5585W        W18999  14.552  15.945  15.365 -0.1065 -0.0211 -0.1183
 5586W        W19000   3.519   9.729  11.689  0.0245  0.1825 -0.0376
 5587W        W19001   5.664   4.658  11.872  0.0325 -0.0819 -0.0949
 5588W        W19002   6.833   0.948  11.516 -0.1009  0.1502 -0.0806
 5589W        W19003  16.888   9.784   0.273 -0.1320  0.0244 -0.0128
 5590W        W19004   3.880   1.564  16.263 -0.2232  0.2406  0.3056
 5591W        W19005   3.978  13.795   3.455  0.1646 -0.1067 -0.1912
 5592W        W19006   7.207   1.877  16.106  0.3925 -0.0657  0.1895
 5593W        W19007  14.132  14.066  11.083 -0.2230  0.0297 -0.1240
 5594W        W19008   1.248   2.130   6.111 -0.0241 -0.2506 -0.1826
 5595W        W19009  11.069  12.778  13.484 -0.3203 -0.1251  0.3926
 5596W        W19010   8.314   7.767  11.808  0.2255 -0.1517 -0.3133
 5597W        W19011  13.049  13.699   5.038 -0.1062  0.0749 -0.0602
 5598W        W19012  12.606   1.894  15.205 -0.0482 -0.0049  0.0378
 5599W        W19013   2.725   3.765  13.780 -0.1677  0.0136  0.3762
 5600W        W19014  14.216  11.336   3.431  0.1109  0.1015  0.0176
 5601W        W19015   9.554  14.202  11.934 -0.3195  0.3421  0.1232
 5602W        W19016   4.121  18.221  11.724 -0.3547 -0.0900 -0.0700
 5603W        W19017   7.388   9.755  13.843  0.1654 -0.1772 -0.0468
 5604W        W19018   2.594   2.047   4.488  0.0101  0.0355  0.0809
 5605W        W19019   0.902   6.727  14.210  0.0554  0.0786 -0.0686
 5606W        W19020   0.758  16.883  14.981  0.2718  0.1165  0.2126
 5607W        W19021   3.617  17.001   2.440  0.2999 -0.1597 -0.1259
 5608W        W19022   3.999   9.202   5.285 -0.0832 -0.0570 -0.2535
 5609W        W19023  12.497   6.135  14.497 -0.0769 -0.2761 -0.0917
 5610W        W19024  11.118   5.517  15.609  0.0455  0.2848  0.1324
 5611W        W19025  16.886  10.863   2.459  0.0291 -0.1461 -0.1009
 5612W        W19026  12.589   4.778  12.953 -0.0479 -0.0408 -0.1183
 5613W        W19027  10.352   5.525  15.708 -0.2487 -0.0394 -0.0622
 5614W        W19028   4.572   3.024   3.235  0.3977  0.0270 -0.1361
 5615W        W19029   4.197  13.485  11.663 -0.1522  0.0220  0.1962
 5616W        W19030  12.336   7.287  16.385  0.1453  0.0061 -0.2714
 5617W        W19031  10.052   1.108   4.097 -0.1928  0.0373  0.0895
 5618W        W19032  17.263  14.507   1.550  0.0961 -0.0904 -0.1961
 5619W        W19033  16.050   9.045   5.584  0.0685 -0.1517  0.2403
 5620W        W19034   1.448  13.935   0.745 -0.2631 -0.1693 -0.0594
 5621W        W19035   8.926  13.185   3.083  0.0708  0.2187  0.0696
 5622W        W19036   2.632  17.032  12.617 -0.0675 -0.0678 -0.0397
 5623W        W19037  13.228   3.234   4.616 -0.0546 -0.1261 -0.3381
 5624W        W19038   9.690   6.919  16.521  0.1233  0.0689 -0.3507
 5625W        W19039   6.804  15.842  10.978 -0.0272  0.1045  0.2541
 5626W        W19040  14.584   7.981   0.390 -0.0905 -0.3962 -0.0287
 5627W        W19041   8.932  13.008  14.410 -0.1756  0.0320 -0.0638
 5628W        W19042  15.653   8.514   5.811 -0.0191  0.0229  0.0156
 5629W        W19043  17.667  17.839   1.840  0.1106  0.0392 -0.2513
 5630W        W19044   5.376  15.304  10.677 -0.0854 -0.2643 -0.0901
 5631W        W19045   6.704   2.501  14.255 -0.0244  0.0436 -0.2849
 5632W        W19046   3.958  13.525   4.006  0.1114 -0.2750 -0.0540
 5633W        W19047  15.808   8.848   3.502 -0.0190  0.0404 -0.2136
 5634W        W19048  17.750   8.887   4.064 -0.3808  0.1165  0.1614
 5635W        W19049   9.371  11.927   3.717  0.1088 -0.1210 -0.0410
 5636W        W19050   2.133   8.709  14.235  0.1592  0.2994  0.1795
 5637W        W19051   1.226   0.038   3.941  0.4311 -0.1658  0.4694
 5638W        W19052  15.520  17.543   3.486  0.0311  0.0693 -0.0082
 5639W        W19053   2.375   7.226   6.201  0.2296  0.1789 -0.2538
 5640W        W19054   3.173  13.359  12.329  0.1345  0.0452  0.1180
 5641W        W19055   1.198   6.403  14.571 -0.0769  0.1111  0.1062
 5642W        W19056   0.131   4.464  14.927 -0.0977 -0.2278  0.0207
 5643W        W19057  15.379  12.936  11.739 -0.1886  0.1210 -0.0985
 5644W        W19058  10.847  17.066  15.507  0.1280 -0.2533 -0.3084
 5645W        W19059   2.396   2.993   0.150 -0.3327  0.2239  0.1115
 5646W        W19060   1.997   6.978   4.768  0.0412 -0.0762 -0.3348
 5647W        W19061   6.950  12.445  14.615 -0.0178 -0.3825  0.0570
 5648W        W19062   9.910  14.052  11.227  0.1228  0.0551 -0.1271
 5649W        W19063   6.051  11.281   2.316  0.2319 -0.0017  0.0781
 5650W        W19064   6.804  17.362   9.431  0.1252 -0.1959 -0.0884
 5651W        W19065  13.629   6.224  12.823  0.0511  0.0954 -0.0929
 5652W        W19066  11.138  17.990  14.323  0.0367  0.1498  0.1126
 5653W        W19067  14.758  15.505   1.278  0.0190 -0.3127  0.0102
 5654W        W19068   6.582  11.853  12.383 -0.1243  0.0649 -0.1797
 5655W        W19069  14.981   7.551  12.277  0.0536  0.0963 -0.3123
 5656W        W19070   3.637   6.332   4.362  0.0113 -0.0748 -0.0476
 5657W        W19071   2.091  15.990  11.221  0.2208  0.0219 -0.1814
 5658W        W19072  12.531   4.131   4.303 -0.0457  0.0403  0.2826
 5659W        W19073   0.883  11.884   4.364  0.3562 -0.3123  0.1222
 5660W        W19074  10.808  14.393   2.248 -0.1400 -0.1176  0.0925
 5661W        W19075  16.317   6.763   2.692 -0.0902 -0.0058 -0.2038
 5662W        W19076  15.601   8.005   4.568 -0.1425  0.1072  0.0140
 5663W        W19077   8.624  15.800   9.873 -0.0108 -0.2219  0.0751
 5664W        W19078  14.157  12.747  12.531 -0.1121 -0.0799 -0.0233
 5665W        W19079  16.578   6.205   2.808 -0.0313  0.0455  0.2391
 5666W        W19080  13.643   9.666  12.079  0.0711  0.4269 -0.2442
 5667W        W19081  15.018  11.769  10.539 -0.0003 -0.1947  0.0033
 5668W        W19082  15.435   4.815   3.490  0.2423  0.0006  0.0882
 5669W        W19083  14.964  11.490   5.668 -0.1563 -0.0319  0.0874
 5670W        W19084   3.877  10.535   2.929 -0.1381 -0.0152  0.1475
 5671W        W19085   5.847   0.764   3.727 -0.0708 -0.0484  0.1665
 5672W        W19086   8.012   4.232  14.135  0.0963  0.1522 -0.1742
 5673W        W19087   8.776   2.107   3.161 -0.1908 -0.4267 -0.0776
 5674W        W19088   1.012   8.658   3.407 -0.0241  0.2328 -0.3328
 5675W        W19089   5.752  18.034  11.165 -0.0077  0.0742 -0.3666
 5676W        W19090   6.607  10.325  15.909 -0.1015 -0.0451 -0.1352
 5677W        W19091   6.842   8.594   1.945 -0.3014  0.1121  0.3444
 5678W        W19092   3.522   4.717  15.846  0.0110  0.1162 -0.0152
 5679W        W19093   4.931  12.785   2.381  0.0227  0.0850 -0.1640
 5680W        W19094   6.504   7.726   5.057 -0.1141  0.0773 -0.0913
 5681W        W19095  13.104   7.772   0.973 -0.2638 -0.3046 -0.1400
 5682W        W19096   8.957  13.257  12.745 -0.0173 -0.0665 -0.0283
 5683W        W19097   0.532  10.734  11.678  0.0610  0.2516 -0.0484
 5684W        W19098  17.930  11.983   5.381 -0.1544  0.1115 -0.1043
 5685W        W19099   3.836  12.630  13.647  0.0300 -0.0210 -0.1782
 5686W        W19100   3.072  14.968   3.553 -0.1244  0.0683  0.0817
 5687W        W19101   3.338   3.069  12.993 -0.4879  0.3140 -0.2245
 5688W        W19102  13.919   8.139   1.378 -0.1969 -0.0504 -0.0197
 5689W        W19103   7.110   4.771   1.930  0.0544  0.0214  0.1509
 5690W        W19104  16.773   6.436   4.926 -0.1725  0.2844  0.0483
 5691W        W19105   8.890  14.285   1.097  0.0045  0.4241 -0.0454
 5692W        W19106   5.350   9.248  16.106 -0.2115  0.1029 -0.0648
 5693W        W19107   8.271  11.562   0.549 -0.0273  0.0436 -0.0379
 5694W        W19108   8.839  13.231   2.126  0.2713 -0.2971 -0.3679
 5695W        W19109   7.022  12.652   1.819 -0.1092 -0.0252  0.1460
 5696W        W19110  11.438  12.072   2.875  0.0577  0.2707  0.1173
 5697W        W19111   4.770  12.638  15.517 -0.3386  0.0776  0.1839
 5698W        W19112   2.989   0.426  11.702  0.1362  0.0126  0.2223
 5699W        W19113  14.235  12.649  13.868 -0.4158  0.1749  0.2820
 5700W        W19114   3.208  10.935  16.241  0.0536  0.0198  0.0493
 5701W        W19115  12.170   1.683   2.427 -0.3007  0.0427 -0.2971
 5702W        W19116   0.646  10.684   1.786 -0.2927  0.0584  0.2308
 5703W        W19117   0.441  13.491  15.520  0.1932  0.2018  0.0895
 5704W        W19118   3.391   2.468   1.045  0.0672 -0.2136  0.1355
 5705W        W19119  14.373   0.913   3.858  0.1729  0.0132 -0.1968
 5706W        W19120   8.263   8.766  12.950 -0.1279  0.0914 -0.2545
 5707W        W19121  13.968  10.761   5.082 -0.0057 -0.1962 -0.1741
 5708W        W19122  15.187   6.840   3.208 -0.0400  0.1580 -0.2858
 5709W        W19123   3.130  12.470   6.046  0.3611 -0.0361  0.1651
 5710W        W19124   4.510   4.795  13.931 -0.1146  0.1866 -0.4820
 5711W        W19125  17.373   3.619   4.325 -0.2445  0.1495 -0.2225
 5712W        W19126   8.932   4.070   5.805  0.0395 -0.0273  0.1902
 5713W        W19127   7.462  12.549   5.108 -0.1316  0.0186  0.0552
 5714W        W19128  13.301  16.753  11.613  0.0312  0.0426 -0.1840
 5715W        W19129   4.193   0.087  15.512 -0.0231  0.0973  0.2504
 5716W        W19130   9.184  16.522  15.318 -0.0091  0.1533 -0.3663
 5717W        W19131   3.665  17.765  13.674 -0.0117 -0.2669  0.1750
 5718W        W19132   8.777  12.641  14.769  0.2397  0.0847 -0.1308
 5719W        W19133  16.814  16.545  13.318 -0.0375 -0.0831 -0.0135
 5720W        W19134   4.532   4.615  11.120 -0.0127  0.1238  0.1392
 5721W        W19135   3.393  15.145  10.972 -0.0131 -0.1415  0.0063
 5722W        W19136  12.147  18.206   4.776 -0.3008 -0.3132  0.0890
 5723W        W19137  15.799   0.888   3.717 -0.0023  0.0775 -0.2093
 5724W        W19138   1.522   7.352  15.436 -0.0820 -0.0157 -0.2121
 5725W        W19139  13.370  15.274   3.895 -0.1744 -0.1625  0.1924
 5726W        W19140   4.875  14.268  14.362  0.2294  0.2955 -0.2805
 5727W        W19141   7.398   1.108   4.274  0.1582 -0.0981  0.3357
 5728W        W19142  13.175   9.749   0.488 -0.0741 -0.1581 -0.1139
 5729W        W19143   8.008  13.456   4.792  0.0647  0.3494 -0.0682
 5730W        W19144  12.833   5.659   1.418  0.1016  0.2005 -0.2764
 5731W        W19145  16.573   6.081   1.587 -0.0713  0.0755  0.3061
 5732W        W19146  15.733   2.150  10.373  0.0549  0.0431  0.2270
 5733W        W19147  11.751  11.876   6.685 -0.1034 -0.1178 -0.0878
 5734W        W19148   5.415   1.376   4.098 -0.4390 -0.0803  0.2096
 5735W        W19149   1.559   0.842   1.760  0.0209 -0.0474  0.0791
 5736W        W19150   5.718  17.330   3.620 -0.0042 -0.0947  0.0441
 5737W        W19151   8.636   1.131  15.482  0.1383 -0.2124  0.1441
 5738W        W19152   8.203   7.714   1.624  0.0598  0.2018 -0.0812
 5739W        W19153  10.450  10.917   4.976 -0.0845 -0.1589 -0.0786
 5740W        W19154   5.751  17.239  10.906  0.0035  0.0192 -0.2347
 5741W        W19155  11.846  11.383   3.561  0.0645  0.2613 -0.0856
 5742W        W19156   7.761  17.182   4.235  0.2134 -0.2795 -0.2691
 5743W        W19157  10.308   3.616  12.481 -0.0465 -0.0121  0.2121
 5744W        W19158   8.292   2.483  13.921  0.4006 -0.0836 -0.0606
 5745W        W19159   0.960  14.472  13.284  0.0471 -0.1145 -0.2608
 5746W        W19160  13.618   7.041   5.204 -0.2186 -0.3471  0.1262
 5747W        W19161   2.853   0.327  15.523 -0.2681  0.0074 -0.2813
 5748W        W19162   5.738   4.853   1.364  0.0621 -0.0096 -0.1284
 5749W        W19163  13.843   2.724   0.463  0.0967 -0.1012  0.1785
 5750W        W19164  14.446   2.776   4.284 -0.5634  0.0996 -0.1327
 5751W        W19165  10.977  15.577  10.699 -0.0369  0.4483  0.1251
 5752W        W19166   2.380   4.349   4.401 -0.0066  0.0887 -0.2063
 5753W        W19167   9.396   7.215  15.671 -0.0078 -0.0805  0.2215
 5754W        W19168   5.284  13.599   2.508 -0.3214 -0.2808 -0.1683
 5755W        W19169   8.790   1.889  16.223  0.2021  0.1674 -0.1057
 5756W        W19170  15.904  17.265   0.756  0.2043 -0.0577 -0.1298
 5757W        W19171   7.445  17.712  16.474  0.1090 -0.2408  0.1562
 5758W        W19172   8.253  12.959  14.085  0.0764  0.0018  0.1583
 5759W        W19173   6.764   7.227   5.278 -0.0290 -0.0673 -0.3449
 5760W        W19174   7.275   3.510   1.571  0.0256 -0.1843 -0.1694
 5761W        W19175  10.572   9.447   0.145 -0.1767 -0.4440  0.3513
 5762W        W19176  11.464   9.290   2.250  0.3141  0.1503 -0.0098
 5763W        W19177   3.007   0.770  16.188  0.0062 -0.0337  0.1320
 5764W        W19178   4.170   4.939  14.282  0.1047  0.1660 -0.1507
 5765W        W19179  16.996  14.295   3.234 -0.1532 -0.2033  0.2561
 5766W        W19180  13.833   9.914  13.535  0.0127  0.0775  0.3418
 5767W        W19181  15.812  14.106   5.274 -0.1859 -0.1572 -0.1457
 5768W        W19182  14.047   7.833   3.184  0.1454  0.3333 -0.1575
 5769W        W19183  10.457  11.488  16.521 -0.1388  0.1267 -0.2639
 5770W        W19184  11.653  15.015   1.388 -0.1130  0.0839  0.0082
 5771W        W19185  14.212  11.769  13.691  0.0091  0.2256 -0.0967
 5772W        W19186  14.772   7.017  12.863 -0.0100 -0.3017  0.1306
 5773W        W19187   7.068   2.038   2.448  0.0245  0.1347 -0.0490
 5774W        W19188   1.025  16.685   2.462  0.1020 -0.0193 -0.1586
 5775W        W19189  13.314  12.744  11.432  0.3132  0.1552 -0.3589
 5776W        W19190  17.860  11.811  15.546  0.1216  0.2211 -0.1982
 5777W        W19191   8.199  14.169  14.887 -0.2181  0.0175  0.1544
 5778W        W19192   5.712   3.726  16.455  0.0935 -0.0661 -0.1348
 5779W        W19193   5.537   6.176  13.195  0.0960  0.0621  0.0547
 5780W        W19194  15.586  13.605   0.786  0.0755  0.0845 -0.0516
 5781W        W19195   2.674   0.315   0.981 -0.0723 -0.0257 -0.2288
 5782W        W19196   0.833   2.278  14.379 -0.0847  0.2658  0.1637
 5783W        W19197   1.978   0.411  15.158 -0.1246  0.2081 -0.0804
 5784W        W19198  11.549  13.265   0.872  0.2010  0.2087  0.3661
 5785W        W19199   4.279  17.766  14.984  0.0600 -0.0032 -0.1322
 5786W        W19200   7.388  13.930  12.304  0.2452  0.0525 -0.1266
 5787W        W19201  13.580   2.194   5.813  0.1761 -0.1635  0.3555
 5788W        W19202   3.994   3.190  13.906  0.3838  0.2546 -0.0526
 5789W        W19203  18.025  16.431  11.824  0.0210 -0.0785 -0.0510
 5790W        W19204   9.684   7.135   5.385  0.1624  0.2437  0.1609
 5791W        W19205   2.416  15.848   5.230  0.1114  0.1555 -0.1271
 5792W        W19206  10.690  10.107   1.132  0.1126 -0.0813  0.0283
 5793W        W19207   5.517   2.740  12.220 -0.0340 -0.2142  0.0988
 5794W        W19208  16.062  12.429   4.310 -0.1522 -0.0460 -0.1356
 5795W        W19209   2.154   7.088   6.686  0.0707  0.2605  0.2318
 5796W        W19210  15.897  14.545   3.184  0.1896  0.3184 -0.1616
 5797W        W19211   2.635  17.180   1.237 -0.0548 -0.3537  0.0396
 5798W        W19212  12.782   1.025   0.793  0.2106 -0.2396  0.2614
 5799W        W19213  14.731   8.522   6.490  0.0758  0.1451 -0.2734
 5800W        W19214   4.030  10.496   1.730 -0.0726  0.2002  0.0804
 5801W        W19215  15.829   3.551  11.987 -0.3492 -0.1895 -0.0141
 5802W        W19216   6.080   9.588   2.505  0.0639  0.1491  0.2406
 5803W        W19217  14.852   2.291  12.910 -0.0427 -0.1838 -0.1708
 5804W        W19218  14.853   5.504   4.141  0.0095  0.0976  0.4858
 5805W        W19219  15.285   9.768   4.631  0.0138 -0.2721  0.3312
 5806W        W19220  14.061  13.965   3.499  0.5279  0.0971 -0.0592
 5807W        W19221   5.706  10.166   4.336 -0.4581  0.1523 -0.2461
 5808W        W19222  15.162  12.443  11.621  0.0510  0.3868 -0.1110
 5809W        W19223  16.163  13.758   4.050  0.0074  0.0169 -0.0277
 5810W        W19224   1.808  12.674  14.878  0.2011  0.1080 -0.0575
 5811W        W19225   1.759   9.257  12.379 -0.2058  0.1923 -0.0795
 5812W        W19226   3.162  14.220  15.939 -0.4396  0.0609  0.0709
 5813W        W19227   6.585  15.166  16.132  0.0740 -0.0093 -0.1266
 5814W        W19228   4.084  15.658   0.174  0.1104 -0.1538  0.2463
 5815W        W19229   0.635  15.772  11.567  0.1050  0.0382  0.2449
 5816W        W19230  11.912  12.033  10.779 -0.0238  0.0770  0.0529
 5817W        W19231   8.583  12.590   3.027 -0.0501  0.3215 -0.0293
 5818W        W19232   7.996  17.361  15.741 -0.0777 -0.1169  0.3387
 5819W        W19233   7.342  11.605  15.269 -0.1067  0.1224  0.0275
 5820W        W19234   3.180   5.307  12.694 -0.2349 -0.0757 -0.1443
 5821W        W19235  16.183   6.733  11.880 -0.1461 -0.1277  0.0710
 5822W        W19236  12.622   1.682  10.236 -0.2702  0.0442  0.1499
 5823W        W19237  14.282   6.054  16.235  0.0322  0.0686 -0.2428
 5824W        W19238  15.352   4.302  11.652 -0.1494 -0.0599 -0.0308
 5825W        W19239  16.159   2.762   3.657 -0.2527 -0.0743  0.0146
 5826W        W19240  14.454   2.040   0.593  0.1981 -0.0869  0.1748
 5827W        W19241   1.105  13.873   0.162  0.0099  0.0397 -0.0120
 5828W        W19242   3.002   6.526   0.738  0.2863  0.3451  0.0886
 5829W        W19243  13.626   6.983  10.867  0.1617 -0.0246  0.1761
 5830W        W19244   7.397  17.610  12.561 -0.0411 -0.1482  0.2210
 5831W        W19245  15.734  12.964  12.820  0.1793 -0.1234 -0.1565
 5832W        W19246   4.345  10.917  11.196  0.2243  0.2817  0.1713
 5833W        W19247   7.192   1.626   4.255  0.1345  0.1505  0.0313
 5834W        W19248   0.265   0.175   1.334  0.1098 -0.1323  0.0956
 5835W        W19249   8.534   3.268  13.115  0.0056  0.1576 -0.1518
 5836W        W19250   3.025   9.213  11.756  0.0899 -0.4182 -0.0845
 5837W        W19251   5.160   5.095   6.549  0.2895 -0.1375 -0.2812
 5838W        W19252  14.025   1.464  10.572  0.2698  0.3038  0.3002
 5839W        W19253   2.597   2.571   4.272 -0.4892  0.2242  0.2377
 5840W        W19254   6.825   6.115  15.848  0.1284  0.2193  0.2755
 5841W        W19255  17.736   5.424  13.860 -0.2369  0.0219  0.0865
 5842W        W19256  17.621   4.712  16.411  0.0823 -0.0534  0.0537
 5843W        W19257   1.378   5.690  12.983 -0.1203  0.0029  0.0276
 5844W        W19258   4.392   6.855  15.746 -0.1625 -0.0062 -0.1549
 5845W        W19259  12.313  10.390   0.902 -0.0538 -0.0633  0.1982
 5846W        W19260   6.960   7.979   3.057 -0.1106 -0.2154 -0.1100
 5847W        W19261   0.927   4.908  11.223 -0.1480 -0.2934  0.0044
 5848W        W19262  11.283   4.333  15.460  0.0302 -0.1090 -0.4442
 5849W        W19263   5.020  16.497  12.406 -0.0127  0.1468 -0.1492
 5850W        W19264   0.157  13.144   3.987  0.2654  0.1613 -0.3215
 5851W        W19265   7.521   5.597   0.175  0.1637  0.0389 -0.1410
 5852W        W19266   9.450   2.346  11.462  0.2252  0.0203 -0.3241
 5853W        W19267   3.653  14.753  11.539 -0.0315  0.0322  0.0738
 5854W        W19268   8.313   2.962  14.511 -0.0205  0.2775  0.1434
 5855W        W19269   4.571  10.394  15.218  0.0443 -0.1848 -0.0358
 5856W        W19270   7.021  11.636   2.732  0.4278 -0.0483 -0.3963
 5857W        W19271   1.683   1.357   3.294  0.1164  0.0662  0.1123
 5858W        W19272   3.244   9.169   4.711  0.2430 -0.4389 -0.1808
 5859W        W19273   5.857   4.309   4.569 -0.1202  0.2751  0.2958
 5860W        W19274   3.696   5.080   0.484  0.1996 -0.0403  0.0948
 5861W        W19275  16.158  17.417  13.129  0.0177 -0.1176  0.1033
 5862W        W19276   8.529   7.032  14.606  0.0985  0.1785  0.1029
 5863W        W19277  14.668  11.621  11.867 -0.0296  0.0980  0.2960
 5864W        W19278  16.897  11.153   5.607  0.3438  0.3342 -0.1103
 5865W        W19279   5.165   8.871   5.408  0.1793 -0.0034  0.0117
 5866W        W19280  16.954   5.304   6.286  0.1619  0.0847 -0.0082
 5867W        W19281  11.813   9.104  16.088  0.0156 -0.1090 -0.3247
 5868W        W19282   8.036   8.433  12.555  0.1627  0.0465 -0.1685
 5869W        W19283   0.190   3.015  10.782  0.0830 -0.0369  0.0531
 5870W        W19284  17.629   5.592  15.454  0.2721 -0.0588  0.1157
 5871W        W19285  10.343   2.480  11.562  0.3171 -0.2544  0.1018
 5872W        W19286  16.035   8.253   5.935 -0.2790  0.1416 -0.1732
 5873W        W19287   4.041   9.411  15.135 -0.1123 -0.1346 -0.0141
 5874W        W19288   3.299  16.659   1.520  0.2551  0.1015 -0.0726
 5875W        W19289   2.496   2.327   2.574  0.0938 -0.1410  0.1693
 5876W        W19290   7.672   6.479   5.233  0.0295 -0.3052 -0.1020
 5877W        W19291   3.928   6.701   3.959  0.2764  0.0104  0.1501
 5878W        W19292   4.396   5.765  15.222 -0.2111 -0.1091  0.0465
 5879W        W19293  13.585   2.976  14.584  0.2303 -0.0827 -0.1523
 5880W        W19294  17.351   1.308   3.427 -0.0342  0.0413  0.2020
 5881W        W19295   5.985  11.623  15.159  0.0005 -0.3068 -0.1446
 5882W        W19296   8.861   9.227   2.900  0.0058  0.1091 -0.1547
 5883W        W19297  10.545  13.839   3.554  0.3083  0.0313  0.1017
 5884W        W19298  10.125  11.192   0.248  0.2716 -0.1514  0.0253
 5885W        W19299  13.683   8.530   4.453  0.0478 -0.1123 -0.0991
 5886W        W19300  16.317  11.759  15.540  0.3314 -0.1408  0.0076
 5887W        W19301   8.823   9.258  15.063  0.1208  0.1837  0.0895
 5888W        W19302  13.126  15.331  13.918  0.0072 -0.1545 -0.1608
 5889W        W19303   1.310  16.217   4.519 -0.1687  0.2384 -0.1432
 5890W        W19304  10.346  10.000   4.827  0.2263 -0.0097  0.0687
 5891W        W19305   7.634   2.720  13.220 -0.0255 -0.2082 -0.0694
 5892W        W19306   1.089   5.862  14.648  0.4228 -0.2655 -0.1914
 5893W        W19307   9.453  14.092  14.777  0.1789  0.0672  0.0506
 5894W        W19308   9.388   4.194  16.365  0.0038  0.0244 -0.0422
 5895W        W19309   1.029  11.201   2.827 -0.0001 -0.0049  0.3370
 5896W        W19310   2.698   5.081  13.470  0.0018 -0.0660  0.1428
 5897W        W19311  17.025   6.001   1.428 -0.1093 -0.1394  0.0710
 5898W        W19312   7.686  16.237   2.444 -0.0869  0.1007 -0.0974
 5899W        W19313  17.508  17.295   2.284 -0.2562 -0.0307  0.1114
 5900W        W19314  15.634  13.053  11.267 -0.1257  0.1502  0.1219
 5901W        W19315   7.844   8.543   3.819  0.1989  0.0687  0.3410
 5902W        W19316   4.886   1.362  15.528  0.0321  0.0473  0.0013
 5903W        W19317  13.035  15.958   3.501 -0.0939  0.0508  0.0216
 5904W        W19318   1.078   6.828   3.728  0.1371 -0.1505  0.0261
 5905W        W19319  14.258   8.892  15.634 -0.4400 -0.1754  0.1378
 5906W        W19320   0.098   4.321   5.089 -0.2749  0.3313 -0.3021
 5907W        W19321  11.139  14.986  13.944 -0.0807  0.1562  0.0064
 5908W        W19322  15.315   7.963   3.154  0.1377  0.3794 -0.1201
 5909W        W19323   6.137  13.880  16.457 -0.0025  0.1947  0.0066
 5910W        W19324   9.218  14.645   1.449  0.1076  0.0855  0.1826
 5911W        W19325   2.375  14.875  15.221 -0.0853  0.1212 -0.2836
 5912W        W19326   4.113   2.043   3.384  0.0183 -0.3657  0.1347
 5913W        W19327   2.288  16.132   6.133  0.0489  0.0992  0.4791
 5914W        W19328   2.497  11.488  14.055  0.2768 -0.1803  0.0271
 5915W        W19329  10.577  14.077   1.889 -0.0730 -0.0427  0.1304
 5916W        W19330   3.269  17.401   2.397 -0.1404  0.1324  0.1735
 5917W        W19331  11.299  17.268   2.974  0.1247  0.0141 -0.1624
 5918W        W19332   3.293  16.040  12.615 -0.0717 -0.2394 -0.1098
 5919W        W19333   3.611  16.334   5.932 -0.0512 -0.1435 -0.0488
 5920W        W19334  17.204   9.994   2.151  0.2216 -0.2455 -0.0067
 5921W        W19335  10.910   9.290   4.851 -0.1152  0.0279 -0.0126
 5922W        W19336   3.548   1.958   5.430  0.0590  0.0684  0.0332
 5923W        W19337   7.633   1.159  15.436 -0.0016  0.1256  0.0353
 5924W        W19338  14.891  13.309  11.196  0.1960  0.0650  0.0071
 5925W        W19339  14.305   8.834  11.961 -0.0011  0.0116  0.0272
 5926W        W19340  13.624   6.596   4.947  0.0003 -0.1451  0.0092
 5927W        W19341  11.903  12.746   0.421 -0.0052  0.1097  0.2760
 5928W        W19342  10.988   3.649   4.523 -0.6447  0.3356  0.0674
 5929W        W19343   5.878   2.291   1.026 -0.1186  0.0656 -0.1986
 5930W        W19344   7.429   7.009   3.098  0.2102  0.0515 -0.0023
 5931W        W19345  16.036   9.570   5.789 -0.0624 -0.0219 -0.2091
 5932W        W19346  14.456   6.996  11.394 -0.1964 -0.0715  0.0844
 5933W        W19347  16.612   8.714   3.772 -0.0191 -0.1923  0.0089
 5934W        W19348  10.089  18.037  16.048 -0.0576 -0.0386  0.1350
 5935W        W19349   7.125   2.303   5.317  0.0703 -0.0412  0.2240
 5936W        W19350   6.933  13.848   3.999 -0.1063 -0.0262 -0.1438
 5937W        W19351  11.496  11.415  13.504  0.1143 -0.0611 -0.4134
 5938W        W19352   0.958  14.261  12.071  0.0804  0.1869  0.1014
 5939W        W19353  13.462   8.131  11.430 -0.0325 -0.0454 -0.1235
 5940W        W19354   1.521  15.176   1.954 -0.0105 -0.2531  0.1194
 5941W        W19355   7.832   3.769   5.078  0.2059  0.2125  0.0220
 5942W        W19356   8.401  10.504   4.171 -0.0451 -0.2744  0.1918
 5943W        W19357  13.372  16.453  15.801  0.0117 -0.0573  0.0056
 5944W        W19358   3.307  15.037   1.520  0.1971 -0.1487  0.1410
 5945W        W19359  15.398  11.036   1.384 -0.0012 -0.1657  0.2567
 5946W        W19360   7.575  13.835  14.083  0.0755  0.1669 -0.2805
 5947W        W19361  12.417   5.055  12.624 -0.0596 -0.0558  0.1681
 5948W        W19362  15.558  12.408   3.300  0.0642  0.0668 -0.0462
 5949W        W19363  10.426   2.774   3.107  0.0701 -0.1267  0.4625
 5950W        W19364   1.351  17.693  14.586 -0.2180  0.0998  0.2481
 5951W        W19365   0.583   9.688   0.158  0.0063 -0.0596  0.0485
 5952W        W19366   3.764   4.638  12.222  0.1099 -0.1178 -0.0547
 5953W        W19367   2.374  17.359  10.607 -0.1589 -0.1321  0.0291
 5954W        W19368  17.343   2.804  12.222 -0.0828  0.1271 -0.3693
 5955W        W19369   5.704  14.543   2.366  0.0929 -0.2508 -0.1865
 5956W        W19370   8.155   2.996   1.518 -0.2400  0.2113 -0.2501
 5957W        W19371   9.311   9.058  11.836  0.0664 -0.2734 -0.0793
 5958W        W19372   7.348   9.687  16.147 -0.1594  0.0088 -0.2397
 5959W        W19373  15.827   6.297  14.857 -0.1393  0.1665  0.1863
 5960W        W19374  14.908  15.486   4.295 -0.0304 -0.0074  0.2668
 5961W        W19375   1.791   5.482   3.607  0.3031 -0.3676  0.0121
 5962W        W19376   0.398  14.937  16.489  0.0304 -0.1066 -0.1572
 5963W        W19377   1.019  17.445   3.635  0.2054 -0.0221  0.2367
 5964W        W19378   7.644  17.358   1.447  0.0733  0.0971  0.1279
 5965W        W19379  13.615  13.397   4.806  0.0533 -0.2149  0.1723
 5966W        W19380   8.005  17.746  15.247 -0.1069 -0.1236  0.1013
 5967W        W19381  17.934   2.793  10.780  0.2578 -0.2308  0.0257
 5968W        W19382   6.081  17.934   5.261 -0.2325  0.0419 -0.0066
 5969W        W19383   7.252  16.495  13.721 -0.2715 -0.0430 -0.1142
 5970W        W19384   9.325   1.698  15.562 -0.1934 -0.0773  0.0916
 5971W        W19385   3.096  16.283  15.843  0.0025 -0.0193  0.0530
 5972W        W19386   7.646  13.485  12.248 -0.2798 -0.0850 -0.1281
 5973W        W19387  15.153   4.830  14.849 -0.0035  0.0409  0.0827
 5974W        W19388   8.112  11.100  10.735 -0.2326  0.0262 -0.0095
 5975W        W19389   5.182  13.005   3.732  0.0680 -0.0777 -0.3733
 5976W        W19390   6.877   1.512  16.030  0.0394 -0.1810 -0.0922
 5977W        W19391   5.637   2.102   0.689  0.2380  0.0628  0.3847
 5978W        W19392   4.044   5.482   0.368  0.0580 -0.1356 -0.2278
 5979W        W19393   8.086   8.723   0.761 -0.0978  0.1232  0.0779
 5980W        W19394  16.900  16.883  15.391  0.0795 -0.0366  0.0508
 5981W        W19395  17.566   3.392   1.254 -0.1741 -0.2424  0.1638
 5982W        W19396   8.049  15.652   0.596 -0.0572 -0.2209  0.3037
 5983W        W19397   0.553  13.880   4.582 -0.0645  0.3223 -0.0890
 5984W        W19398  16.161  10.599   0.776 -0.1508 -0.0602 -0.1233
 5985W        W19399  10.153  11.333   5.313 -0.1089  0.2840 -0.0707
 5986W        W19400   0.469  11.115   2.817 -0.4513 -0.0842  0.1187
 5987W        W19401   1.315   6.263  12.331  0.1829 -0.0285 -0.1383
 5988W        W19402   2.376   8.651   0.595 -0.1820  0.1029 -0.0985
 5989W        W19403  10.517  16.462  14.826  0.2738  0.1250 -0.0044
 5990W        W19404   3.882   5.728  15.849 -0.5381  0.0555 -0.0736
 5991W        W19405  14.672   0.068   0.060  0.2695 -0.0414 -0.0928
 5992W        W19406  13.709   4.023  12.420  0.0634  0.4453  0.0339
 5993W        W19407  12.340   1.188   0.893 -0.2036  0.3580 -0.0701
 5994W        W19408   6.875  12.576  11.475  0.0022  0.4913 -0.2347
 5995W        W19409   6.643  11.609   0.963  0.0128 -0.0016 -0.1603
 5996W        W19410   2.035  17.861   6.576  0.2454  0.0028 -0.0076
 5997W        W19411  15.395  11.133  14.779  0.0556  0.0842 -0.3891
 5998W        W19412   4.198  17.980   3.379 -0.0302 -0.0263 -0.2392
 5999W        W19413   9.229  14.549  11.914 -0.1751 -0.1708  0.2264
 6000W        W19414   0.388  17.216  13.139 -0.0237  0.3224  0.1282
 6001W        W19415   9.539   8.995  12.942  0.1896 -0.2982 -0.0447
 6002W        W19416  14.220   2.159   4.214  0.0019  0.0484  0.0062
 6003W        W19417   1.056  13.314  11.033  0.2829  0.0080 -0.0301
 6004W        W19418  11.211   8.577  12.337  0.2912  0.2979  0.2279
 6005W        W19419   6.612  16.991  10.401 -0.3019 -0.1140  0.2901
 6006W        W19420   7.244   8.861   1.112 -0.2393  0.1373  0.2066
 6007W        W19421   5.854  12.263   2.384  0.1442  0.0654  0.2073
 6008W        W19422   3.382  12.226   2.866 -0.0061 -0.0147 -0.1038
 6009W        W19423  18.004  13.121  13.073  0.0705  0.3039  0.2171
 6010W        W19424  15.517  17.961   1.070  0.2303 -0.0131 -0.0077
 6011W        W19425  14.432   9.056   3.049  0.0253  0.2357  0.0428
 6012W        W19426   3.915   5.525  11.926  0.2477  0.0073  0.0673
 6013W        W19427   8.035  16.280  11.698  0.0995 -0.0323  0.1853
 6014W        W19428  13.736  14.636  11.323  0.0787 -0.1401 -0.1187
 6015W        W19429   2.552  12.152  13.827 -0.4299 -0.1844  0.3993
 6016W        W19430   2.852   0.631   0.154  0.0369  0.0883  0.4907
 6017W        W19431  12.156  11.212  12.549 -0.1562  0.0410 -0.3156
 6018W        W19432  13.457  11.311  11.818  0.0848  0.0163  0.1199
 6019W        W19433   9.085  18.162   4.568 -0.0244  0.1719 -0.1782
 6020W        W19434  11.178   9.886   1.195 -0.0132  0.0064  0.0218
 6021W        W19435   4.847  16.885   3.674 -0.1243 -0.3117 -0.1409
 6022W        W19436  14.129  11.822  14.974  0.1577  0.1674  0.0108
 6023W        W19437  17.893   2.968   5.697  0.3772 -0.1572 -0.4088
 6024W        W19438  13.005  12.296  13.268  0.1040  0.0983 -0.0982
 6025W        W19439  11.906  16.181   4.687  0.3499  0.1025  0.1175
 6026W        W19440   4.905   0.607   2.861 -0.0256 -0.1079  0.0389
 6027W        W19441   0.510  12.397  13.872  0.3891 -0.3580 -0.1635
 6028W        W19442   2.668  16.872  13.740  0.0234 -0.0290 -0.0004
 6029W        W19443   5.076   7.630   0.259  0.0428  0.0956 -0.1470
 6030W        W19444   4.132  14.348   6.000  0.0291 -0.3214  0.0667
 6031W        W19445  17.855   4.911   2.956 -0.0693  0.1250  0.1265
 6032W        W19446   3.951  15.094  13.145  0.2427  0.2695 -0.0618
 6033W        W19447   5.317  14.347  10.944 -0.0085  0.0825 -0.3415
 6034W        W19448   7.989  12.357   3.257  0.0431 -0.1195  0.0256
 6035W        W19449   0.550   1.641  12.795 -0.0261 -0.0463  0.1698
 6036W        W19450   7.747  12.473   5.917  0.0039  0.0425  0.0759
 6037W        W19451   1.866  18.102  15.572  0.2614  0.1335 -0.0009
 6038W        W19452  15.765   7.132  13.855 -0.0445  0.1470 -0.2936
 6039W        W19453   8.501  17.755   5.476 -0.2960  0.3302 -0.1440
 6040W        W19454   8.588   0.203  10.744  0.3840  0.3806 -0.2057
 6041W        W19455   7.909   4.565   1.452  0.2537  0.0037  0.1431
 6042W        W19456  11.306   0.433   4.946 -0.1438  0.2105 -0.2682
 6043W        W19457  13.336  16.819   0.906 -0.0105 -0.3012 -0.1023
 6044W        W19458   4.329  17.646  12.847  0.0942 -0.2070  0.0173
 6045W        W19459   0.113  10.278   0.577  0.3190  0.1593  0.0157
 6046W        W19460  15.825   0.080   5.294 -0.1282  0.1027 -0.0431
 6047W        W19461  15.754  16.343   0.057 -0.1307  0.1896 -0.4019
 6048W        W19462   2.824   7.157  11.192 -0.2045  0.1035 -0.0178
 6049W        W19463  18.039   4.504  13.425 -0.0409 -0.0335 -0.0383
 6050W        W19464   4.049   8.130  12.253  0.2187 -0.1258 -0.0110
 6051W        W19465  11.717  16.788  12.608 -0.0266  0.1557  0.0180
 6052W        W19466   6.363   2.717   4.004 -0.0822 -0.0228 -0.0731
 6053W        W19467  15.618  11.425  13.826  0.2797  0.1701  0.0382
 6054W        W19468  10.646   7.034   3.037  0.0544  0.1840  0.0849
 6055W        W19469  13.781   1.937   0.055 -0.1771  0.3481  0.2114
 6056W        W19470   8.137  16.889  15.929  0.0635 -0.2098 -0.2208
 6057W        W19471   9.528   2.373  10.901 -0.2238  0.0129  0.1188
 6058W        W19472  14.018   4.166   2.893 -0.1992 -0.0412 -0.1329
 6059W        W19473  11.057   8.173  14.030 -0.3439 -0.1075  0.2110
 6060W        W19474   5.864   9.716  14.325 -0.3345 -0.1252 -0.0892
 6061W        W19475  15.166  12.927  14.650  0.1018  0.0095  0.2416
 6062W        W19476  12.263   0.489   1.445 -0.4240  0.2537  0.1756
 6063W        W19477  14.536  17.867   4.374  0.0277  0.1083 -0.0714
 6064W        W19478  13.256  10.231   2.513  0.2089 -0.0741  0.0999
 6065W        W19479   2.114  11.888   2.760  0.0859  0.0997 -0.1336
 6066W        W19480  14.158  15.090  15.539  0.2658  0.0133  0.1526
 6067W        W19481   8.462  14.073  12.324  0.2485  0.2966  0.2153
 6068W        W19482  10.017   5.649  10.134 -0.0572  0.1604  0.0610
 6069W        W19483  15.249  11.886  15.894 -0.0699  0.0664  0.1847
 6070W        W19484   6.021  12.806  11.782 -0.0613  0.2000 -0.0649
 6071W        W19485   3.179  15.306  14.889 -0.1359  0.1651 -0.1027
 6072W        W19486   7.193  10.783  15.401 -0.1239  0.0675 -0.1732
 6073W        W19487   6.378   5.130  13.140  0.0198  0.1778  0.1043
 6074W        W19488   9.928  16.818   5.136 -0.1006  0.1174 -0.1248
 6075W        W19489   4.928  15.842  11.512  0.0255  0.0332 -0.0054
 6076W        W19490  12.844   2.087   3.193 -0.2520  0.2073 -0.1400
 6077W        W19491  13.610  15.503  14.933  0.0964  0.2415  0.1178
 6078W        W19492  16.895  14.281   2.577  0.0431 -0.0648 -0.1939
 6079W        W19493   7.923  15.708   4.791 -0.2605  0.1974  0.0698
 6080W        W19494   9.172   0.611   2.393  0.1999  0.1270 -0.0684
 6081W        W19495  13.383   5.699  11.318 -0.1132  0.1890  0.3248
 6082W        W19496   7.017   9.859  14.193 -0.1022  0.3226  0.1646
 6083W        W19497   4.910  10.381   3.457 -0.0477  0.1362  0.0423
 6084W        W19498  10.981  17.274  14.180 -0.2586 -0.0463 -0.0932
 6085W        W19499   8.213  17.809  15.981  0.1765  0.1036  0.1143
 6086W        W19500  15.713  17.038  12.538  0.1633 -0.0704 -0.1886
 6087W        W19501   9.816   0.840  16.018  0.2185  0.3941 -0.2940
 6088W        W19502  14.206   7.715   6.295  0.2404 -0.1019 -0.0640
 6089W        W19503   3.756  11.001  13.657 -0.1285 -0.2786  0.1615
 6090W        W19504   1.519   6.690  12.311 -0.0557  0.3423 -0.3203
 6091W        W19505   1.082   4.336  12.767 -0.0006 -0.1938 -0.0606
 6092W        W19506   7.589   7.110  15.762 -0.0393 -0.2931 -0.3260
 6093W        W19507  13.381  10.835   5.931  0.5246  0.0253 -0.0782
 6094W        W19508  10.299   5.117   2.964 -0.3296 -0.0755 -0.1917
 6095W        W19509   9.919  15.916   4.799  0.1181 -0.0372  0.0867
 6096W        W19510   7.554   1.564  15.180  0.1936  0.2702 -0.1964
 6097W        W19511   9.717  11.929   1.302 -0.2500 -0.1416 -0.1474
 6098W        W19512  10.365   1.422  11.946 -0.1793  0.0862  0.1105
 6099W        W19513   2.657  10.188   3.641  0.0008  0.1722  0.3331
 6100W        W19514  16.766  17.970   4.678 -0.1830  0.1224 -0.0644
 6101W        W19515  11.342  14.563  15.429 -0.0536 -0.1789 -0.1717
 6102W        W19516   6.674   3.613   0.408 -0.2562  0.1134 -0.2298
 6103W        W19517  17.485  12.990   0.561 -0.1248 -0.2137 -0.3092
 6104W        W19518  13.723   3.138  15.911  0.0759  0.0902 -0.0794
 6105W        W19519  14.375   5.376   6.602  0.0899 -0.1837 -0.0922
 6106W        W19520  17.005  12.134  13.353 -0.2456  0.1332  0.0779
 6107W        W19521  13.878  17.981   1.406  0.0178  0.0815  0.2126
 6108W        W19522  17.669   3.784   5.612  0.1989 -0.1412  0.1537
 6109W        W19523   2.969   7.060  15.896  0.1745  0.3123 -0.0511
 6110W        W19524  17.773   0.064  14.716  0.0993  0.3776  0.4293
 6111W        W19525   3.254  14.352   5.387 -0.1940 -0.1654 -0.0137
 6112W        W19526   6.101   7.194  12.998  0.0105 -0.0457  0.2498
 6113W        W19527   4.909  13.752   6.178 -0.1302  0.0633  0.0678
 6114W        W19528   5.456   8.607   3.627 -0.0922  0.0043  0.2375
 6115W        W19529   5.784   6.963   4.624 -0.1187  0.3054 -0.2591
 6116W        W19530   0.512   8.860   2.082 -0.2164  0.0079  0.1256
 6117W        W19531  11.366   2.919  13.735  0.2490 -0.0818  0.1805
 6118W        W19532   6.838  12.799   3.281 -0.2366 -0.1976 -0.0918
 6119W        W19533  17.489  16.318   1.103  0.0183 -0.1587 -0.1433
 6120W        W19534   3.309   4.264  15.066  0.0883 -0.1004 -0.0842
 6121W        W19535   5.079   8.291   3.613 -0.0256  0.0464  0.4289
 6122W        W19536  16.516  14.226   2.992 -0.1132  0.3048  0.2176
 6123W        W19537   1.853   1.044   3.634  0.0094 -0.1280  0.2039
 6124W        W19538   6.791  15.793  12.492  0.1488  0.3102 -0.0060
 6125W        W19539   2.008   6.413   0.241  0.0273  0.0318  0.0160
 6126W        W19540   3.901   2.720   4.955  0.0456  0.0320  0.2542
 6127W        W19541  16.140   4.700  13.361  0.0312 -0.0331  0.0730
 6128W        W19542   2.316  13.672   3.144  0.2168 -0.2661 -0.0027
 6129W        W19543   7.865   4.285   2.743 -0.0774 -0.1128 -0.0070
 6130W        W19544  14.497  15.435  11.228  0.2341  0.2481  0.2535
 6131W        W19545   5.968   9.409   2.051  0.0680 -0.0410 -0.0558
 6132W        W19546   8.006   1.773   4.614  0.0050  0.0591  0.1386
 6133W        W19547  13.245   5.273   3.563  0.0138  0.0711 -0.0043
 6134W        W19548  13.200  11.940  13.579  0.0469  0.0769  0.0279
 6135W        W19549  16.392  13.317   0.171  0.0400 -0.1493  0.0374
 6136W        W19550   0.110  18.121  13.992  0.0191 -0.1081  0.2750
 6137W        W19551   8.587  10.493  14.962  0.1232 -0.2491 -0.0667
 6138W        W19552   8.876  15.892  12.432  0.0666 -0.1486  0.4397
 6139W        W19553  11.397  12.647   4.634 -0.0392 -0.0183  0.2412
 6140W        W19554  11.929   3.427   1.543 -0.2155 -0.2207  0.1383
 6141W        W19555  11.402  11.443   5.037 -0.0817  0.3609  0.0303
 6142W        W19556   7.127  14.831  10.687  0.0103 -0.0599  0.0098
 6143W        W19557  14.182  14.705  12.182 -0.1181  0.1519 -0.1234
 6144W        W19558   1.549  13.886   4.783 -0.0700  0.1886 -0.0859
 6145W        W19559   8.136  13.983  11.145  0.0708 -0.2055  0.1011
 6146W        W19560   3.716  11.220  12.011  0.2556  0.0655 -0.1776
 6147W        W19561   2.880   9.677   5.888 -0.0699  0.3230 -0.0750
 6148W        W19562   5.419  15.951  10.855 -0.0776 -0.0624  0.1687
 6149W        W19563   6.562   4.195   1.308  0.0425 -0.1143 -0.2362
 6150W        W19564  17.228   8.764  11.377 -0.0066  0.0818  0.0974
 6151W        W19565  13.502   7.342   6.879  0.2017  0.0141 -0.0723
 6152W        W19566  13.637  15.414   0.622 -0.1727 -0.2251 -0.1849
 6153W        W19567   6.500   7.036   5.956  0.4091 -0.0319  0.2076
 6154W        W19568   2.483  10.961   5.360  0.2273  0.0014  0.1555
 6155W        W19569   5.203   3.973  14.060  0.2393  0.1575 -0.2055
 6156W        W19570   5.187  15.852   2.380  0.0071  0.2173  0.3959
 6157W        W19571  10.431   8.180   3.567  0.3554 -0.1315  0.0499
 6158W        W19572   2.823  16.961   1.690  0.0586  0.1958  0.0789
 6159W        W19573   5.809  15.478  12.406 -0.0587  0.2133 -0.1218
 6160W        W19574   7.541   6.454  14.996  0.0682 -0.0563 -0.0629
 6161W        W19575   2.716   5.697   1.297  0.1553 -0.0523 -0.2771
 6162W        W19576  17.356  15.419  15.224  0.0626 -0.1425  0.0013
 6163W        W19577  12.649  16.139  11.387  0.1269 -0.0939  0.1451
 6164W        W19578   9.640   8.035   4.021  0.2638  0.2334 -0.1681
 6165W        W19579   6.838   3.212  14.430 -0.0630 -0.1415 -0.3030
 6166W        W19580   4.956   9.072  15.119 -0.0031 -0.0352 -0.4061
 6167W        W19581  16.590  13.144  13.291 -0.0707  0.2949 -0.1125
 6168W        W19582   2.911  11.876   2.090 -0.2471 -0.1089  0.0534
 6169W        W19583  15.767  17.366   4.986  0.0128 -0.2140  0.2438
 6170W        W19584   1.156   7.665  15.805  0.0187 -0.2698  0.1574
 6171W        W19585  12.817  10.819  13.281 -0.0790  0.1173 -0.2673
 6172W        W19586  14.470  15.275  14.989 -0.2013  0.2284  0.0098
 6173W        W19587   8.644   2.732  13.136 -0.0451  0.1076 -0.2049
 6174W        W19588   9.928  15.036  11.358 -0.1524 -0.0958 -0.2066
 6175W        W19589   1.725   7.677  16.419  0.0020 -0.1476 -0.1235
 6176W        W19590  18.080  16.617   2.233  0.3726 -0.1761 -0.1867
 6177W        W19591  11.436  17.741  12.945  0.4192 -0.0217 -0.3487
 6178W        W19592   6.546   4.763   5.055  0.3254 -0.0181 -0.0936
 6179W        W19593   4.692  17.651  11.620  0.3891  0.2756  0.0678
 6180W        W19594  11.945   8.354  13.955  0.1980 -0.4044  0.4061
 6181W        W19595  15.982   2.436  14.331  0.0502  0.2348  0.0338
 6182W        W19596  10.158   0.332   2.534 -0.1475  0.0753 -0.1654
 6183W        W19597   5.013   8.246   6.034  0.1568  0.2834 -0.2647
 6184W        W19598   6.461  13.959   2.671 -0.0667  0.0574  0.0876
 6185W        W19599   4.088   9.798  13.785 -0.1857  0.1037  0.1098
 6186W        W19600   0.064   2.003   4.053 -0.2672 -0.2457 -0.0711
 6187W        W19601  12.079   5.516  14.612 -0.1108 -0.2277 -0.1443
 6188W        W19602   4.799   1.862   5.852 -0.2701 -0.0104  0.0889
 6189W        W19603   6.660   3.140  10.505 -0.2997 -0.3106 -0.3590
 6190W        W19604  16.265  10.730  14.465  0.1944 -0.1145 -0.2585
 6191W        W19605  10.191   2.885   4.019  0.0771  0.1018  0.0371
 6192W        W19606  15.972  17.596   9.883  0.1717 -0.0227 -0.0735
 6193W        W19607   4.343   0.250   3.439  0.1169  0.1292 -0.0064
 6194W        W19608  14.334   7.380  12.263 -0.1432  0.2669  0.2834
 6195W        W19609  12.009   3.933  11.857  0.0356  0.0791  0.0899
 6196W        W19610   3.848  14.961   1.036 -0.1593 -0.0592 -0.0304
 6197W        W19611  16.568   4.423  15.685 -0.1202 -0.2529  0.1187
 6198W        W19612   5.942  18.115  11.650 -0.3502  0.0741 -0.4087
 6199W        W19613  17.643  12.290  14.795 -0.1276  0.2437 -0.1817
 6200W        W19614  10.695   5.329  11.733  0.0078  0.3973  0.1495
 6201W        W19615  15.392   0.970  13.010 -0.2168 -0.0022 -0.0628
 6202W        W19616  14.083   9.520  16.160 -0.1249 -0.0683  0.0055
 6203W        W19617  13.594   1.375   5.409 -0.0725  0.2608  0.0123
 6204W        W19618  16.032   4.554   5.271 -0.1538 -0.0283  0.0231
 6205W        W19619  15.849   9.160  12.124  0.0234  0.0155 -0.0411
 6206W        W19620   3.200   1.460  11.202 -0.1904  0.0893  0.1264
 6207W        W19621  17.500   5.543  11.130 -0.1596  0.0139  0.0459
 6208W        W19622   6.530   4.485  10.788  0.0751  0.2445 -0.0210
 6209W        W19623   1.341  14.933  12.494 -0.0777 -0.0009 -0.0567
 6210W        W19624   1.168   7.133   2.533 -0.4425 -0.3109 -0.0772
 6211W        W19625   7.123   4.153  14.311  0.0064 -0.2984 -0.0957
 6212W        W19626  11.818   4.553   1.424  0.2245  0.0305 -0.2217
 6213W        W19627  12.621  17.801  14.282 -0.3971  0.1432 -0.1171
 6214W        W19628  11.647   4.740  13.471 -0.1349  0.0483 -0.1131
 6215W        W19629   5.425   9.272  15.219  0.1337  0.1317  0.2369
 6216W        W19630   0.392   8.075  16.015 -0.1300 -0.1669  0.3178
 6217W        W19631  14.170  14.910  11.235 -0.3549  0.0494 -0.2881
 6218W        W19632  15.263   6.177   5.037  0.1410 -0.1671 -0.4192
 6219W        W19633  18.154   8.142  13.292 -0.0269 -0.1360 -0.2104
 6220W        W19634  14.046   5.579   2.846 -0.1037 -0.0277 -0.4425
 6221W        W19635  17.711  11.713  11.678 -0.0092  0.0451 -0.1645
 6222W        W19636  17.510   9.668  11.384 -0.0243  0.4876 -0.0061
 6223W        W19637   5.390  12.648   4.932 -0.2796  0.2009  0.2084
 6224W        W19638  11.958   6.558  11.785 -0.2249  0.5680  0.0174
 6225W        W19639  13.514  12.912  13.410  0.3651 -0.1287  0.3648
 6226W        W19640  15.294  15.448  15.213 -0.2483 -0.2947  0.1525
 6227W        W19641   7.714   3.514  11.331 -0.0985 -0.1435  0.1181
 6228W        W19642   4.028   2.899   0.231 -0.1571  0.0428 -0.0142
 6229W        W19643   7.247  10.249   2.662  0.1208 -0.0540 -0.0367
 6230W        W19644   7.038  15.329   0.818  0.0746 -0.0018  0.0196
 6231W        W19645   2.799  12.435  12.139  0.0974 -0.1040  0.1901
 6232W        W19646   7.712   2.170  12.047  0.0851 -0.1705  0.0278
 6233W        W19647   4.977  16.373   3.746 -0.2094  0.3087 -0.0756
 6234W        W19648  15.007   7.831   0.039  0.4332 -0.2270  0.0486
 6235W        W19649   8.119  11.675   4.605  0.2260 -0.1594 -0.2295
 6236W        W19650   4.743   6.414   0.679 -0.0419 -0.1791  0.0407
 6237W        W19651   0.056  10.102   4.216  0.0134 -0.0671  0.0727
 6238W        W19652   2.094   2.787   0.548 -0.0394 -0.2039  0.2398
 6239W        W19653   5.889  10.618   0.387  0.0311 -0.2844  0.4502
 6240W        W19654  10.878   3.949   3.626 -0.2628 -0.3376  0.0287
 6241W        W19655  12.102  16.863   3.237  0.1861  0.0404 -0.2295
 6242W        W19656  12.441  16.691   1.278 -0.2734  0.0311 -0.0847
 6243W        W19657  15.931  16.349   5.554 -0.2494 -0.1563  0.1160
 6244W        W19658  13.605  14.570   5.166  0.0808 -0.3947 -0.0847
 6245W        W19659  10.649   2.427   4.854 -0.2586  0.4940  0.1412
 6246W        W19660  10.098   2.144   5.083  0.3570 -0.2159 -0.1545
 6247W        W19661  16.077   6.793   1.796 -0.1638  0.0913 -0.1420
 6248W        W19662  16.593  13.731   4.973 -0.0368  0.2504 -0.0732
 6249W        W19663  14.616   3.234  16.043  0.3196  0.2243 -0.2161
 6250W        W19664   7.923   7.963   5.335  0.0028  0.1016 -0.0650
 6251W        W19665  12.320   4.344   5.497 -0.2278  0.0122  0.0120
 6252W        W19666  13.765  14.762   0.260 -0.2862  0.2845  0.1058
 6253W        W19667   5.649   1.332   0.990  0.1186  0.0648 -0.0942
 6254W        W19668  16.533  17.345  10.647 -0.1785 -0.0896  0.0733
 6255W        W19669   2.905  13.369  13.211 -0.0110  0.0227  0.0630
 6256W        W19670   0.509   0.080   3.391 -0.0011  0.1554  0.2861
 6257W        W19671   7.280   2.092   4.126  0.0114 -0.2002 -0.0118
 6258W        W19672   1.068   2.577  12.938 -0.1952 -0.0084  0.3992
 6259W        W19673   3.031   7.511  14.280  0.3295  0.0712  0.1633
 6260W        W19674   1.399  10.164   3.327 -0.0910  0.0181  0.0199
 6261W        W19675  11.550   9.436   3.451 -0.0000  0.3007 -0.0174
 6262W        W19676   4.733  14.332  11.559  0.0019  0.1705 -0.1375
 6263W        W19677  16.155   8.643  10.788  0.1461  0.0946 -0.0143
 6264W        W19678  17.821   2.416   1.320  0.0256  0.0555  0.1094
 6265W        W19679   2.171   9.280  15.428 -0.3780 -0.0041  0.1532
 6266W        W19680   5.162  11.850  15.803 -0.2017 -0.3881 -0.1703
 6267W        W19681   3.462   7.136   6.659  0.4058  0.1501 -0.0978
 6268W        W19682   7.953   7.768   2.920  0.1092  0.1286  0.0384
 6269W        W19683  14.498  14.910   2.960 -0.2037  0.1294  0.1910
 6270W        W19684  14.997  13.405   4.104  0.0553 -0.0684  0.0730
 6271W        W19685   9.157   7.481  12.421 -0.1352  0.0353 -0.0028
 6272W        W19686   5.995  13.679   5.213  0.3703 -0.0576  0.1697
 6273W        W19687  10.854   6.497  15.590 -0.1657 -0.2234  0.1893
 6274W        W19688   7.778  15.009   3.805  0.2845 -0.2461  0.0727
 6275W        W19689   4.562   2.559  14.263  0.0183 -0.0119 -0.2207
 6276W        W19690  12.291   7.158  14.834  0.0919  0.1657 -0.1491
 6277W        W19691   4.838  10.646   5.805 -0.1200  0.0044  0.1182
 6278W        W19692   3.805  17.332   4.000  0.2822  0.1044  0.2054
 6279W        W19693  14.225  15.171  16.037 -0.3289  0.0186 -0.0016
 6280W        W19694   0.521  12.909  16.505 -0.1172  0.0757 -0.0837
 6281W        W19695  13.928   2.804   1.461 -0.0919  0.0664  0.1561
 6282W        W19696   3.441   8.508  11.200  0.0402  0.1795  0.1556
 6283W        W19697  16.460   4.241   5.947 -0.1252 -0.0929  0.0480
 6284W        W19698   3.778   2.103  11.623 -0.1085 -0.0858 -0.1194
 6285W        W19699  12.276   9.853  14.799  0.3064 -0.2088 -0.0637
 6286W        W19700   1.036   9.629  13.980  0.0355  0.1343  0.2008
 6287W        W19701  16.235  10.327  16.338  0.1616 -0.0749  0.0195
 6288W        W19702   2.285  14.356  10.755 -0.0888  0.1974 -0.2312
 6289W        W19703  16.802   8.552   5.205  0.2199 -0.0691  0.3546
 6290W        W19704   7.484   5.961   5.853  0.0676 -0.0196  0.1128
 6291W        W19705  10.566   4.881  14.682  0.1461  0.1739 -0.3176
 6292W        W19706  12.941   7.757  15.003  0.0154  0.1583 -0.0260
 6293W        W19707   6.087   5.743  10.622  0.0010 -0.0991  0.2534
 6294W        W19708  13.078   1.349   3.732 -0.0175  0.1456  0.1127
 6295W        W19709   1.654   3.929  15.945  0.0348  0.1100  0.0800
 6296W        W19710   7.107  14.232  13.955  0.1724  0.1701 -0.0431
 6297W        W19711   1.993   6.097  13.631 -0.0757 -0.0491 -0.0920
 6298W        W19712   5.544   8.693   2.270  0.0268 -0.2145 -0.0560
 6299W        W19713   5.441   2.145   2.605 -0.2725 -0.1429 -0.2187
 6300W        W19714   1.193  17.667   5.287 -0.0294 -0.0439  0.0702
 6301W        W19715   9.720   2.710   3.768  0.3634 -0.0195 -0.3582
 6302W        W19716  14.929  17.149  12.771 -0.2936 -0.0996  0.0205
 6303W        W19717   9.372  17.120   8.856 -0.0611 -0.0359  0.2748
 6304W        W19718  15.365  13.119   0.234  0.3357  0.0935  0.0419
 6305W        W19719   1.274  15.889   1.321  0.2388  0.3279 -0.0787
 6306W        W19720  15.843  17.528   5.537 -0.0092  0.0298  0.5838
 6307W        W19721   6.695  16.625  16.020 -0.3803  0.0574 -0.0327
 6308W        W19722  16.103   3.848  13.657  0.0276  0.0232  0.1335
 6309W        W19723   2.418  12.574   1.489 -0.0259  0.0732 -0.1843
 6310W        W19724   1.455   6.224   4.467  0.1921 -0.1301 -0.1107
 6311W        W19725   9.138   5.452  10.990  0.0316  0.0652 -0.0484
 6312W        W19726  10.235  13.605  12.867 -0.0294  0.1078 -0.0154
 6313W        W19727  15.010   8.972  15.141  0.2131 -0.0693 -0.3081
 6314W        W19728  14.198  15.389   3.595 -0.2393  0.4284  0.0710
 6315W        W19729  10.123   7.797  15.142  0.0400 -0.2323 -0.1059
 6316W        W19730  13.426  14.316  14.066 -0.3633  0.0204 -0.0964
 6317W        W19731   2.592   2.348  14.866 -0.1713 -0.1532 -0.1858
 6318W        W19732  15.601  16.859  14.994 -0.1602 -0.3219 -0.1034
 6319W        W19733   8.482   7.884  12.255  0.1220 -0.1869 -0.2208
 6320W        W19734   7.491   0.962  14.448 -0.0651 -0.0730 -0.2915
 6321W        W19735   1.150  14.722   1.241  0.4538  0.0096 -0.0360
 6322W        W19736   7.477  10.592   1.745 -0.1926 -0.0203 -0.3212
 6323W        W19737  14.694   5.403   0.264 -0.0012  0.2702  0.1886
 6324W        W19738  15.175  15.834  15.927 -0.1077  0.2403  0.0068
 6325W        W19739   0.042   6.873  16.061  0.0088  0.0552 -0.0817
 6326W        W19740  10.070   3.356   3.676 -0.0604 -0.3044  0.0714
 6327W        W19741   0.344  14.205  16.180  0.1779 -0.0773  0.1188
 6328W        W19742   9.356   8.072  13.954  0.0288  0.2176  0.0262
 6329W        W19743   3.232   4.626  12.727 -0.0045  0.1994 -0.1522
 6330W        W19744   6.003  12.825   0.281  0.0823 -0.0142  0.0420
 6331W        W19745   5.316  16.820  12.620  0.0123  0.1983 -0.4781
 6332W        W19746   2.507  11.452   4.320  0.2920  0.0411  0.0389
 6333W        W19747  14.853  12.526  16.400  0.1827  0.2479 -0.0319
 6334W        W19748   8.912  15.063  12.750 -0.0310  0.1137 -0.3562
 6335W        W19749  16.801  15.390   2.309 -0.1069  0.0921 -0.0473
 6336W        W19750  11.047   5.765  11.122 -0.1720  0.2299  0.1947
 6337W        W19751  10.601   7.882   0.511  0.1168 -0.3248 -0.3246
 6338W        W19752   8.491  13.619  12.133  0.0432  0.0756  0.1627
 6339W        W19753   9.405   6.848  15.047 -0.1856 -0.3121  0.4435
 6340W        W19754  13.491   8.340   1.247  0.0772  0.2372 -0.1962
 6341W        W19755  10.885   3.225  11.605 -0.2718  0.1061 -0.0626
 6342W        W19756   8.232   4.421  13.702 -0.0693 -0.1923  0.3058
 6343W        W19757   9.757   6.296  13.890  0.0354 -0.1344 -0.0323
 6344W        W19758   2.656  11.970  11.897 -0.0468  0.3096 -0.0007
 6345W        W19759   5.082  13.660   1.325 -0.2292 -0.1203 -0.0189
 6346W        W19760   3.826  15.983  16.384 -0.0431  0.3112  0.1184
 6347W        W19761  14.483   7.491  13.555  0.5590  0.0240  0.1038
 6348W        W19762  11.678   7.524  11.453  0.1165  0.5038  0.0005
 6349W        W19763  12.756   8.121   0.800  0.2934 -0.0745  0.1832
 6350W        W19764  17.127  15.869  12.520  0.0932  0.1159 -0.0256
 6351W        W19765  12.378  16.788  12.170 -0.3057 -0.3421  0.0479
 6352W        W19766   2.860  10.328  10.080  0.0273 -0.0243 -0.0997
 6353W        W19767  13.148  16.002   2.996  0.0672 -0.0862 -0.0064
 6354W        W19768  15.762  17.544   3.959  0.0581  0.1267 -0.1309
 6355W        W19769  11.758  14.115   2.898  0.1271  0.1757 -0.1928
 6356W        W19770   0.983  17.019  16.451  0.0458  0.1825 -0.0207
 6357W        W19771   3.050  13.205  15.718  0.2025 -0.0382 -0.3378
 6358W        W19772  14.175   9.971  15.835 -0.2494  0.1708  0.3792
 6359W        W19773  12.342   2.917  11.255 -0.0115 -0.2146 -0.1480
 6360W        W19774  18.197   0.226  12.490  0.0185  0.1369 -0.3700
 6361W        W19775  17.553  10.618   3.930  0.3873 -0.0772  0.2730
 6362W        W19776  16.430  16.645  10.102  0.1672  0.2069 -0.1406
 6363W        W19777   1.042   0.158   3.327  0.1156 -0.0770 -0.1015
 6364W        W19778   6.621   3.705   2.810 -0.2319 -0.1461 -0.1169
 6365W        W19779  10.404   6.075  13.922  0.1266  0.1652 -0.0250
 6366W        W19780  11.371  16.465   0.588 -0.0885 -0.1236  0.0141
 6367W        W19781  13.337   4.797   3.800 -0.0728 -0.1078 -0.0566
 6368W        W19782   4.886  15.093   0.636 -0.0716  0.1939  0.3136
 6369W        W19783  13.980  15.771   1.908  0.2553 -0.0063  0.0499
 6370W        W19784   3.003   2.128  15.685 -0.2721 -0.0009  0.2498
 6371W        W19785   1.034   3.951  15.884 -0.0438 -0.2360 -0.1583
 6372W        W19786  10.943  11.552   0.711  0.4489  0.2855 -0.1499
 6373W        W19787  12.930  16.709   3.535 -0.0883 -0.2437  0.1882
 6374W        W19788  17.412   6.211  11.892  0.0387  0.1368 -0.2002
 6375W        W19789  11.725   2.383   2.406 -0.1677 -0.1755  0.0127
 6376W        W19790   1.585   1.679   4.754 -0.0098  0.0455  0.2046
 6377W        W19791   5.620   4.314  15.009 -0.0367  0.0272 -0.1915
 6378W        W19792  10.821   8.092  14.735  0.3325  0.3250  0.1774
 6379W        W19793   8.392   7.627   3.462  0.3320 -0.0444  0.1769
 6380W        W19794   4.040   9.880  11.648  0.0695  0.1074 -0.1527
 6381W        W19795  16.791   5.852  14.041  0.0656  0.0425  0.3539
 6382W        W19796   8.046  12.456  14.181  0.1553  0.1341 -0.0303
 6383W        W19797   9.667  13.821   1.172  0.1084 -0.0543  0.0974
 6384W        W19798  12.182   2.969   4.075  0.3257  0.4314 -0.0652
 6385W        W19799   7.668   3.992  10.982  0.0799  0.0481 -0.0498
 6386W        W19800   5.559  15.031   3.889 -0.1100 -0.1293 -0.1304
 6387W        W19801  17.462   0.446   6.235  0.2406  0.1769  0.1032
 6388W        W19802  13.749  13.183  14.499 -0.0509 -0.1696 -0.0334
 6389W        W19803   5.361   1.272  12.159 -0.3695 -0.0180 -0.0063
 6390W        W19804  13.860   4.165  11.202 -0.0876 -0.3641  0.0280
 6391W        W19805   5.548   1.225  12.650  0.1147 -0.3184  0.1359
 6392W        W19806   2.907   0.944   0.550 -0.1600  0.1552 -0.3544
 6393W        W19807   9.907  12.819   3.570  0.0956  0.2871  0.0722
 6394W        W19808  12.900  13.534  13.477  0.1813 -0.3419  0.2669
 6395W        W19809  17.363  13.150   5.453 -0.0684  0.1574  0.2010
 6396W        W19810  11.429  15.515   0.529 -0.0317 -0.1073 -0.0593
 6397W        W19811   8.447  17.980  10.512 -0.0799  0.0518  0.4593
 6398W        W19812  15.232   5.894  11.990 -0.0420 -0.3260 -0.2171
 6399W        W19813   0.506  16.833   6.039  0.2248 -0.0082 -0.1039
 6400W        W19814  17.551  10.215   4.834 -0.1294 -0.0883 -0.2255
 6401W        W19815  10.360  10.932   4.025  0.1345 -0.0196 -0.0689
 6402W        W19816  15.348   1.593  15.594 -0.0084 -0.2339  0.2960
 6403W        W19817   7.872   6.057  15.766  0.0621  0.1079  0.0965
 6404W        W19818  16.190   3.465   3.035 -0.0772  0.2164 -0.0860
 6405W        W19819   3.988  10.241  12.377  0.1333  0.0192 -0.0616
 6406W        W19820  11.160  16.695   1.240  0.0218  0.2511  0.0423
 6407W        W19821   9.656   1.389  15.999  0.3705 -0.0649 -0.1174
 6408W        W19822  16.711  16.213   1.737 -0.2367 -0.0703 -0.0217
 6409W        W19823  11.593   1.051  16.315  0.1502 -0.0328  0.1574
 6410W        W19824   1.981  13.645   6.196 -0.1889  0.1050 -0.0599
 6411W        W19825   0.463   6.043  15.837  0.2656  0.1483  0.1745
 6412W        W19826  10.684   5.773  14.801  0.3354 -0.1849 -0.2444
 6413W        W19827   5.714  15.680   4.604 -0.1177 -0.0683 -0.1481
 6414W        W19828   4.318  12.463   0.370  0.1180  0.2147 -0.2718
 6415W        W19829  17.101   5.392   3.362 -0.1739  0.1233 -0.1216
 6416W        W19830  17.356  15.980   5.318  0.0863  0.0701  0.1322
 6417W        W19831   6.734   3.402  16.459  0.0151 -0.2628  0.0884
 6418W        W19832   4.038   5.086   2.261 -0.3712 -0.2359 -0.0411
 6419W        W19833  12.320   8.214   3.028  0.1507 -0.2782 -0.2714
 6420W        W19834   2.244   6.219   6.288 -0.3009 -0.1499  0.2132
 6421W        W19835  11.206  10.577  15.612 -0.2796 -0.1982  0.0123
 6422W        W19836  16.046  10.472   3.784  0.1452  0.0998 -0.0184
 6423W        W19837   9.500  16.528  10.517  0.0693  0.1605  0.0953
 6424W        W19838  15.493  10.120  11.268 -0.1493  0.2309 -0.1276
 6425W        W19839   6.455   3.616  14.391 -0.1073  0.1450 -0.2536
 6426W        W19840   5.373  10.199  10.805 -0.0362 -0.0987 -0.1424
 6427W        W19841   2.548  18.224  15.331  0.3618 -0.0303 -0.0413
 6428W        W19842   2.478  16.071  12.218  0.0915  0.0883 -0.2135
 6429W        W19843   5.699   1.409  13.255 -0.1287  0.2163  0.1414
 6430W        W19844  11.720  13.543   2.838 -0.2185  0.0841  0.1462
 6431W        W19845  13.966   6.751  14.068  0.3453 -0.5112 -0.2667
 6432W        W19846   3.246   4.051  12.675  0.0872 -0.0406 -0.0688
 6433W        W19847   7.665   9.625  13.449 -0.2663 -0.4093 -0.4634
 6434W        W19848  10.345   2.185  14.680  0.2064 -0.2970  0.1777
 6435W        W19849   4.825   2.826  15.683 -0.1110  0.0360  0.2279
 6436W        W19850   9.639   8.040   2.555  0.0981 -0.0985 -0.2256
 6437W        W19851  11.609  15.408  11.679  0.3184  0.4220 -0.0493
 6438W        W19852   6.015   0.655   4.786 -0.1342  0.1951 -0.3026
 6439W        W19853   5.454  11.340   5.031 -0.1482 -0.2444 -0.2903
 6440W        W19854  16.890   9.614   5.203  0.2407 -0.1202 -0.3116
 6441W        W19855  17.967   5.597   3.830 -0.3491  0.2000  0.0343
 6442W        W19856  11.341   7.784  15.561 -0.0277  0.2207  0.0063
 6443W        W19857   3.609  15.900   0.864  0.0910 -0.2664 -0.1133
 6444W        W19858   6.938   6.825   1.863  0.3075  0.0497 -0.0783
 6445W        W19859  10.642   1.069  13.144  0.1507  0.1479  0.0349
 6446W        W19860   1.091   6.266   3.580  0.1169  0.0272  0.2726
 6447W        W19861   4.995  15.102  16.380 -0.0118  0.2269 -0.4638
 6448W        W19862   1.749  12.041  14.033 -0.0289 -0.0936  0.1168
 6449W        W19863  12.326   3.745   1.401  0.1464  0.2515 -0.1555
 6450W        W19864   0.469   3.754   1.573  0.0282  0.1753  0.1815
 6451W        W19865   4.860   0.073   2.710 -0.1851 -0.3761 -0.0823
 6452W        W19866   8.297   9.461  12.526 -0.0438  0.2340 -0.1763
 6453W        W19867   8.680  13.466  13.428  0.1862  0.1046  0.0704
 6454W        W19868  17.711  10.202   5.543  0.0525  0.0897 -0.2473
 6455W        W19869   8.294   9.609   0.608 -0.1163 -0.0736 -0.1945
 6456W        W19870   8.103  17.705  11.869 -0.0560 -0.0167  0.1299
 6457W        W19871  15.805  14.492  14.999 -0.0728  0.1256  0.0874
 6458W        W19872   9.623   5.218   3.706 -0.1007 -0.2318  0.0106
 6459W        W19873   0.437   6.587   1.981 -0.1622 -0.1470 -0.0010
 6460W        W19874   6.433   0.179   4.176 -0.1097 -0.2174 -0.0533
 6461W        W19875   4.266  11.610  15.377 -0.0906 -0.2700 -0.2010
 6462W        W19876  15.218   2.515   2.727 -0.1190 -0.3762 -0.1758
 6463W        W19877  10.494  14.420  10.541  0.1675  0.0130 -0.2002
 6464W        W19878  17.188  14.388   6.292  0.1759 -0.0233 -0.1620
 6465W        W19879  17.454   8.262  15.739  0.0309 -0.3611  0.1255
 6466W        W19880   8.843   7.855  15.821  0.0439  0.3844  0.1228
 6467W        W19881  13.217   2.413   2.918 -0.2677 -0.1549 -0.0981
 6468W        W19882   5.250   0.307  12.428 -0.0215 -0.0341 -0.0235
 6469W        W19883  13.903  10.908  13.317  0.2791 -0.2131  0.1269
 6470W        W19884  10.381  16.244  15.977  0.4189  0.1246  0.0710
 6471W        W19885   1.920   8.060  12.001 -0.1129  0.2136 -0.0059
 6472W        W19886   9.731  17.427   3.649 -0.1293 -0.1013  0.1519
 6473W        W19887   7.116   7.374  14.919 -0.0889  0.0517 -0.0397
 6474W        W19888   6.767   2.989  11.481 -0.3293 -0.0721 -0.1015
 6475W        W19889   2.734   6.558   2.054  0.2661  0.0048  0.0296
 6476W        W19890   3.221   0.486  14.680  0.2627 -0.0617  0.0433
 6477W        W19891   5.873  12.717   5.207  0.0217  0.0947 -0.0739
 6478W        W19892  17.577   2.598  11.068  0.1100  0.1201 -0.0386
 6479W        W19893  15.960   5.545   5.350 -0.3050  0.0712  0.1407
 6480W        W19894   5.393  15.438  12.847  0.0874  0.4849  0.2080
 6481W        W19895  10.827  15.422   1.687  0.1465  0.1500 -0.1126
 6482W        W19896  13.261  13.780   1.544  0.1200  0.0972  0.2758
 6483W        W19897   9.724   8.538  14.698 -0.1479  0.1151  0.0161
 6484W        W19898   8.688  14.641   4.011  0.0640 -0.1484  0.1947
 6485W        W19899   7.875  10.477   1.446 -0.0392 -0.1064  0.0264
 6486W        W19900   3.282   5.770  13.740 -0.0484 -0.2472  0.0149
 6487W        W19901  13.146  15.786   0.613 -0.1413 -0.1323 -0.0517
 6488W        W19902  14.621   4.431   0.595 -0.3573 -0.1712  0.1852
 6489W        W19903  15.884  10.133   2.882 -0.0720  0.1304  0.1214
 6490W        W19904   5.582   4.828   0.328 -0.2457  0.2462 -0.1063
 6491W        W19905  10.194   9.905   5.848 -0.0785 -0.1139 -0.0537
 6492W        W19906   8.892   8.507   4.050  0.2488  0.1155  0.1155
 6493W        W19907  12.728  17.160  11.240  0.1258  0.0032 -0.0745
 6494W        W19908  12.166  17.421   3.413  0.1729  0.0375 -0.1068
 6495W        W19909   9.595  11.590  13.845  0.0670 -0.3158 -0.0997
 6496W        W19910   9.342  13.567  14.713  0.0997 -0.0439 -0.1273
 6497W        W19911  14.418  16.827  10.186 -0.1051 -0.0770 -0.0790
 6498W        W19912  15.877  12.177   1.362  0.0768 -0.1960 -0.1555
 6499W        W19913  13.472   5.936   1.787  0.0925 -0.1053  0.1517
 6500W        W19914   8.511  14.850   0.807 -0.2348 -0.1873  0.0274
 6501W        W19915   4.741   2.506  15.302 -0.1134  0.1547 -0.2090
 6502W        W19916   3.263   1.896  11.437 -0.0436 -0.0557 -0.1977
 6503W        W19917   0.055   0.551  15.822  0.1909 -0.1079 -0.1782
 6504W        W19918   4.726   2.146   0.403  0.1628  0.0809  0.2262
 6505W        W19919  12.329   2.450   4.574 -0.0929  0.0950  0.1520
 6506W        W19920  12.970   6.108   1.003  0.3550 -0.1200 -0.1047
 6507W        W19921   6.954   6.890   4.472  0.0050  0.1615  0.0187
 6508W        W19922  17.350  10.192   3.693  0.2008 -0.0033 -0.2009
 6509W        W19923   2.074   3.037   2.816 -0.0967  0.0317  0.1115
 6510W        W19924  14.258  12.167   5.518  0.1195 -0.1119  0.0043
 6511W        W19925  15.905  15.715  15.861 -0.3907 -0.0900  0.0662
 6512W        W19926   4.348  12.989  15.233  0.1712  0.0200 -0.0256
 6513W        W19927   0.491  13.061  11.860 -0.0403 -0.0728  0.0996
 6514W        W19928   8.496  14.910  14.512  0.0386  0.1247 -0.0357
 6515W        W19929  18.179  17.563  13.238 -0.0765 -0.1274 -0.0971
 6516W        W19930  17.676   4.269  16.129  0.0858  0.0055 -0.2949
 6517W        W19931  12.595  14.510   0.610  0.1923  0.2467  0.0316
 6518W        W19932  15.648   4.013   9.741  0.0702 -0.0554 -0.1150
 6519W        W19933  11.870  16.058   4.213  0.2178 -0.0621 -0.1772
 6520W        W19934  12.618  10.971   0.708 -0.1313 -0.0042 -0.1550
 6521W        W19935  15.876  11.838   5.872  0.0681 -0.0447  0.0778
 6522W        W19936   8.351   6.425   2.461  0.1756  0.0097  0.4175
 6523W        W19937   4.249   3.258   6.415 -0.0895 -0.2095 -0.1110
 6524W        W19938  17.282   5.392   2.204 -0.2082  0.0407  0.0348
 6525W        W19939   1.085  10.023  14.302 -0.0755 -0.0521  0.0588
 6526W        W19940  10.323  15.070  13.300 -0.2959 -0.2096 -0.2111
 6527W        W19941   7.302   1.004  10.875 -0.0215 -0.0400  0.3743
 6528W        W19942   7.751   6.531   4.004  0.1770 -0.1673  0.0565
 6529W        W19943  12.045  12.183  11.317 -0.3204 -0.1382  0.1126
 6530W        W19944   9.305  14.965  15.779 -0.1718  0.0592 -0.2165
 6531W        W19945  17.974  17.989   5.851  0.1917  0.1410 -0.3817
 6532W        W19946  16.968   7.667   0.758 -0.0865  0.0089 -0.0537
 6533W        W19947  11.780   4.821   5.478  0.3771 -0.3467  0.0696
 6534W        W19948  16.836  10.042   5.460  0.0485 -0.0657 -0.0009
 6535W        W19949   4.537   6.649   2.551  0.2748 -0.0836 -0.1518
 6536W        W19950   2.863  12.988   1.895  0.0147 -0.4167  0.4668
 6537W        W19951  12.301   5.967   2.284  0.3386  0.2145 -0.0774
 6538W        W19952   6.626   9.819  11.664  0.0702 -0.0657  0.0518
 6539W        W19953  12.281  14.033  15.228  0.0131  0.0698 -0.2981
 6540W        W19954  17.379   7.926  13.419  0.2864 -0.4286 -0.0826
 6541W        W19955   0.589  11.583  14.324 -0.1977 -0.0521  0.1026
 6542W        W19956   1.037   7.756   4.457 -0.1866 -0.0330 -0.3684
 6543W        W19957   6.964  16.887   2.230  0.0319  0.1298  0.0224
 6544W        W19958   9.180  14.369  12.508 -0.2850  0.1268 -0.1184
 6545W        W19959  14.398  16.932  15.669  0.0584  0.2586 -0.0733
 6546W        W19960  12.271   2.009  12.744 -0.1185 -0.0335  0.1612
 6547W        W19961   9.246   1.374   3.226  0.1967  0.1167 -0.3115
 6548W        W19962   6.220  14.006   0.619  0.1919 -0.3552 -0.0351
 6549W        W19963   3.412  11.427  15.440  0.1369  0.1119  0.5123
 6550W        W19964  11.078  10.544  12.297 -0.0262  0.1648 -0.0649
 6551W        W19965   5.790   6.206  15.775 -0.0371  0.3117  0.1361
 6552W        W19966  10.356   0.851  10.092  0.0655  0.1712 -0.0535
 6553W        W19967   3.426  11.468   1.841  0.0379  0.2645 -0.1392
 6554W        W19968  16.146  17.015   1.257 -0.1344  0.0021 -0.2517
 6555W        W19969  15.363  18.195  10.070  0.0349  0.1457 -0.2629
 6556W        W19970   9.303   4.615  12.197 -0.0888  0.1206 -0.2319
 6557W        W19971   4.101  16.033  12.792 -0.0485 -0.0162 -0.2026
 6558W        W19972   7.038  11.427  13.474  0.0243  0.0171  0.1265
 6559W        W19973  15.830  16.747   3.512  0.1964 -0.2676 -0.0305
 6560W        W19974  11.519  17.062   1.416  0.1085  0.0465 -0.0013
 6561W        W19975   3.948   4.322  13.073  0.3153  0.1449 -0.0577
 6562W        W19976   0.292  15.604   1.636 -0.3530  0.0625  0.1388
 6563W        W19977   2.570  11.243   0.342 -0.0346 -0.1419 -0.2067
 6564W        W19978   6.672   0.018  12.288 -0.3150  0.2197  0.2804
 6565W        W19979  17.876   0.303   1.245  0.1375 -0.1338  0.1288
 6566W        W19980  16.373  16.531   4.805 -0.2969 -0.0607  0.0556
 6567W        W19981   6.514   1.865   1.820  0.1019 -0.2575  0.2198
 6568W        W19982  15.219  12.212   1.133 -0.2838  0.1934 -0.0044
 6569W        W19983   1.522  15.291   0.193 -0.3354  0.0120  0.0296
 6570W        W19984  17.004   7.915  10.859 -0.0961 -0.1829  0.1886
 6571W        W19985   3.995   8.932   6.277 -0.1250 -0.0366 -0.0889
 6572W        W19986  17.038  15.828   0.369 -0.0323 -0.1457 -0.0825
 6573W        W19987   6.391  16.727  12.246  0.0121 -0.1464 -0.0063
 6574W        W19988   6.826   0.230  14.184 -0.1528  0.3277 -0.0552
 6575W        W19989   5.167   0.371   1.629 -0.3468  0.0973 -0.0838
 6576W        W19990   9.730   7.420  12.230 -0.2289  0.0629  0.2902
 6577W        W19991   5.878   4.463  14.625  0.0218 -0.0078  0.2340
 6578W        W19992  11.280   6.056  11.890  0.1893 -0.0248 -0.3529
 6579W        W19993  14.926   0.426  16.394  0.0868 -0.0229  0.1533
 6580W        W19994  12.615   5.753   5.681 -0.3401 -0.2254 -0.3410
 6581W        W19995   4.528  13.250  14.498 -0.1162 -0.0730 -0.0611
 6582W        W19996  14.241   2.860   5.483 -0.0621 -0.2321  0.1348
 6583W        W19997  18.077  14.644  14.029  0.0771  0.0756 -0.1227
 6584W        W19998   5.169   5.481  14.684 -0.2090  0.3158  0.0592
 6585W        W19999   6.023  13.972  10.346 -0.2786 -0.1719 -0.0715
 6586W        W20000   1.800   1.503  12.749 -0.0820  0.1587 -0.0313
 6587W        W20001   4.174   7.608  11.001  0.0778  0.0889 -0.1808
 6588W        W20002   9.282   5.055   5.669 -0.0266  0.2883  0.1681
 6589W        W20003   5.244   4.318   4.668 -0.0180  0.0502  0.3433
 6590W        W20004   6.008  16.649  11.867 -0.3302 -0.1234 -0.2577
 6591W        W20005  16.281   1.936  14.089 -0.0555  0.1627 -0.1157
 6592W        W20006   7.839   2.520   2.180  0.1946 -0.0190 -0.2795
 6593W        W20007  15.788  11.496  15.876 -0.1576  0.1087 -0.1920
 6594W        W20008   6.220  17.901  11.200 -0.0187  0.2559 -0.0870
 6595W        W20009  14.790   2.981   4.703 -0.0580  0.1711 -0.2695
 6596W        W20010   3.685  10.823  16.299 -0.0013  0.2655  0.0315
 6597W        W20011   5.043  12.437   0.702  0.2385  0.1144  0.0554
 6598W        W20012  12.545   5.963   3.501  0.0348  0.0451  0.2267
 6599W        W20013   5.705   8.129   5.383 -0.2410 -0.2186  0.1257
 6600W        W20014   3.847   4.049  12.226 -0.3035  0.0357  0.1402
 6601W        W20015  18.086  11.781   3.068  0.1433 -0.0897  0.1525
 6602W        W20016   2.493  15.559  14.733  0.0447  0.1005 -0.0418
 6603W        W20017   8.477  10.658   4.632 -0.1411 -0.3202  0.2072
 6604W        W20018  14.018   7.674  13.789 -0.2441  0.1491  0.1659
 6605W        W20019   1.411  16.736  10.691 -0.1214  0.0471  0.1481
 6606W        W20020  18.187  14.693   4.799 -0.0312 -0.0074  0.1746
 6607W        W20021  14.753   9.614   5.825  0.0458 -0.2560  0.0018
 6608W        W20022   8.812  15.715  11.989 -0.0615  0.2376 -0.1977
 6609W        W20023  12.619  16.818   3.104 -0.3180  0.0466  0.0059
 6610W        W20024   7.465  18.077  16.128  0.1741  0.0653  0.1638
 6611W        W20025   1.188  14.782   0.780 -0.1879 -0.0259  0.1181
 6612W        W20026   9.735   5.621   5.349 -0.0025 -0.0747 -0.1486
 6613W        W20027   5.146   0.045   0.834 -0.0071 -0.1643  0.1475
 6614W        W20028   8.813  12.349  12.127 -0.1356 -0.1704  0.0475
 6615W        W20029   5.804   5.298   3.251  0.1194  0.1375  0.1372
 6616W        W20030   4.667   2.283  10.228  0.2194  0.0644 -0.0599
 6617W        W20031   2.726  13.184  11.225  0.0693 -0.4477 -0.0372
 6618W        W20032   6.024   1.024  13.347 -0.4045  0.0144  0.3148
 6619W        W20033   6.452  11.459   4.964  0.0407  0.0170  0.1225
 6620W        W20034   8.251   8.141   3.605  0.1928 -0.1071  0.0312
 6621W        W20035   6.088   6.401   0.622  0.1265 -0.0048 -0.3993
 6622W        W20036  14.268  14.849   1.915  0.0232  0.1462  0.3384
 6623W        W20037  13.168  12.043  15.954  0.1333 -0.0534 -0.1489
 6624W        W20038   1.162  11.442  15.063 -0.2825 -0.0146 -0.1407
 6625W        W20039  15.601   3.510  13.715  0.1783  0.0626 -0.1808
 6626W        W20040   8.013   3.822  14.937 -0.0293 -0.0051  0.1228
 6627W        W20041  15.273   5.887   2.420 -0.1457 -0.4098  0.2142
 6628W        W20042  13.743  12.685  13.788  0.1130  0.0033  0.1636
 6629W        W20043  15.274   9.872   0.213 -0.3973 -0.0665 -0.1863
 6630W        W20044  10.627  13.913   1.339  0.0459  0.0678  0.1544
 6631W        W20045  13.429  15.677   0.203  0.2189  0.2873 -0.1102
 6632W        W20046   3.591   3.559   6.690  0.2541  0.1491 -0.1216
 6633W        W20047   2.502  10.007   5.951 -0.1446 -0.0673  0.3380
 6634W        W20048   3.872  17.880  10.916 -0.2478 -0.0309 -0.2356
 6635W        W20049  11.663   5.652   0.175  0.1240  0.0947  0.0990
 6636W        W20050   4.656  13.683   4.619  0.0437 -0.1155  0.0205
 6637W        W20051   8.569  17.259  11.068  0.0978  0.1036  0.3063
 6638W        W20052  11.859   0.294  10.911  0.2627  0.0026 -0.0635
 6639W        W20053   0.819  12.809   2.461  0.4211  0.1207  0.5344
 6640W        W20054   1.445   7.036   3.984  0.1656  0.3449 -0.0415
 6641W        W20055  18.125   4.745   0.817  0.2242  0.1934 -0.3803
 6642W        W20056  13.169   5.843   2.763  0.0969  0.0428  0.2539
 6643W        W20057   0.766   7.436  15.602  0.0157  0.1417 -0.3659
 6644W        W20058   1.836  11.351  10.335  0.3143 -0.0779  0.1012
 6645W        W20059   3.230   4.559   1.497  0.0702 -0.2021  0.2467
 6646W        W20060   1.270   4.424  15.592 -0.1495 -0.3592  0.3675
 6647W        W20061   7.020   3.860   1.929 -0.0641  0.3444 -0.1793
 6648W        W20062   4.775   2.200   2.598 -0.0915  0.0770  0.2283
 6649W        W20063  10.844   2.617  16.247  0.1862 -0.1018  0.1403
 6650W        W20064   6.734   0.899  13.935  0.0622 -0.1432  0.2265
 6651W        W20065   6.389  11.464  12.702  0.2136  0.1467  0.2491
 6652W        W20066  11.984   2.939   4.572 -0.0815  0.0340  0.0057
 6653W        W20067   1.157  10.232  16.249  0.0781  0.2056 -0.1372
 6654W        W20068   7.529  18.166  11.577  0.1126  0.0812  0.0193
 6655W        W20069  11.213  13.996   0.620  0.3825  0.3077  0.1375
 6656W        W20070  15.235  12.378   5.193 -0.0038  0.2060  0.0795
 6657W        W20071   5.704   3.010   5.427  0.0980  0.0067  0.1481
 6658W        W20072  12.718  15.233   5.948 -0.1083 -0.0659  0.1293
 6659W        W20073   0.864   3.376  15.239  0.3614  0.0780  0.1522
 6660W        W20074   9.797  10.782   3.902 -0.2386  0.0060 -0.1319
 6661W        W20075  10.380  15.562  15.489  0.1429  0.5108 -0.1195
 6662W        W20076   0.970   6.820   5.885 -0.0606  0.1128 -0.1753
 6663W        W20077  14.295  11.877  14.479  0.1533  0.2155  0.2856
 6664W        W20078  18.112   6.745   3.274  0.3144 -0.4325  0.4007
 6665W        W20079  14.161   9.720   6.051 -0.0183 -0.1374 -0.1616
 6666W        W20080  11.021  12.465  15.239 -0.0155 -0.1751  0.0171
 6667W        W20081   8.346   7.816   0.268 -0.1071  0.0644  0.1392
 6668W        W20082   9.478  14.480   4.484  0.0602 -0.2756  0.0987
 6669W        W20083   1.051   5.934   5.891  0.0366 -0.1508 -0.0925
 6670W        W20084   6.732   5.247  14.295  0.2595  0.4920 -0.0743
 6671W        W20085   2.373  15.099   0.640 -0.0312  0.1710  0.5414
 6672W        W20086   6.336  10.925  13.227  0.0211 -0.1394 -0.1735
 6673W        W20087  10.685   1.350   0.202 -0.0159 -0.1116  0.2562
 6674W        W20088   2.761   9.664  10.931  0.3311  0.0910 -0.0615
 6675W        W20089   7.818   6.223  16.254 -0.0194  0.2002 -0.3089
 6676W        W20090  15.787  10.103   0.421  0.2167 -0.1038 -0.1751
 6677W        W20091  15.141  12.543   2.990  0.1361 -0.3156  0.0805
 6678W        W20092  14.983  15.972   3.117 -0.2554  0.0180  0.0741
 6679W        W20093   4.608   9.791  13.553  0.0400  0.1327 -0.3810
 6680W        W20094   9.649   8.036   3.527  0.1189 -0.0196 -0.1011
 6681W        W20095  14.061   0.641   4.453  0.1057  0.2483 -0.0685
 6682W        W20096  10.142  16.915  12.599  0.1907  0.0989 -0.1983
 6683W        W20097  10.897   3.196  13.611 -0.3424  0.1405  0.0785
 6684W        W20098  15.575  10.548   4.048 -0.4445 -0.0060  0.0472
 6685W        W20099   5.532   1.237  15.093 -0.5006  0.0687 -0.3124
 6686W        W20100   5.910   4.747  11.028  0.2575  0.3008  0.0455
 6687W        W20101   9.677   8.238   3.001 -0.0747 -0.1507  0.0104
 6688W        W20102  17.849  15.587   3.155 -0.1559 -0.0649 -0.4272
 6689W        W20103   6.292   2.664  15.053  0.0407 -0.0141 -0.3275
 6690W        W20104   1.400  16.647  14.364  0.2110  0.0009  0.0523
 6691W        W20105  12.392  12.861   0.718 -0.1210 -0.0710 -0.1446
 6692W        W20106  14.920   8.139   5.069  0.2771 -0.3980 -0.1957
 6693W        W20107   1.278  15.638  10.648 -0.2520 -0.0342  0.4006
 6694W        W20108   3.429   3.149  12.215  0.2486  0.0244  0.0723
 6695W        W20109   9.965  16.909  16.446 -0.0097  0.0367  0.2260
 6696W        W20110   9.054  13.636  16.223 -0.0258 -0.2562  0.0446
 6697W        W20111   6.460   0.466  16.113  0.4604 -0.0861 -0.1062
 6698W        W20112  11.229  14.072  14.118  0.1337 -0.1507 -0.2323
 6699W        W20113   3.943  10.841  11.602 -0.0191 -0.0749 -0.1363
 6700W        W20114   7.946   0.669  14.274 -0.1571 -0.2013 -0.0310
 6701W        W20115  14.949  14.287   4.226  0.1245  0.1811  0.0424
 6702W        W20116  12.094  15.451  11.145 -0.4081  0.0603 -0.1863
 6703W        W20117   2.583  15.951  10.096  0.2215  0.2637  0.3294
 6704W        W20118  14.160   0.023   0.769 -0.1606 -0.2051  0.1815
 6705W        W20119  17.240   2.132  14.948  0.0985  0.1082 -0.0222
 6706W        W20120   9.891   1.536  11.766 -0.1642 -0.0741  0.0316
 6707W        W20121   2.578  15.442   5.804  0.0819 -0.0268  0.1243
 6708W        W20122  13.666   5.331  15.643  0.1708 -0.1459  0.1993
 6709W        W20123  12.851  16.093   0.997 -0.1998 -0.0441 -0.1816
 6710W        W20124  13.700   8.638   1.698 -0.0160  0.0026  0.0029
 6711W        W20125  16.469  10.930   5.439  0.3095  0.2017  0.0548
 6712W        W20126   6.259  17.267   2.332  0.0691 -0.0403 -0.3223
 6713W        W20127  11.422   8.748   5.724 -0.0313 -0.0983 -0.0393
 6714W        W20128   5.107  16.578   4.525  0.1968  0.0903  0.1649
 6715W        W20129  17.979   8.035   2.827 -0.1219  0.0919 -0.1600
 6716W        W20130  11.188   3.511  10.126  0.0958 -0.0757 -0.1457
 6717W        W20131   5.514   0.536   2.005 -0.1142  0.2385 -0.0838
 6718W        W20132  12.754  14.559   0.035  0.0568 -0.2920 -0.0423
 6719W        W20133  15.579  16.868  11.243 -0.0228  0.0940 -0.0387
 6720W        W20134   4.643  17.233   2.109  0.0579  0.0089  0.5098
 6721W        W20135  14.093  11.299  15.146 -0.3142  0.2430 -0.0227
 6722W        W20136   8.877   8.607   2.508 -0.3507  0.0460  0.2188
 6723W        W20137   8.773   6.167   3.289  0.1343  0.0473  0.2227
 6724W        W20138  12.278   6.439   4.700 -0.2143 -0.1436 -0.0037
 6725W        W20139   9.463  18.138  13.756 -0.3270  0.0067 -0.5162
 6726W        W20140  11.782   9.865  14.381 -0.1002 -0.2891  0.1495
 6727W        W20141  13.497  14.994  13.973 -0.3485  0.0712 -0.0295
 6728W        W20142  18.029  11.740  14.096 -0.0586  0.1186 -0.0224
 6729W        W20143  11.066  15.328   3.985 -0.0346 -0.0709 -0.0109
 6730W        W20144  11.196  12.895   0.730 -0.3112 -0.0359 -0.3865
 6731W        W20145  15.137   4.040   3.844  0.0612  0.0144 -0.0777
 6732W        W20146  13.621  11.107  15.767 -0.2952  0.1287  0.0249
 6733W        W20147   8.796   9.745   1.754 -0.0020 -0.4232  0.1021
 6734W        W20148  13.020   6.486   6.835  0.1539  0.0533  0.2015
 6735W        W20149   2.977   8.672  14.658 -0.1745  0.1928  0.0620
 6736W        W20150  12.835   9.031   1.486 -0.0095 -0.0778  0.1450
 6737W        W20151   0.156   2.035   0.208  0.0561 -0.0858 -0.2492
 6738W        W20152  16.142   5.444  11.243 -0.0745  0.2409  0.0675
 6739W        W20153   7.312  15.717  10.663  0.1926 -0.1126 -0.0212
 6740W        W20154   7.271  14.738  14.638  0.1470  0.0062  0.1740
 6741W        W20155   6.882  13.786   2.929 -0.1542  0.0597 -0.0524
 6742W        W20156  11.377  17.590   3.837  0.0508  0.2841 -0.2904
 6743W        W20157  11.713  16.488   2.300 -0.2631 -0.0187  0.0178
 6744W        W20158   3.585  14.650   1.304  0.3331  0.2160  0.1813
 6745W        W20159  17.855  14.910   6.043  0.1362 -0.1151  0.2886
 6746W        W20160  11.664   5.562   4.570 -0.1839 -0.1154 -0.3146
 6747W        W20161  15.133   6.533   5.450 -0.0182 -0.1276  0.3648
 6748W        W20162   9.071  16.405   0.563  0.0343 -0.1301 -0.2059
 6749W        W20163   4.976   8.154   4.732  0.3628  0.0982 -0.0407
 6750W        W20164  11.992   1.915  15.095 -0.5313 -0.1215 -0.0377
 6751W        W20165  16.640  12.599   5.543  0.0231 -0.0344  0.0927
 6752W        W20166   4.785   2.604   3.852  0.1255 -0.2632  0.0116
 6753W        W20167   7.206   4.646   2.950  0.0785 -0.0331 -0.1716
 6754W        W20168   8.871  14.463   6.169  0.3584 -0.0332  0.3433
 6755W        W20169  16.223  16.279  16.474  0.1146 -0.1440 -0.0041
 6756W        W20170  18.147  10.801   1.669  0.2883 -0.1294 -0.2417
 6757W        W20171   1.302  16.233  14.137 -0.0457  0.0876  0.1137
 6758W        W20172  11.545   3.463  11.378  0.0703  0.0860 -0.1223
 6759W        W20173   1.323   2.222   3.121 -0.1064  0.2422 -0.1382
 6760W        W20174   0.265  17.250  12.222  0.2682 -0.0027 -0.1391
 6761W        W20175  17.689  12.964   1.918  0.2958  0.1345  0.1278
 6762W        W20176  11.668  12.302  11.608 -0.0863  0.1524 -0.0185
 6763W        W20177   3.269  13.232   1.627  0.3175 -0.3700 -0.1667
 6764W        W20178  11.480   4.089   5.082 -0.0293  0.2731  0.0528
 6765W        W20179   7.128  12.099   2.161  0.0028 -0.3185 -0.0383
 6766W        W20180   8.431  18.120   5.071 -0.0952 -0.0799 -0.0943
 6767W        W20181   6.978  16.158  13.173 -0.0016  0.3008  0.1986
 6768W        W20182  10.515   7.729   2.260  0.1091  0.5315 -0.0408
 6769W        W20183  10.692   6.819  11.861  0.1087  0.0383 -0.0130
 6770W        W20184   1.349   8.974  12.244  0.2326  0.1317  0.0972
 6771W        W20185   4.395   5.856   5.040 -0.0101  0.0757  0.2248
 6772W        W20186  16.702   8.506  12.560  0.0868 -0.0571  0.2691
 6773W        W20187   8.661  16.565   1.507 -0.0367 -0.0035 -0.2210
 6774W        W20188  14.129   9.692  12.338 -0.2536 -0.3133 -0.1524
 6775W        W20189  12.103   6.758   0.974 -0.0059 -0.1289  0.1309
 6776W        W20190   9.963  15.891   1.821  0.1271 -0.0049  0.0422
 6777W        W20191   9.176  16.930   4.695  0.2838 -0.2240 -0.0325
 6778W        W20192  13.705   5.171   1.396 -0.0274  0.1808 -0.0406
 6779W        W20193   3.200   5.121   4.114  0.3395 -0.0461 -0.1901
 6780W        W20194  13.690  11.457   1.852 -0.3520  0.0882 -0.0044
 6781W        W20195   9.075   2.254  10.765 -0.2210  0.1751  0.4702
 6782W        W20196   4.570   3.270   4.575  0.0857  0.0969 -0.0282
 6783W        W20197   7.203   5.242   3.905 -0.1246  0.2867 -0.2118
 6784W        W20198   6.025   6.246   3.460  0.1541  0.1216 -0.0214
 6785W        W20199  16.353   9.942  13.322 -0.0790 -0.2610  0.1103
 6786W        W20200  11.169   7.424   6.240  0.1328 -0.0111 -0.0252
 6787W        W20201   8.469   0.018  12.089  0.0370 -0.2039  0.1054
 6788W        W20202   6.328   3.027   3.422 -0.0873  0.0336 -0.1688
 6789W        W20203   7.983   2.464   1.012  0.0719 -0.0826 -0.2424
 6790W        W20204  13.181  14.410  15.787 -0.0964  0.0698  0.1450
 6791W        W20205  16.606   6.662   3.597 -0.0076 -0.0725  0.0241
 6792W        W20206   3.679   6.487  11.827  0.0568 -0.4532 -0.1700
 6793W        W20207   0.361   5.593  13.806  0.0927  0.0621  0.0405
 6794W        W20208   2.097  10.812   4.321 -0.0523  0.1542  0.0493
 6795W        W20209  14.909   5.544  16.301 -0.2339 -0.1900 -0.0730
 6796W        W20210   4.897  16.201   2.087 -0.1285 -0.0219  0.4207
 6797W        W20211  15.268  12.706   1.184  0.1820 -0.0368  0.0605
 6798W        W20212   0.196   5.516  12.254 -0.1630  0.0456 -0.2402
 6799W        W20213   8.113   1.518  16.050  0.2211 -0.1904 -0.1236
 6800W        W20214   5.322  16.988  11.262 -0.0910 -0.0425  0.1293
 6801W        W20215   2.136   0.130   3.734 -0.0223 -0.0387  0.0013
 6802W        W20216  15.420  12.095   3.760  0.0025 -0.1359 -0.0046
 6803W        W20217  16.433  15.809  14.752  0.0126  0.1388 -0.2036
 6804W        W20218   2.412   8.865   1.098 -0.1484 -0.0868 -0.1415
 6805W        W20219   0.898   8.143  15.817 -0.0766  0.0565  0.0407
 6806W        W20220   9.327   7.775   5.033 -0.1455  0.0669  0.0226
 6807W        W20221  11.368  14.480  13.093  0.1596 -0.1880 -0.1732
 6808W        W20222  10.400   6.317  15.726  0.1048 -0.3692 -0.1741
 6809W        W20223  14.095   8.743  15.160  0.0072  0.3455  0.0830
 6810W        W20224  11.291   4.948   5.237  0.0179 -0.1473  0.5336
 6811W        W20225  10.877   5.794   0.623  0.1461  0.2890 -0.0500
 6812W        W20226   3.535   7.165  12.041  0.2277  0.4321  0.0653
 6813W        W20227  13.520   0.733   2.430  0.2788  0.2199  0.1685
 6814W        W20228   7.939   1.245   2.356  0.1159 -0.3687 -0.2485
 6815W        W20229   9.109  17.388   0.617  0.1277 -0.1140 -0.2807
 6816W        W20230   5.624   7.321  11.461 -0.2055  0.1972  0.1798
 6817W        W20231   4.309   7.698  16.053 -0.0760  0.0468  0.0498
 6818W        W20232  14.074   9.688   3.798 -0.1252  0.3343  0.1327
 6819W        W20233  18.216   4.216  12.675 -0.0018 -0.0194 -0.2890
 6820W        W20234   3.990  12.630  14.665  0.0044 -0.0029  0.0338
 6821W        W20235  15.223   4.499   0.614 -0.0743 -0.2617  0.0182
 6822W        W20236  15.973   8.711  12.087 -0.1065 -0.1123  0.2665
 6823W        W20237  13.311  16.907   1.402  0.1001  0.5550 -0.0123
 6824W        W20238   0.108  18.086  11.555 -0.1033  0.3341  0.0033
 6825W        W20239  10.020   9.666  11.852 -0.3221  0.3019 -0.1557
 6826W        W20240  10.563   1.945  15.046 -0.2069  0.2851  0.1915
 6827W        W20241  11.661  15.594   5.010 -0.2330 -0.0160  0.2387
 6828W        W20242  15.104  13.455  14.662 -0.1463 -0.0502  0.2576
 6829W        W20243   0.717   9.160   4.501 -0.1443 -0.1516  0.0195
 6830W        W20244   2.785  12.064  12.902 -0.2118 -0.2389 -0.0705
 6831W        W20245  16.286   3.597  13.186  0.0199  0.0957 -0.3147
 6832W        W20246   5.184  15.828   0.550 -0.2862 -0.1646  0.1265
 6833W        W20247   3.789   1.922  11.007 -0.0083 -0.1603  0.1464
 6834W        W20248  15.961  11.342   6.127  0.1388 -0.2508 -0.1311
 6835W        W20249   2.030   0.578  12.605  0.2722 -0.0312  0.1449
 6836W        W20250   1.576  16.011   2.550  0.0426 -0.0394  0.2933
 6837W        W20251  18.081   9.084  13.406 -0.0444 -0.2655  0.0561
 6838W        W20252   4.112   3.204   5.877 -0.0079  0.0632 -0.1090
 6839W        W20253  10.642  13.616   5.097  0.0040 -0.0067  0.0516
 6840W        W20254   4.303   2.806  13.866 -0.0278  0.0824  0.0561
 6841W        W20255  16.915  13.151  10.641  0.0821  0.1778 -0.1374
 6842W        W20256  15.090   7.665  11.505  0.2907  0.2047 -0.1108
 6843W        W20257   1.560  17.533  10.343  0.0033 -0.4245  0.0052
 6844W        W20258  13.298   9.908   3.487  0.0667 -0.0212  0.2103
 6845W        W20259   1.717   7.638  14.725 -0.4507 -0.0257  0.1178
 6846W        W20260   9.553   4.566   1.929 -0.0424  0.0200 -0.1780
 6847W        W20261   8.119   0.822   3.372  0.3201 -0.0768 -0.3008
 6848W        W20262   3.529  15.607  11.791  0.3473 -0.1897  0.0662
 6849W        W20263   7.238   7.540  15.416 -0.0086 -0.3245  0.0250
 6850W        W20264  12.585  15.715   0.794 -0.1744 -0.2360 -0.1081
 6851W        W20265  15.376   9.040  11.959  0.2732 -0.2667  0.1499
 6852W        W20266  13.315  10.419   6.223  0.1152  0.1831 -0.1085
 6853W        W20267  15.242  11.773   5.046 -0.0780  0.0063 -0.0027
 6854W        W20268  17.667   9.406  13.692  0.2592  0.0457  0.2259
 6855W        W20269  10.239  13.554   3.855 -0.0022  0.1022  0.0160
 6856W        W20270  17.921   8.815  12.053 -0.5978 -0.1813  0.1264
 6857W        W20271  18.163   8.857   5.992  0.2931 -0.3559  0.0248
 6858W        W20272  10.719  11.850  10.052  0.1922 -0.2330  0.1454
 6859W        W20273  11.141   4.642  13.347 -0.0767  0.0040  0.0269
 6860W        W20274   2.795   7.815  11.766 -0.1905  0.1334 -0.1020
 6861W        W20275   2.972  15.998   0.696  0.0575 -0.0589 -0.0097
 6862W        W20276  17.712  16.045   5.656 -0.0277  0.1178 -0.1682
 6863W        W20277   6.485  11.747   2.902  0.1016 -0.0402 -0.0928
 6864W        W20278  10.489   4.233   5.115 -0.0089 -0.1600  0.0305
 6865W        W20279  15.773  16.955   0.347 -0.0643  0.1749  0.1706
 6866W        W20280   5.503   6.788   4.143  0.0714  0.1062 -0.0851
 6867W        W20281  18.083  10.353  12.896 -0.2030 -0.0397  0.0599
 6868W        W20282   5.266   7.113  13.297  0.0299 -0.2043  0.0396
 6869W        W20283   0.500   3.944  13.495  0.1166 -0.0121  0.0027
 6870W        W20284   2.589  15.108  14.207 -0.0446 -0.2149 -0.3136
 6871W        W20285   9.099   9.762  14.555  0.1436  0.1482  0.2732
 6872W        W20286   5.938   3.560  14.384  0.1525 -0.0427  0.0967
 6873W        W20287   8.416   1.502   1.357 -0.1714 -0.0240 -0.2094
 6874W        W20288   8.451  14.333   0.783  0.0419  0.0905 -0.0554
 6875W        W20289  12.691  15.834   3.896 -0.0338  0.0150  0.1334
 6876W        W20290  12.282  14.165  14.010  0.0459  0.2694 -0.1371
 6877W        W20291   9.042   0.216  11.683 -0.0972 -0.2065 -0.0651
 6878W        W20292  11.816   3.717  13.320  0.0604 -0.0656 -0.2008
 6879W        W20293  13.570   0.196   4.221 -0.4201  0.1215  0.2269
 6880W        W20294   4.952  12.629  14.654  0.1274 -0.1251 -0.2532
 6881W        W20295  10.678  10.867  13.154  0.3071 -0.4223  0.0486
 6882W        W20296  16.258  13.810  10.862 -0.1525  0.0330 -0.2637
 6883W        W20297   3.589  13.765   1.722 -0.2678  0.1001  0.2444
 6884W        W20298  11.012  14.661  15.054  0.0734  0.0706  0.1221
 6885W        W20299   9.931   8.543  16.301 -0.0990  0.1400  0.2686
 6886W        W20300   3.863  12.199   1.107 -0.1459 -0.1199  0.1345
 6887W        W20301   5.115  17.290  12.828 -0.3655 -0.0536 -0.2070
 6888W        W20302  12.633   8.791  13.997 -0.1697  0.0005  0.1395
 6889W        W20303   2.364  12.844  11.196  0.2827  0.2509 -0.1983
 6890W        W20304   1.634  13.536  15.206  0.2352  0.2283  0.1224
 6891W        W20305  13.597   0.415  11.282 -0.0926 -0.2627  0.0347
 6892W        W20306  17.294  13.442   4.639  0.2268 -0.2112 -0.0663
 6893W        W20307  11.278  17.372   4.797  0.2072 -0.0394  0.2186
 6894W        W20308   0.960  10.506  10.105 -0.0680  0.2047 -0.0606
 6895W        W20309  14.552  17.615  10.033  0.0238  0.3303  0.1459
 6896W        W20310   5.752   6.572  12.245  0.4240 -0.1219 -0.0725
 6897W        W20311  15.885   2.093  13.758 -0.1850  0.1113  0.2818
 6898W        W20312  16.602   0.312  14.688 -0.0751  0.0272 -0.2165
 6899W        W20313   3.237   4.295  11.753  0.0035  0.2750 -0.0198
 6900W        W20314   0.695   2.736   3.968 -0.0906  0.2571  0.2653
 6901W        W20315   8.918   5.481   2.598  0.0703 -0.0035 -0.2069
 6902W        W20316   9.987   5.655   0.185 -0.1301 -0.0530  0.2851
 6903W        W20317   2.637  14.129  15.674 -0.1038  0.1064  0.0710
 6904W        W20318   7.252   4.809  10.752 -0.1011 -0.1305 -0.0146
 6905W        W20319   6.023   8.901  13.615  0.0989 -0.1569  0.0208
 6906W        W20320   4.682  17.169   0.273  0.0011 -0.2354 -0.0321
 6907W        W20321  16.812  13.459   0.990  0.0430 -0.2310  0.1348
 6908W        W20322  16.362  12.770  11.898  0.0814 -0.1159  0.0995
 6909W        W20323  17.438  13.392   2.065  0.0240  0.1642 -0.0847
 6910W        W20324   4.009   7.222   5.246 -0.0967  0.2536  0.1568
 6911W        W20325  14.968  17.747   0.345 -0.0987 -0.1082 -0.0279
 6912W        W20326  12.863  15.099  14.369  0.1130  0.2724 -0.0698
 6913W        W20327   9.811  14.184  14.451 -0.1020  0.0312 -0.0900
 6914W        W20328  17.322   3.825  16.341 -0.1242  0.1860  0.0061
 6915W        W20329   0.176   3.469   0.405  0.1049 -0.1905  0.1189
 6916W        W20330   7.529   9.971  11.605  0.0604  0.2472  0.2769
 6917W        W20331   8.712  16.645  15.620  0.3850  0.3225 -0.3042
 6918W        W20332  15.411  16.288   1.319 -0.1348 -0.1747  0.2927
 6919W        W20333   3.745  14.618   3.876  0.2707  0.0794  0.3233
 6920W        W20334  14.552   1.917   3.755 -0.3257  0.0715  0.1645
 6921W        W20335  10.276   8.339   0.732  0.3781  0.3351 -0.1921
 6922W        W20336  10.121   0.503  10.964  0.2162 -0.2695 -0.1286
 6923W        W20337   9.547  11.840   0.511 -0.1230 -0.1851 -0.0474
 6924W        W20338   3.008   2.745   5.160 -0.0107 -0.0163  0.0442
 6925W        W20339   3.378   2.192   2.719 -0.0830 -0.1869  0.0884
 6926W        W20340  16.558  16.811   4.182  0.2321  0.2067 -0.0868
 6927W        W20341   8.011   0.240  11.311  0.1439 -0.1826 -0.2490
 6928W        W20342   7.807  11.155  13.906  0.0414 -0.1399 -0.1737
 6929W        W20343  10.491   0.721  14.195  0.4275 -0.2010 -0.1661
 6930W        W20344   9.496  12.636  11.674  0.0549 -0.1428  0.1578
 6931W        W20345  10.722  13.887   2.853  0.0436 -0.3664  0.0397
 6932W        W20346  17.581  12.965  13.220  0.0762 -0.1259  0.2696
 6933W        W20347  18.093  12.645   4.144  0.0766  0.0732  0.0018
 6934W        W20348  14.825  14.903  13.154 -0.1710  0.1298  0.0221
 6935W        W20349   6.432   1.359   2.071  0.0159  0.0779 -0.0645
 6936W        W20350  10.116   0.472  11.948 -0.0621  0.0667 -0.0680
 6937W        W20351   2.297  16.802  13.352 -0.1020 -0.1685 -0.0894
 6938W        W20352  17.078   0.546   5.145  0.0461  0.1067  0.2100
 6939W        W20353   0.199   2.480   4.127  0.2112  0.1315 -0.2129
 6940W        W20354   7.288  14.629   2.255 -0.0160 -0.2652 -0.1547
 6941W        W20355   5.351   6.623  10.966 -0.3097  0.2707  0.2384
 6942W        W20356  12.941   6.686  12.377 -0.2644 -0.0290  0.2147
 6943W        W20357  16.025   8.693   2.039 -0.1750 -0.0955  0.0524
 6944W        W20358  13.194   9.613  16.164 -0.0488 -0.1478 -0.1172
 6945W        W20359   2.233   0.161  16.271 -0.1997 -0.2511 -0.0598
 6946W        W20360   1.018   2.498   6.450 -0.0435  0.0492 -0.1696
 6947W        W20361   2.682  12.397  15.402  0.1713 -0.1917 -0.0724
 6948W        W20362   8.720  14.005   1.505  0.2029 -0.1806  0.1587
 6949W        W20363  16.083   3.117  12.171  0.0822 -0.0035 -0.0416
 6950W        W20364   6.205   5.299  16.173  0.2619  0.0598 -0.1816
 6951W        W20365  10.032   4.114   2.162 -0.1979  0.0788  0.3394
 6952W        W20366   1.093  12.441   3.281  0.3613  0.2957  0.0656
 6953W        W20367   1.070   6.893   4.894  0.0350  0.0211  0.2558
 6954W        W20368   9.341  12.672  13.469 -0.2443  0.0935  0.0628
 6955W        W20369   8.669   0.152  12.684  0.0872 -0.0098  0.1743
 6956W        W20370   8.612  12.544   2.482  0.0508  0.0229 -0.0314
 6957W        W20371  10.770   4.914  13.099 -0.1097  0.2113  0.0016
 6958W        W20372   8.266   2.745  16.254  0.1150 -0.0182 -0.2279
 6959W        W20373   3.117  12.909  16.163 -0.1453 -0.1980 -0.2236
 6960W        W20374  18.126  14.647  11.798 -0.0233  0.1899  0.1235
 6961W        W20375   5.011   0.224  14.133 -0.2318  0.0209 -0.0160
 6962W        W20376   1.054   3.654  14.863  0.2644  0.0579  0.0294
 6963W        W20377  16.680   8.716  13.590 -0.4724  0.0461  0.0949
 6964W        W20378   4.065   1.234  15.915 -0.0563 -0.1687 -0.0127
 6965W        W20379  12.451  15.891   9.970  0.2413 -0.0568  0.1344
 6966W        W20380   1.625   9.126   0.814  0.0241 -0.3061  0.0175
 6967W        W20381   1.842   7.362   4.289  0.2553 -0.3188  0.0703
 6968W        W20382   4.413  12.726   3.408  0.0445  0.0408  0.1735
 6969W        W20383   9.983   2.182  13.467 -0.0302 -0.1806  0.0240
 6970W        W20384  10.630   9.844  15.431 -0.0431 -0.0778  0.0200
 6971W        W20385   8.782   3.281   4.224  0.0092 -0.2633 -0.2678
 6972W        W20386   8.896   0.528  14.000 -0.0201  0.2222  0.3269
 6973W        W20387   4.041   6.947   1.802 -0.2053  0.0126 -0.0519
 6974W        W20388   4.391   6.173   1.391 -0.2389 -0.0428 -0.1519
 6975W        W20389   3.534   1.641  13.433  0.2063 -0.0672  0.3187
 6976W        W20390   5.200   5.402   1.078 -0.0357  0.2064  0.2656
 6977W        W20391   2.154  17.618  13.958  0.5255 -0.1511 -0.0129
 6978W        W20392   8.985   3.707  11.962  0.0145  0.0542  0.2152
 6979W        W20393   5.017  17.999  10.679 -0.0991  0.0825  0.1299
 6980W        W20394   4.155   2.368  11.786 -0.0420  0.0347 -0.0315
 6981W        W20395   7.480   9.951  12.076  0.4323 -0.1787  0.3787
 6982W        W20396  13.630  11.694  13.606 -0.3090  0.2789 -0.1084
 6983W        W20397  10.459   4.479  15.011 -0.0514  0.1975  0.0293
 6984W        W20398  11.241   8.956   2.521 -0.0777 -0.0098  0.0108
 6985W        W20399   5.451  17.693   3.280  0.1242  0.1137  0.1149
 6986W        W20400   0.904   4.490  12.291  0.3723 -0.2130 -0.0688
 6987W        W20401   4.558  10.368   1.594 -0.1952 -0.2203  0.1690
 6988W        W20402   1.584  14.428   3.138 -0.0384  0.1397 -0.1051
 6989W        W20403   6.086  11.770   2.178  0.0030 -0.1408  0.1076
 6990W        W20404  16.298  11.711   6.239 -0.0145  0.0362  0.2884
 6991W        W20405  15.384   4.324   2.340 -0.0465  0.0825 -0.0993
 6992W        W20406  12.997   5.344   5.571  0.1522  0.0169  0.3130
 6993W        W20407  14.482   3.275   0.036  0.1842  0.1912  0.2090
 6994W        W20408   2.089  17.099   3.635 -0.1446 -0.0012  0.2803
 6995W        W20409  12.520  16.813  15.514  0.0734  0.1199  0.1389
 6996W        W20410  11.271   9.686  14.233  0.0137 -0.0942 -0.3900
 6997W        W20411  10.817   5.197   2.673  0.2079 -0.1115 -0.0273
 6998W        W20412  16.434  13.669  14.687 -0.1057 -0.1699 -0.1970
 6999W        W20413   5.638   9.794  15.833  0.0638  0.1120  0.0135
 7000W        W20414  15.613   1.310  11.157  0.3107  0.1035  0.0894
 7001W        W20415  12.865   2.817   0.307 -0.1164 -0.2259 -0.0552
 7002W        W20416  14.772  17.689  12.155 -0.0226  0.1403  0.0435
 7003W        W20417   5.588  11.325  15.084  0.1627  0.0439  0.1154
 7004W        W20418  13.410   8.447  11.797 -0.2609 -0.1240  0.2558
 7005W        W20419  13.080   2.252   2.221  0.1282  0.0414  0.1230
 7006W        W20420   0.874  11.414  15.891  0.0109 -0.3525 -0.2082
 7007W        W20421   9.177  14.727   0.936  0.0655  0.1711  0.0501
 7008W        W20422  16.878  12.818   5.952  0.3136 -0.1752 -0.0437
 7009W        W20423  14.569  13.653   5.777  0.3576 -0.0819  0.0687
 7010W        W20424  14.019   4.180   2.371  0.1055 -0.2249  0.1183
 7011W        W20425  10.274  13.944   0.571  0.1437  0.1019 -0.2451
 7012W        W20426  12.248  12.591   2.027 -0.1342  0.3999 -0.0758
 7013W        W20427  15.453   5.948   2.878 -0.0886 -0.1005 -0.1946
 7014W        W20428  11.508  14.120  11.070  0.0228  0.0403 -0.0125
 7015W        W20429   2.304   5.604  15.743  0.1050 -0.0773 -0.1224
 7016W        W20430   2.630  15.972  13.334 -0.3448 -0.1051  0.2315
 7017W        W20431  16.432   8.752   6.795  0.3471  0.0915  0.0447
 7018W        W20432   8.873  16.795  12.659  0.0163 -0.0231  0.0583
 7019W        W20433   3.305   7.062   3.201  0.1442 -0.0142  0.2787
 7020W        W20434  10.224   0.013   1.735 -0.0199  0.0853 -0.0016
 7021W        W20435   7.939  14.375  15.310  0.2043  0.2348  0.1513
 7022W        W20436  14.783  11.165  11.626 -0.0128 -0.0607 -0.1776
 7023W        W20437  11.206  10.600  16.104  0.1893 -0.3376  0.0385
 7024W        W20438  14.297  11.439  14.074 -0.0255 -0.0269 -0.0667
 7025W        W20439   3.490   2.796  16.138  0.1211 -0.2694  0.0055
 7026W        W20440  15.606  16.461   1.931 -0.0536  0.3682 -0.0647
 7027W        W20441   7.975  10.668  10.946  0.1215  0.0967  0.3318
 7028W        W20442   8.208   6.658  16.268  0.1335  0.1763 -0.2203
 7029W        W20443  12.893  17.217  10.657  0.1767 -0.0290 -0.0366
 7030W        W20444  15.706  12.000  16.143  0.1039 -0.0757 -0.3268
 7031W        W20445   5.733   8.164  14.063 -0.2682 -0.3691 -0.1562
 7032W        W20446   3.924  11.841   3.441 -0.2070 -0.3223  0.1606
 7033W        W20447   0.458  14.849  12.647  0.3100 -0.3467  0.0295
 7034W        W20448  15.582   6.730  12.300  0.1635  0.1658 -0.3028
 7035W        W20449   6.693  12.361   3.644  0.0288  0.1910  0.2276
 7036W        W20450  14.866   7.031   1.320 -0.1652  0.0687 -0.2223
 7037W        W20451  16.518  16.256  13.637  0.0459 -0.0443 -0.0420
 7038W        W20452   6.401   7.543  14.576  0.0568  0.0579  0.0947
 7039W        W20453  17.073   3.544  14.162  0.1438  0.2749  0.2725
 7040W        W20454   4.799   3.905  14.895  0.2078 -0.0342 -0.0994
 7041W        W20455  12.540  11.527   2.393 -0.1564  0.1872  0.3241
 7042W        W20456   9.770   3.982   0.587 -0.2546 -0.0604  0.0919
 7043W        W20457  16.744   8.918  14.721  0.2805  0.2046  0.4792
 7044W        W20458   2.824   7.831  15.070  0.1278  0.0513  0.2197
 7045W        W20459   3.758  13.198   2.956  0.1526  0.0476  0.0388
 7046W        W20460  14.930   4.082  11.675  0.0886  0.2828  0.0184
 7047W        W20461  17.039   8.984   3.864 -0.2731 -0.0449  0.1508
 7048W        W20462  16.625  17.513  16.030 -0.1234  0.0661 -0.0431
 7049W        W20463   6.870  11.451  15.061  0.0354 -0.4023  0.0621
 7050W        W20464  13.327  11.081   1.044 -0.0321  0.3073 -0.2741
 7051W        W20465   6.464  14.607  11.433  0.0912 -0.1369 -0.4716
 7052W        W20466  10.903   3.477   3.419  0.1260 -0.1449 -0.1722
 7053W        W20467   5.726  13.251   0.311  0.0245  0.0014  0.0919
 7054W        W20468   5.411   1.897   4.035  0.3450 -0.0916 -0.1385
 7055W        W20469  16.265   7.771   4.390 -0.0617  0.0951  0.1136
 7056W        W20470   0.710  10.098   3.247  0.3671  0.0900 -0.1084
 7057W        W20471  16.122   2.086   0.180  0.0178  0.1796 -0.0466
 7058W        W20472  13.053   8.894   2.009  0.0133 -0.0526 -0.1997
 7059W        W20473  16.083  16.803  12.794 -0.2273  0.0233  0.0735
 7060W        W20474   0.169   4.786  13.734 -0.3156 -0.1024 -0.0141
 7061W        W20475  15.734   1.284  15.826  0.1164 -0.1171 -0.0228
 7062W        W20476   5.225   5.309  15.969 -0.2864 -0.0984  0.0632
 7063W        W20477   9.069   3.678   0.187  0.2940 -0.0911 -0.1474
 7064W        W20478   0.592  15.259   5.218  0.0652  0.1394  0.0411
 7065W        W20479  11.467  14.007   1.349 -0.2535  0.3255 -0.2504
 7066W        W20480   8.201  11.403  14.101 -0.2617 -0.0651  0.2621
 7067W        W20481  12.773  14.354  11.770 -0.1740  0.0370 -0.1784
 7068W        W20482   4.896   5.247   5.658 -0.0199 -0.1596  0.2292
 7069W        W20483  18.143   8.773   6.510  0.1558  0.0750 -0.1078
 7070W        W20484  12.945  17.487  16.467 -0.1068 -0.0758  0.0382
 7071W        W20485   5.467   2.152   3.119 -0.2335  0.1167  0.0551
 7072W        W20486   1.067   4.884   1.720 -0.1038 -0.2054  0.1810
 7073W        W20487   4.858  17.333   5.282  0.0814  0.1698  0.1965
 7074W        W20488   8.725  11.446   4.849 -0.1387 -0.0769 -0.0373
 7075W        W20489   9.999  10.083  14.884  0.0138 -0.1083  0.1486
 7076W        W20490  12.472   4.768   4.130  0.1591 -0.1503  0.2975
 7077W        W20491  13.883   0.759   6.034  0.0075  0.1098 -0.1762
 7078W        W20492  12.719   8.890   6.288 -0.1006 -0.0443 -0.0208
 7079W        W20493  16.651  17.898  11.695 -0.0001 -0.0303 -0.1378
 7080W        W20494   4.653   9.292  13.419  0.0516  0.1171  0.4684
 7081W        W20495  14.980   5.400  10.647 -0.2924 -0.1836 -0.3315
 7082W        W20496   6.006   0.484   5.328  0.2028  0.0554  0.1157
 7083W        W20497   2.597   6.749   2.496 -0.1820 -0.0842  0.1080
 7084W        W20498  13.804   5.698   1.161  0.0722  0.2884 -0.0603
 7085W        W20499  10.519  17.548   0.200 -0.1149 -0.2376  0.0240
 7086W        W20500   7.562   4.388   5.979 -0.0028  0.1627  0.1773
 7087W        W20501  10.359  17.621   2.890 -0.2019  0.3021  0.0408
 7088W        W20502   5.370   9.987  13.256  0.0569 -0.2498  0.2885
 7089W        W20503  15.216  10.363   3.689 -0.0870  0.1524  0.1477
 7090W        W20504  10.472   9.423   1.711 -0.2928 -0.1783  0.0714
 7091W        W20505   4.733  17.284   3.958 -0.2429 -0.1895  0.2784
 7092W        W20506  15.269  18.106   3.797  0.1439 -0.2791  0.0362
 7093W        W20507  10.939   9.422  11.946  0.0861 -0.0346 -0.0345
 7094W        W20508   0.796   2.592  11.222  0.0409 -0.1404 -0.0237
 7095W        W20509  11.540  14.495   1.568  0.2791 -0.0430 -0.1841
 7096W        W20510  16.708  17.084  13.571  0.1083  0.1213 -0.2335
 7097W        W20511   6.864  13.863  11.977  0.1551  0.1633 -0.2078
 7098W        W20512  13.954  12.641  13.337 -0.3294 -0.1215 -0.3790
 7099W        W20513  15.633  12.277  14.130 -0.1948 -0.0233 -0.2041
 7100W        W20514  12.840   3.661   0.682 -0.1353  0.0422 -0.0496
 7101W        W20515  18.162  17.255  10.935  0.4261 -0.0612  0.0904
 7102W        W20516  11.607   4.962   1.610 -0.0937  0.3621 -0.1179
 7103W        W20517   8.118  10.680  16.255 -0.1590 -0.0572  0.0961
 7104W        W20518  16.601  12.434  15.648  0.2374 -0.1485 -0.0308
 7105W        W20519   1.029  16.474  15.063  0.1613  0.2225  0.0897
 7106W        W20520  15.668   1.922  15.871  0.2268 -0.1998  0.1216
 7107W        W20521  10.780   7.975   0.016 -0.2585  0.0652 -0.2749
 7108W        W20522  15.522  14.144   0.024  0.1209  0.0028  0.1161
 7109W        W20523  15.922  12.178  12.792  0.1481 -0.3036  0.0200
 7110W        W20524  15.798   5.783  15.028 -0.0950 -0.1785  0.0983
 7111W        W20525  12.258   8.745  14.730  0.1986  0.1120  0.0655
 7112W        W20526   9.471  11.708  11.252 -0.1599 -0.0392 -0.0446
 7113W        W20527  10.106   8.833   5.542  0.1366  0.0799  0.0010
 7114W        W20528   1.245   4.266   4.118 -0.2430 -0.1046  0.1435
 7115W        W20529   4.901   9.326  11.408 -0.0532  0.2034 -0.2579
 7116W        W20530  13.860   3.894  11.789  0.0203 -0.1091  0.0153
 7117W        W20531   2.917  17.280   6.060  0.0585 -0.0375  0.0405
 7118W        W20532  13.560   7.834  13.823 -0.3330  0.0719  0.2168
 7119W        W20533   9.217   9.253   5.381  0.1801  0.0997  0.1745
 7120W        W20534   5.706   0.288  12.341 -0.2380  0.1601 -0.0595
 7121W        W20535  12.109  17.685  11.830 -0.2850  0.2003 -0.0350
 7122W        W20536  17.205   5.462   4.959 -0.2527  0.0376  0.0942
 7123W        W20537   5.025   7.752   6.118  0.1841  0.4116 -0.2071
 7124W        W20538  15.375   2.585  11.718 -0.1338  0.2358  0.2722
 7125W        W20539  14.425   0.502  16.485  0.0713  0.0835  0.0116
 7126W        W20540   7.054  17.657   1.889 -0.1366  0.2033  0.2593
 7127W        W20541  11.950   3.192  13.502 -0.3824 -0.1642  0.3375
 7128W        W20542   4.843   1.780   4.318 -0.0567 -0.0735 -0.1430
 7129W        W20543   3.211   2.214   5.809 -0.1481 -0.1652  0.4372
 7130W        W20544  17.261   1.101   3.969 -0.1002  0.2771 -0.2878
 7131W        W20545   0.858   6.404  12.373 -0.2404  0.0806  0.2472
 7132W        W20546   2.419   5.148  12.536  0.0992 -0.2602  0.0750
 7133W        W20547  12.076  10.376  13.253  0.0231 -0.0159 -0.0744
 7134W        W20548  16.175  14.931   4.449 -0.0315  0.0087  0.2393
 7135W        W20549  11.753  12.258   5.601 -0.3385  0.1482 -0.0116
 7136W        W20550   5.546  12.264  12.203 -0.0057 -0.0767  0.1580
 7137W        W20551  14.924   2.077   4.589  0.1399 -0.1692 -0.0638
 7138W        W20552  14.138   6.287   2.975  0.0169  0.0145  0.1493
 7139W        W20553  14.849   2.005  10.861 -0.2951 -0.1418 -0.1407
 7140W        W20554   2.218  11.803  12.080 -0.1369  0.1935 -0.0705
 7141W        W20555   4.653   4.064   3.944  0.0501  0.1380 -0.0650
 7142W        W20556   8.033  16.747   4.362  0.1199 -0.0153  0.1811
 7143W        W20557   1.988   7.341  14.151 -0.2028 -0.0057  0.1274
 7144W        W20558   9.337   9.809  11.367 -0.1837  0.2376 -0.1268
 7145W        W20559  13.569   2.147  11.109  0.2830  0.2409 -0.0702
 7146W        W20560   9.580   1.133  10.901  0.0525 -0.0239  0.1346
 7147W        W20561   2.470   1.736   5.907  0.0764  0.0370 -0.0316
 7148W        W20562  15.584  16.041  14.536 -0.2776 -0.0473 -0.0465
 7149W        W20563  10.871   7.170   0.117 -0.0254 -0.2999 -0.1067
 7150W        W20564  14.551   7.523   0.239  0.0504 -0.2384 -0.0362
 7151W        W20565   3.668   4.641   3.132 -0.1230 -0.0692 -0.0957
 7152W        W20566  11.451   6.453  11.566 -0.0704  0.2883 -0.1324
 7153W        W20567   0.434  13.229  14.193  0.2354 -0.1739  0.1267
 7154W        W20568  17.657   7.217  14.890 -0.0025  0.1945 -0.0836
 7155W        W20569   2.830  16.059  14.241  0.2618  0.2032  0.2970
 7156W        W20570   3.751   7.893   3.385 -0.2860 -0.2015 -0.0495
 7157W        W20571  13.066   6.798   2.088 -0.2601  0.0923  0.4024
 7158W        W20572   2.818  17.277  15.888  0.1327 -0.0870 -0.0438
 7159W        W20573   5.964  14.771   0.068 -0.0366 -0.0030  0.0583
 7160W        W20574   4.350  16.438   0.342 -0.2626 -0.1521 -0.0645
 7161W        W20575  18.125   8.113   1.104  0.3888  0.1555 -0.0501
 7162W        W20576   0.254  15.600   3.143 -0.0386  0.0333 -0.2043
 7163W        W20577   3.722   5.343  16.102 -0.3070 -0.1245 -0.0869
 7164W        W20578   6.844  16.680  10.030  0.0865  0.3456  0.2645
 7165W        W20579   7.051   0.205   0.902 -0.0940 -0.2718 -0.0347
 7166W        W20580   1.475  16.866  15.671 -0.1605  0.2356  0.0322
 7167W        W20581  15.267   4.975  12.772 -0.1800  0.0270  0.1932
 7168W        W20582   6.844   9.450  15.329 -0.0732  0.0038  0.4414
 7169W        W20583  15.256   2.733   5.701  0.1933 -0.0688 -0.2370
 7170W        W20584  13.018   9.250   4.430  0.3720  0.2688 -0.1965
 7171W        W20585  10.491  14.743  15.985 -0.0199 -0.0528  0.1907
 7172W        W20586   1.574   0.923   5.991  0.1453 -0.0559 -0.1555
 7173W        W20587   2.615   4.375   3.276  0.1952  0.2275 -0.0631
 7174W        W20588   6.207   3.514   1.758 -0.0387  0.2579  0.3586
 7175W        W20589  12.696  17.995   3.942  0.1198  0.1135  0.0236
 7176W        W20590  11.606   9.415  15.736  0.1541  0.0778  0.0716
 7177W        W20591  11.933  13.664  15.697  0.0055  0.1698  0.4054
 7178W        W20592   0.569  11.536  13.070  0.0074  0.3950 -0.2026
 7179W        W20593   9.901  15.919  12.934  0.0462 -0.0928 -0.0310
 7180W        W20594  10.593   1.079  15.331  0.0010  0.0883  0.4658
 7181W        W20595   3.854   7.279  14.395 -0.4469  0.1462  0.0864
 7182W        W20596  11.080   1.400  13.085 -0.1380  0.3791  0.1171
 7183W        W20597   4.657  15.180   5.411  0.1326 -0.1594 -0.1885
 7184W        W20598  12.765   8.711   0.636 -0.0171  0.2313 -0.2490
 7185W        W20599  14.499   4.704  13.307  0.0596  0.2672 -0.0376
 7186W        W20600   3.623  13.367  15.561 -0.0816 -0.1936 -0.0958
 7187W        W20601   9.687  14.345  16.411  0.3621  0.1864 -0.1849
 7188W        W20602   9.780  10.109  11.272 -0.0539  0.1271 -0.0333
 7189W        W20603   8.357  12.190  13.322 -0.0839 -0.1933 -0.0336
 7190W        W20604   6.433   0.607  13.019 -0.0177 -0.0477  0.0414
 7191W        W20605   2.165  11.936   1.235  0.1863  0.3112  0.3257
 7192W        W20606  16.242   6.751  16.153  0.1251 -0.1356  0.0230
 7193W        W20607   7.201   6.772  15.921 -0.1438 -0.1943 -0.0564
 7194W        W20608   9.383   8.555  13.899  0.0393  0.0859  0.0664
 7195W        W20609   8.260  12.510  16.441  0.3666 -0.0796  0.1930
 7196W        W20610   5.418  10.195   1.237 -0.1266  0.2520 -0.3282
 7197W        W20611   8.900   9.160  13.134 -0.0736  0.0734  0.0426
 7198W        W20612  15.938   8.411  15.247 -0.0356 -0.0801 -0.2542
 7199W        W20613   6.159  17.409  16.266 -0.2342  0.1197 -0.2344
 7200W        W20614   4.413   4.931   6.103 -0.0926 -0.1352  0.0745
 7201W        W20615   1.482  14.715   4.450  0.1206  0.0522 -0.0622
 7202W        W20616  12.068   0.287   2.460  0.0440  0.0676  0.0815
 7203W        W20617  14.145   8.675  13.961  0.0122 -0.2101  0.1524
 7204W        W20618   3.524  16.274   1.258  0.1570  0.2109  0.0707
 7205W        W20619   6.057   6.630   1.409 -0.4966  0.1119  0.0203
 7206W        W20620  14.831  16.845  14.271  0.0080 -0.2299 -0.0944
 7207W        W20621   0.839   9.281  15.686  0.0691  0.1736  0.2130
 7208W        W20622   5.948  14.871   4.278 -0.2806  0.1598  0.0222
 7209W        W20623   7.194  12.398   1.124 -0.0092 -0.0327 -0.0968
 7210W        W20624  11.485   4.466  12.298 -0.0412  0.0198  0.4117
 7211W        W20625  12.388   5.603  11.110  0.0306  0.0026  0.0837
 7212W        W20626   5.084   0.469   1.109  0.0393 -0.2054  0.1889
 7213W        W20627   7.668   3.142   1.348 -0.1608  0.1090  0.0237
 7214W        W20628  10.550   8.981   4.727  0.2840  0.2971  0.1320
 7215W        W20629  14.772  10.767   4.490  0.1504  0.1329  0.0118
 7216W        W20630   9.267   7.674  15.514  0.0782  0.2769 -0.1261
 7217W        W20631   0.936  17.922  10.403  0.0117  0.0705  0.1033
 7218W        W20632   2.616  15.476  15.988 -0.0581 -0.2009 -0.2341
 7219W        W20633  12.925  16.588   1.182 -0.3780 -0.0605  0.2705
 7220W        W20634  12.518   6.172  15.036 -0.0467  0.2739  0.3000
 7221W        W20635  10.934   5.437   0.181  0.2544  0.0602 -0.0290
 7222W        W20636  10.262   2.024   1.482  0.0625 -0.2812 -0.0573
 7223W        W20637  14.868  16.612  11.694 -0.1792 -0.0851 -0.2331
 7224W        W20638   2.013   2.384  12.957 -0.2829  0.2233  0.0592
 7225W        W20639  15.824  13.127  11.819 -0.0526 -0.1924  0.0747
 7226W        W20640   6.670   3.422   2.058  0.1058  0.2221 -0.2321
 7227W        W20641   1.680   9.447   6.178  0.0789 -0.1207 -0.2863
 7228W        W20642   4.964   7.777  12.565 -0.1406  0.0450  0.0745
 7229W        W20643  12.385   9.475  11.451 -0.0776  0.0162  0.4160
 7230W        W20644   2.116  11.992  16.425  0.1246 -0.5308 -0.2615
 7231W        W20645  15.242   8.786  16.164  0.0108  0.0489  0.1364
 7232W        W20646  12.361   0.724   3.758  0.2055 -0.2231  0.0587
 7233W        W20647   8.153   3.682   3.059 -0.5156 -0.1828 -0.1137
 7234W        W20648   0.941  15.118  12.128 -0.0409 -0.0974 -0.1483
 7235W        W20649  15.338   2.951   4.748  0.4130 -0.2424  0.1313
 7236W        W20650   4.746   1.373   5.189 -0.0415  0.1064  0.1151
 7237W        W20651  11.917  18.188  13.916  0.0458 -0.3199 -0.0314
 7238W        W20652   4.407   9.623   4.230 -0.0443 -0.1979 -0.0255
 7239W        W20653  17.625   6.875   0.884 -0.0180 -0.0983 -0.0172
 7240W        W20654   3.649   1.488  15.775 -0.0156 -0.0371 -0.1208
 7241W        W20655   9.967   8.693   3.003 -0.0975  0.2067 -0.0767
 7242W        W20656  14.531  17.324   6.005  0.2806  0.3235 -0.1149
 7243W        W20657   2.999  17.651  11.156  0.0688 -0.1752 -0.1654
 7244W        W20658  13.877   3.885   0.623  0.0110  0.2418 -0.2419
 7245W        W20659  13.553  17.417   5.513  0.1506  0.1418 -0.0024
 7246W        W20660  14.141   0.057  15.412 -0.2289  0.2356  0.1481
 7247W        W20661   8.854  18.055  15.007 -0.1899  0.0142 -0.1141
 7248W        W20662   6.796   1.308  13.390 -0.2684  0.1563 -0.0538
 7249W        W20663   6.562   9.611  15.733  0.1772  0.1927  0.4262
 7250W        W20664   5.341   5.181   3.130 -0.4474  0.1389 -0.0649
 7251W        W20665  10.571   4.327  12.221  0.0829 -0.1367  0.2609
 7252W        W20666  10.355   0.032   2.914 -0.1594  0.0639  0.0835
 7253W        W20667   7.848   9.612   2.228 -0.2047  0.0490  0.0341
 7254W        W20668  10.024  13.815   1.562  0.1663  0.2111  0.1964
 7255W        W20669   5.873   5.554   4.822  0.1564 -0.0324 -0.0231
 7256W        W20670   5.787  13.838   2.238 -0.0485  0.0838 -0.3375
 7257W        W20671  15.393  13.908  15.426  0.2470  0.0314  0.1496
 7258W        W20672   7.032  12.524  15.113  0.3138 -0.1496  0.0093
 7259W        W20673  15.391  15.089  14.633 -0.1318  0.1490 -0.2231
 7260W        W20674  11.878   3.382   2.181 -0.1012 -0.0951  0.0895
 7261W        W20675  18.144  11.426  16.217 -0.1151 -0.1722 -0.0559
 7262W        W20676   0.508   2.600  15.471 -0.1975 -0.0694 -0.1732
 7263W        W20677  14.116   7.888  14.726 -0.2367  0.2443 -0.1752
 7264W        W20678  15.973  10.771   2.189 -0.1629  0.3288  0.1224
 7265W        W20679   1.250  17.855   0.259  0.1295  0.1300  0.2340
 7266W        W20680   3.745  10.823  14.399  0.0356  0.0557  0.0933
 7267W        W20681   1.246   1.013  10.522  0.2893 -0.0827  0.0646
 7268W        W20682  15.875   9.662   2.394  0.3646 -0.0153  0.0188
 7269W        W20683  16.664   1.839  16.135 -0.2199  0.2364  0.1458
 7270W        W20684  16.279  14.023  14.256 -0.0855  0.0653 -0.1459
 7271W        W20685  16.878   9.043   6.658  0.0706 -0.2840  0.3814
 7272W        W20686   0.211   5.722   3.646 -0.1229 -0.3674  0.2083
 7273W        W20687   0.954  17.395  16.067 -0.2067 -0.3515 -0.0166
 7274W        W20688  10.895   7.120   1.508 -0.0711 -0.0408  0.1955
 7275W        W20689  16.073   9.917  13.749  0.0087  0.0215 -0.1242
 7276W        W20690   0.985  16.094   0.494  0.1482  0.2560 -0.0763
 7277W        W20691  17.013  13.414   5.131 -0.2986 -0.1356 -0.2880
 7278W        W20692  13.940   4.633  14.292 -0.4150 -0.0903  0.2140
 7279W        W20693  15.171   3.870   3.143  0.4155 -0.0790  0.0210
 7280W        W20694  17.492  13.312   3.814  0.1262 -0.0093 -0.0317
 7281W        W20695  17.589   0.040  13.810 -0.1627  0.1395  0.2510
 7282W        W20696   5.480   9.160   1.957  0.0457 -0.3594 -0.1881
 7283W        W20697  15.978   4.929   4.876 -0.2640 -0.1028 -0.0851
 7284W        W20698  14.614  17.220  12.310 -0.0709 -0.1746 -0.1226
 7285W        W20699   2.210   7.933   1.442 -0.3579 -0.0628 -0.0333
 7286W        W20700   1.821   4.086  16.482  0.1162  0.0911  0.0615
 7287W        W20701   4.547  15.566   1.465 -0.1269  0.1223 -0.2406
 7288W        W20702  17.171   8.509  16.206 -0.1198 -0.1278  0.0738
 7289W        W20703  14.946   0.624   0.945  0.1035 -0.2915  0.6070
 7290W        W20704   2.482   0.584   2.221  0.1769  0.0087 -0.3324
 7291W        W20705  12.306   2.522  12.566  0.2184  0.2139  0.0021
 7292W        W20706  13.405  15.178  13.444 -0.0488  0.0690  0.0532
 7293W        W20707   6.345   4.448  11.260  0.0084 -0.1731 -0.0491
 7294W        W20708  16.657   4.954  16.281  0.2970 -0.1979 -0.0122
 7295W        W20709  13.975   9.421  14.518 -0.2024 -0.1114  0.1744
 7296W        W20710   2.471  14.638   4.202  0.0318 -0.0931  0.1254
 7297W        W20711  13.492   3.946  11.455 -0.0453 -0.1145  0.1173
 7298W        W20712   5.573  12.149  15.889 -0.2266 -0.0529  0.1852
 7299W        W20713   4.911   3.798   5.190  0.2974 -0.0162  0.2472
 7300W        W20714  13.383   7.823   3.757 -0.1047 -0.1953  0.1663
 7301W        W20715   8.310   4.136   3.780 -0.1905 -0.0053  0.3587
 7302W        W20716   3.359   9.926  13.095 -0.0009  0.1811  0.0639
 7303W        W20717  16.687   9.072  10.100  0.0822  0.0743  0.1912
 7304W        W20718  14.319   4.540   4.877  0.3236 -0.0531  0.0581
 7305W        W20719  18.164   9.378  12.728 -0.1188  0.1037 -0.0499
 7306W        W20720   7.094  13.958  11.500 -0.2464  0.0013 -0.2849
 7307W        W20721   4.537   2.820  13.348 -0.0712  0.1185 -0.4580
 7308W        W20722   4.581   5.942   2.737 -0.1193 -0.0191  0.2861
 7309W        W20723   6.030   1.153   0.706 -0.3494 -0.0176  0.1358
 7310W        W20724  11.347  11.553   1.848  0.0185  0.1280  0.2032
 7311W        W20725   4.990   8.260  14.566 -0.0289  0.2217 -0.1258
 7312W        W20726   6.353  14.942  12.859 -0.3154 -0.0195  0.3190
 7313W        W20727  13.601   2.459   4.852 -0.1299 -0.2023  0.0797
 7314W        W20728  17.272  13.224   1.071 -0.0884 -0.0953 -0.0952
 7315W        W20729  15.196   5.288   5.200  0.1632 -0.1288  0.0337
 7316W        W20730   2.655  10.953   0.720 -0.2574  0.2537  0.1247
 7317W        W20731   6.744  15.386   2.272  0.1844  0.0646  0.0155
 7318W        W20732   9.465  16.327   5.369 -0.0550 -0.0237  0.1769
 7319W        W20733   4.448   7.180   6.685 -0.1022 -0.2688  0.2447
 7320W        W20734  12.796  16.276  15.874 -0.3371  0.2987  0.1141
 7321W        W20735  15.517   7.942   5.040 -0.1161 -0.4018 -0.2991
 7322W        W20736   7.112  12.300   3.944  0.0610  0.2542 -0.1035
 7323W        W20737   5.115   3.093  12.551  0.0339 -0.1978 -0.0707
 7324W        W20738  11.179  11.073   3.753 -0.0941  0.1961 -0.2690
 7325W        W20739  13.842  14.490   5.619  0.1421  0.0246  0.2332
 7326W        W20740   9.749  16.347   4.644  0.2158 -0.3470  0.3638
 7327W        W20741   4.682   0.687   0.309 -0.0029  0.1797 -0.0008
 7328W        W20742   8.549   8.997   4.748  0.0499  0.2434  0.0020
 7329W        W20743   2.624   8.881  14.180 -0.0379  0.2648  0.0463
 7330W        W20744  15.693  10.136  15.463  0.2691 -0.1594 -0.1205
 7331W        W20745   0.668   4.272   0.422  0.2568  0.3376  0.1546
 7332W        W20746  11.601  13.842  11.879 -0.0935  0.0601 -0.1282
 7333W        W20747   2.835   0.122   3.573  0.0608  0.3189  0.0349
 7334W        W20748   6.052  15.019   0.987 -0.0611  0.4201 -0.1851
 7335W        W20749   3.885   8.996  14.280  0.0486 -0.2158  0.3248
 7336W        W20750   5.016   9.358   5.393  0.1498 -0.2018  0.2173
 7337W        W20751   7.971  17.486   5.307  0.2229  0.1897 -0.0549
 7338W        W20752   2.427   5.863  11.859  0.0789 -0.0182 -0.2895
 7339W        W20753   9.440  10.816   3.546  0.1796  0.0033  0.1044
 7340W        W20754  12.355   2.773   5.826 -0.0634 -0.0362 -0.1670
 7341W        W20755  14.402  16.334   3.928  0.0617  0.1593 -0.0484
 7342W        W20756   4.772   4.467  12.505 -0.0385  0.0805  0.1232
 7343W        W20757   9.565   3.698   0.136  0.1046  0.1137 -0.0696
 7344W        W20758  15.160  11.091  16.067  0.1602  0.0677  0.1064
 7345W        W20759  17.581  11.473  12.951  0.0866  0.0784  0.0224
 7346W        W20760   7.487   8.296  15.981 -0.0577 -0.2131 -0.0165
 7347W        W20761   0.722  10.613   4.708  0.0965 -0.1384 -0.0422
 7348W        W20762  10.915   1.242  10.852  0.1630 -0.1712 -0.2623
 7349W        W20763  11.517  14.073   5.114 -0.2655  0.0209 -0.0777
 7350W        W20764  17.781  14.001  14.892  0.0641  0.0085  0.4540
 7351W        W20765   1.675  13.203   4.839 -0.5233  0.1006 -0.2578
 7352W        W20766  14.192  16.534   2.267 -0.1161  0.2772 -0.0109
 7353W        W20767   5.633  10.965  13.387  0.4464 -0.2722 -0.0327
 7354W        W20768   6.765   6.236   1.120 -0.2469 -0.0162  0.2120
 7355W        W20769  14.144   4.466  12.087 -0.0398 -0.4507 -0.1688
 7356W        W20770   2.181   6.276  11.708  0.0202 -0.0693  0.1118
 7357W        W20771   7.530  11.269   3.838  0.0921  0.2885 -0.2931
 7358W        W20772  17.043  10.589   0.748  0.0504 -0.0596  0.0019
 7359W        W20773   1.695  13.001   2.167  0.1246  0.0306 -0.1254
 7360W        W20774  10.098   6.103  12.966  0.0254  0.0976 -0.0179
 7361W        W20775   5.734  13.651  12.054 -0.3469  0.1975 -0.0370
 7362W        W20776  12.024   6.439   4.135 -0.0460  0.1971  0.1245
 7363W        W20777  11.730   8.934  14.106  0.1125 -0.0547 -0.1592
 7364W        W20778   5.829  13.666  14.557  0.1230 -0.2279  0.2452
 7365W        W20779   3.885   3.966  10.750  0.0125  0.0011  0.0241
 7366W        W20780   8.932  10.046   5.703  0.0654  0.0772  0.1167
 7367W        W20781  10.234   1.595   0.099  0.0805 -0.1596  0.2974
 7368W        W20782   0.550   2.194  15.849 -0.0012  0.1457 -0.4611
 7369W        W20783   9.381   2.406   0.065 -0.2883  0.1571  0.0272
 7370W        W20784   5.054  16.823   0.374  0.0768 -0.2180  0.4183
 7371W        W20785   0.585   6.418   4.444 -0.0960 -0.0500 -0.0123
 7372W        W20786   9.524  11.775   6.431  0.0480  0.3511  0.1017
 7373W        W20787   8.079  16.019   0.036  0.2147 -0.1700 -0.2216
 7374W        W20788   9.205   8.204   0.829 -0.2052  0.2625 -0.0474
 7375W        W20789  12.947  10.705  14.850 -0.0547  0.2685 -0.3266
 7376W        W20790   1.856   1.177  13.709 -0.0756 -0.0435 -0.2064
 7377W        W20791   0.965  15.578   5.314  0.2403  0.3971 -0.2492
 7378W        W20792   5.472   3.353   3.095  0.1218  0.0295  0.1313
 7379W        W20793  16.933   1.316  12.250 -0.1972 -0.1089 -0.1110
 7380W        W20794  15.580  16.296  15.337  0.1472 -0.3421 -0.0154
 7381W        W20795   7.123  15.240   1.346  0.2661 -0.1315  0.2827
 7382W        W20796   4.662  11.144  12.009  0.1419  0.1914 -0.1621
 7383W        W20797  15.198  11.447   4.064  0.1677  0.3226  0.1503
 7384W        W20798  17.457   9.253   6.584 -0.1113 -0.0465  0.2328
 7385W        W20799   1.255   1.442   2.389  0.0633 -0.1098 -0.2126
 7386W        W20800  17.392  12.620   4.625 -0.1390  0.0367  0.0239
 7387W        W20801  15.939  12.420   0.563  0.0100 -0.2710  0.2072
 7388W        W20802  13.592  13.811   2.419 -0.0948 -0.1878 -0.1262
 7389W        W20803   4.344  15.046  15.591  0.1855 -0.3640 -0.0966
 7390W        W20804  15.173   2.914   5.225 -0.0224 -0.1143  0.4632
 7391W        W20805   5.966  17.357   3.205  0.0001  0.1054 -0.1662
 7392W        W20806   0.189  12.225   3.432  0.2583 -0.0366  0.1445
 7393W        W20807   2.663  17.558  10.275  0.0929 -0.2196 -0.1091
 7394W        W20808  15.759   4.324   2.716 -0.0328  0.2742  0.2767
 7395W        W20809   8.298   2.893  11.498  0.1271  0.0133 -0.0579
 7396W        W20810   5.932   4.987   0.854 -0.1183 -0.3508 -0.2786
 7397W        W20811   8.449   1.534  13.314 -0.0617  0.0335 -0.2942
 7398W        W20812   3.710   6.016  13.656  0.0715  0.0971  0.1486
 7399W        W20813  10.925   3.536  14.292 -0.0643 -0.0460  0.2353
 7400W        W20814   2.230  16.188  15.425 -0.0958  0.1645  0.0079
 7401W        W20815  10.543  12.463  15.202  0.0270 -0.2786  0.3433
 7402W        W20816  18.008   1.560   1.040  0.0818  0.0601  0.0215
 7403W        W20817   3.881   8.446   4.613  0.1711  0.2145  0.0920
 7404W        W20818  10.699  13.821   0.311 -0.1390 -0.0614  0.1340
 7405W        W20819   6.836   2.004   5.038 -0.2832  0.1637 -0.0502
 7406W        W20820   4.050  17.379  16.255 -0.1765 -0.1678  0.1261
 7407W        W20821  17.782  11.724  10.620  0.0053  0.0637  0.1590
 7408W        W20822   4.746   0.784  11.102  0.1493 -0.0869  0.2070
 7409W        W20823  16.300   0.025   5.128  0.0806 -0.1972 -0.3741
 7410W        W20824   8.269   8.030  12.652 -0.0232 -0.0652  0.0527
 7411W        W20825  15.799  16.857  11.751 -0.2034 -0.0590  0.0579
 7412W        W20826  12.251   6.227   5.767  0.0694 -0.2600  0.1153
 7413W        W20827   6.474   6.196   3.217  0.0483 -0.1020 -0.1912
 7414W        W20828   0.861  15.274   0.717  0.0631  0.1402 -0.1281
 7415W        W20829  13.668  15.788  12.007 -0.2031  0.1986  0.0154
 7416W        W20830  17.364   5.432   5.954 -0.2590 -0.1430 -0.0983
 7417W        W20831   2.769   8.963  12.104 -0.0805  0.3823 -0.5972
 7418W        W20832  16.204  17.255  12.600  0.2524  0.3734 -0.0459
 7419W        W20833  14.810   9.728   4.768 -0.4268  0.2458  0.2066
 7420W        W20834   0.847  16.797   1.552  0.4724  0.1508  0.2745
 7421W        W20835   7.217  16.072  14.177  0.1163 -0.0822  0.0799
 7422W        W20836  17.088   6.973   3.576 -0.2540 -0.1014 -0.0910
 7423W        W20837  10.356  12.097   0.550 -0.1302  0.0839 -0.0068
 7424W        W20838   0.387  16.799  12.362 -0.1867 -0.0438 -0.1609
 7425W        W20839  11.159   9.324  10.524  0.0543  0.1296 -0.0548
 7426W        W20840  13.327   6.963   0.545  0.4212  0.1506 -0.1115
 7427W        W20841   3.338  15.544   1.631 -0.0985  0.0476  0.1318
 7428W        W20842   2.228   9.522   4.093 -0.0411  0.1142  0.1536
 7429W        W20843  14.047   8.697  16.182  0.2221  0.0951 -0.0801
 7430W        W20844  13.383   5.070   4.231 -0.2546 -0.3151  0.2022
 7431W        W20845   2.080  15.638  11.832 -0.0599  0.0100  0.0298
 7432W        W20846  15.060  14.328  11.013 -0.2115 -0.0104  0.0521
 7433W        W20847  17.307  14.492   5.114  0.2225  0.4130 -0.1505
 7434W        W20848  10.543   8.197   1.256 -0.2406  0.2435  0.0211
 7435W        W20849  12.115  14.982   3.935  0.1765 -0.0590  0.0468
 7436W        W20850   4.190   3.641  14.967  0.1621  0.3433 -0.4525
 7437W        W20851   6.390   8.836  14.690  0.2840  0.2762 -0.0450
 7438W        W20852  17.302   6.888  13.387 -0.4677  0.1234  0.0623
 7439W        W20853  12.053   4.362   0.621 -0.1803  0.2441 -0.1753
 7440W        W20854  15.334   8.138   2.678  0.1436 -0.0534  0.0119
 7441W        W20855   4.892   3.898  12.051 -0.0159 -0.0066 -0.1054
 7442W        W20856   5.758   0.405   9.713  0.2974 -0.1447 -0.1253
 7443W        W20857  11.054   5.680  13.483 -0.1141  0.1795  0.1453
 7444W        W20858  13.622   2.471   3.236  0.2726 -0.2531  0.0016
 7445W        W20859  14.356   3.837   3.124 -0.2917  0.1043  0.1529
 7446W        W20860  15.833   6.325   5.867 -0.1143  0.2096  0.2794
 7447W        W20861  12.155   5.914  12.389  0.1493 -0.0516  0.0443
 7448W        W20862   9.876   2.690   2.988  0.2656  0.0859  0.0747
 7449W        W20863   9.514   8.457   6.186 -0.1894 -0.1901 -0.4675
 7450W        W20864  15.306   2.625   0.585 -0.0359  0.2803 -0.0659
 7451W        W20865   5.146   9.422   6.165  0.0865  0.1732  0.2014
 7452W        W20866  14.985  16.594   3.402 -0.1963  0.0693 -0.0773
 7453W        W20867   3.456  15.063   0.776  0.0444  0.0878  0.2231
 7454W        W20868  12.980  15.061   2.767 -0.2912  0.2510  0.1338
 7455W        W20869   5.393   0.040  11.983  0.0647  0.2035 -0.4356
 7456W        W20870  10.929   1.273  16.317 -0.2973 -0.0923 -0.0326
 7457W        W20871  15.320   4.102   5.221 -0.1126  0.0056 -0.0986
 7458W        W20872   1.862  14.664  10.559 -0.0793  0.1230 -0.0240
 7459W        W20873   3.405  13.343   5.664  0.0908 -0.2040 -0.1677
 7460W        W20874   9.071  15.339   3.430  0.3861 -0.1856 -0.1785
 7461W        W20875  17.808   4.822  13.077 -0.1509  0.1100 -0.2173
 7462W        W20876   4.532   0.413   1.755 -0.0181  0.1149  0.0413
 7463W        W20877  17.781  14.116   4.278  0.2182  0.1360 -0.0544
 7464W        W20878   3.817   3.956   3.934  0.0501  0.1387 -0.3351
 7465W        W20879  17.694  13.893   0.057 -0.2192 -0.0090 -0.0184
 7466W        W20880   4.905   0.197   3.300  0.1661 -0.0597 -0.0341
 7467W        W20881  14.838  13.370   0.414  0.1230  0.0680  0.3579
 7468W        W20882   3.580  15.556  14.629 -0.1554 -0.3207  0.1247
 7469W        W20883  17.967   5.600  12.447 -0.3241 -0.1746  0.1095
 7470W        W20884  15.855   9.350  11.473 -0.3389 -0.0297 -0.0568
 7471W        W20885  17.648  10.598  12.635 -0.3296 -0.1134  0.1125
 7472W        W20886   0.772  12.293  12.695  0.2920  0.1831 -0.1471
 7473W        W20887   6.919   3.631   9.868 -0.2416 -0.2077  0.0259
 7474W        W20888   8.365   1.927  12.547  0.0220 -0.0308 -0.0184
 7475W        W20889   3.862   9.139   0.464 -0.1284 -0.0259 -0.3236
 7476W        W20890  15.653   6.997  13.331  0.2407 -0.0208  0.1145
 7477W        W20891   6.445  14.486  12.984 -0.5242 -0.0336 -0.0108
 7478W        W20892   3.876   1.403  11.768  0.0448 -0.0116  0.2022
 7479W        W20893  17.226   1.677  12.408 -0.1771 -0.1524 -0.5523
 7480W        W20894   9.695  17.894   2.285 -0.0693  0.2649  0.1124
 7481W        W20895  10.657  16.939  14.611  0.0753  0.1323  0.1597
 7482W        W20896   5.348   6.793  16.339 -0.0113 -0.2223  0.0232
 7483W        W20897  11.682   0.272  12.625 -0.0452 -0.0058  0.1409
 7484W        W20898  12.321  17.907  15.342  0.1050  0.0722  0.1349
 7485W        W20899  10.451   0.948   3.751 -0.1338 -0.0975  0.4558
 7486W        W20900   0.582   2.547   4.493 -0.1249 -0.0336 -0.0789
 7487W        W20901  17.765   9.597   1.890 -0.0364  0.3450  0.0221
 7488W        W20902  15.209  15.743   2.037  0.0886 -0.0540  0.1042
 7489W        W20903  12.529  11.419   1.073  0.2622 -0.0643  0.0039
 7490W        W20904   0.059   5.882  11.889 -0.0102  0.3080 -0.0552
 7491W        W20905   6.075  13.612  15.551  0.2643 -0.1284 -0.0088
 7492W        W20906  10.892   3.367   4.932  0.0396  0.1765 -0.1490
 7493W        W20907   6.010  14.235   3.507  0.2404  0.0372 -0.2356
 7494W        W20908  17.788  15.345  16.365 -0.0614  0.1871  0.3592
 7495W        W20909  16.033   0.432  12.136 -0.0006  0.0136 -0.0710
 7496W        W20910  17.378   2.728   0.339  0.0516  0.1969  0.0082
 7497W        W20911   6.422  16.623   2.679 -0.0526 -0.2169 -0.2927
 7498W        W20912   7.481   2.403   0.923  0.0520  0.3451  0.0830
 7499W        W20913  15.994   6.825  14.937 -0.0719 -0.1669 -0.0287
 7500W        W20914   1.868   7.086   1.589  0.1690 -0.0509 -0.2178
 7501W        W20915   6.591   9.579  10.925 -0.3732 -0.0360 -0.0400
 7502W        W20916   2.934   0.174  13.694 -0.0437  0.0027 -0.0982
 7503W        W20917  16.133   4.220  15.250  0.3704  0.0826  0.1900
 7504W        W20918   6.002   7.741   6.046  0.0184 -0.0981  0.0135
 7505W        W20919  16.968   7.689  13.206 -0.3117  0.0717 -0.1855
 7506W        W20920   2.823  11.371   2.785 -0.2212  0.0889  0.0294
 7507W        W20921  17.391   3.597  15.098 -0.3210 -0.0065  0.0675
 7508W        W20922  13.696   2.109  12.474 -0.0834  0.0882 -0.2053
 7509W        W20923   8.751  14.462  12.200  0.0725  0.0974  0.0848
 7510W        W20924  13.676  12.384   0.500 -0.1887 -0.1592 -0.2272
 7511W        W20925  11.348  12.382  13.427  0.0861 -0.2516 -0.0339
 7512W        W20926  12.748   5.296  12.965 -0.0354 -0.0416 -0.2455
 7513W        W20927   7.944   3.881  12.136  0.1346 -0.0645 -0.1108
 7514W        W20928  15.668   0.606  15.356  0.1823 -0.2175 -0.2644
 7515W        W20929   0.769   3.265  15.833 -0.0810 -0.1696  0.2774
 7516W        W20930  15.178  16.640  15.282 -0.1596  0.1600 -0.0346
 7517W        W20931  10.895  15.827  13.124  0.0357  0.1215 -0.0881
 7518W        W20932  17.142  14.595   0.626 -0.0618 -0.2086 -0.0736
 7519W        W20933   4.420   5.062  10.982 -0.1809  0.1778  0.1261
 7520W        W20934   1.687   6.810   6.004 -0.0984 -0.3538  0.0273
 7521W        W20935  14.594  12.833   4.275 -0.1159  0.0556 -0.1041
 7522W        W20936   2.644  15.301   3.407  0.0479  0.0463  0.1675
 7523W        W20937   3.348  12.979  15.345  0.1023  0.2563  0.2268
 7524W        W20938  15.333  14.317   0.979  0.2759 -0.3089  0.0852
 7525W        W20939  16.809   2.170   4.278 -0.2816  0.0535  0.1899
 7526W        W20940   5.387   5.177  11.870 -0.2507  0.5340 -0.0380
 7527W        W20941   0.604  11.968  16.126 -0.0827 -0.2520 -0.2681
 7528W        W20942   0.855  16.489  14.156 -0.1610  0.2734 -0.0347
 7529W        W20943  13.389  10.344  12.756 -0.1309 -0.3120  0.2666
 7530W        W20944  13.617   4.029  13.632  0.0112 -0.1105  0.3178
 7531W        W20945  14.926   6.648  14.495 -0.0513 -0.1374 -0.1028
 7532W        W20946  15.405  16.488   3.634  0.3111 -0.1635 -0.2228
 7533W        W20947   2.745   3.651  15.078 -0.0435  0.1747 -0.2168
 7534W        W20948   6.429   2.077   3.211 -0.0158 -0.2546 -0.0723
 7535W        W20949   8.471   9.558   2.087  0.0798  0.0626  0.0549
 7536W        W20950   7.301  17.779   3.687  0.0007 -0.2457 -0.4229
 7537W        W20951   0.367  11.207   4.017  0.1138 -0.0115  0.2986
 7538W        W20952   6.718   6.762   0.539 -0.1149 -0.1540 -0.1142
 7539W        W20953  15.633   2.359   2.335  0.1950  0.0134 -0.1697
 7540W        W20954   1.062   8.309  10.973 -0.4504  0.2870 -0.1135
 7541W        W20955   2.509  12.829  12.125 -0.1436  0.2614  0.0236
 7542W        W20956  14.743  16.001  15.801  0.0951  0.1316 -0.2024
 7543W        W20957   5.636  11.561   0.407  0.0041  0.1027 -0.1538
 7544W        W20958   7.488   0.303  12.355  0.0667  0.1741 -0.1342
 7545W        W20959   4.683   8.044   0.385 -0.1207 -0.1016  0.1303
 7546W        W20960  11.653  17.246   5.985 -0.1855 -0.2026  0.0499
 7547W        W20961  10.075  12.456  12.850 -0.0811  0.1704 -0.1227
 7548W        W20962   6.398  16.447  15.486 -0.2408 -0.0395  0.0680
 7549W        W20963   8.596  13.706   1.944 -0.1391  0.0425 -0.0446
 7550W        W20964   1.455   2.363  11.087  0.1364 -0.1384  0.0309
 7551W        W20965   7.126  14.110   1.487  0.1741  0.0765 -0.0825
 7552W        W20966  13.289  13.024  16.291  0.3216  0.3086  0.1515
 7553W        W20967  15.052  15.976   4.445 -0.0214 -0.0444 -0.2888
 7554W        W20968  13.402   0.190  13.730 -0.2372 -0.1309 -0.1899
 7555W        W20969   1.647   8.177  16.119 -0.0432  0.0452  0.2210
 7556W        W20970   6.852   5.194  11.727  0.2584 -0.0161 -0.0746
 7557W        W20971  14.814   0.949  13.296  0.1802  0.1593  0.0303
 7558W        W20972   9.447  16.744   5.129  0.1548 -0.2671 -0.1017
 7559W        W20973  14.961   8.055  12.468 -0.1653  0.0319  0.0175
 7560W        W20974  14.406  11.886   6.056  0.1077  0.0002 -0.0257
 7561W        W20975  17.170   8.866  14.989  0.0984  0.2224 -0.0075
 7562W        W20976  17.788   4.043   3.255  0.0528  0.2356 -0.2673
 7563W        W20977  14.065   0.721  13.663 -0.2674 -0.2693  0.1216
 7564W        W20978  15.178   7.985   0.489  0.1907  0.0110  0.1769
 7565W        W20979   1.581  17.400  15.601  0.3708 -0.0043 -0.1803
 7566W        W20980  16.458  15.252   1.627  0.0309  0.1818 -0.0847
 7567W        W20981   9.907   2.794  13.492 -0.1577 -0.2932  0.2118
 7568W        W20982  12.765  17.098  13.781  0.0187  0.0514 -0.1547
 7569W        W20983   0.229   9.745   6.453  0.1880  0.2132  0.0453
 7570W        W20984   3.896   0.902   5.597 -0.2594  0.0134  0.0820
 7571W        W20985  17.963   9.928   0.458 -0.3026 -0.0518 -0.0047
 7572W        W20986  15.824   8.034  12.709  0.1643 -0.0380 -0.2531
 7573W        W20987  17.240   8.257   5.160 -0.3663 -0.2738 -0.1506
 7574W        W20988   2.826  16.715   1.241 -0.0347  0.0611  0.1264
 7575W        W20989  12.644  15.481  13.990 -0.0563 -0.0530 -0.1418
 7576W        W20990   6.917  15.229   5.120  0.1589  0.1228 -0.0692
 7577W        W20991  14.741   4.252  10.855  0.2283  0.0201 -0.2038
 7578W        W20992   9.692   8.789   2.125 -0.3657  0.1721  0.1938
 7579W        W20993   9.313   1.356  13.344  0.1393 -0.0491 -0.2602
 7580W        W20994  12.018  18.048   0.345  0.0990 -0.1358 -0.2685
 7581W        W20995  16.791  16.376   3.314  0.2936  0.0102  0.2219
 7582W        W20996  16.923  10.046  14.161 -0.1958 -0.3377  0.2012
 7583W        W20997   9.497  17.297   4.409 -0.0851 -0.2423 -0.1282
 7584W        W20998  10.384  16.831   0.810 -0.1136  0.3244 -0.0959
 7585W        W20999  11.634   8.723   2.764  0.1869  0.2514 -0.0170
 7586W        W21000   2.521   7.768   4.282  0.3222  0.1759 -0.2465
 7587W        W21001   8.214   0.961   0.612 -0.0196  0.1839  0.1521
 7588W        W21002   5.500   1.864   1.092  0.0751  0.0851  0.1192
 7589W        W21003   9.641   0.069   0.453  0.0774 -0.2436 -0.0829
 7590W        W21004   2.965  10.218  14.444 -0.1509  0.0576  0.1361
 7591W        W21005   4.896  15.536   5.145  0.0307 -0.0468 -0.0141
 7592W        W21006   6.569   2.840   5.713 -0.1287  0.1782  0.1879
 7593W        W21007   8.946  13.552  11.927 -0.1294  0.0079  0.0498
 7594W        W21008   7.127   7.671   1.548  0.1185 -0.2971  0.5868
 7595W        W21009   0.646  12.588  12.195 -0.0539  0.0955 -0.1419
 7596W        W21010   4.385   6.659   6.231  0.0301 -0.1338  0.4019
 7597W        W21011  14.984   3.476   3.539 -0.0471 -0.0432 -0.1632
 7598W        W21012  13.135   2.929  13.230 -0.1166 -0.1233  0.2315
 7599W        W21013  16.902  16.437  15.134 -0.0524 -0.2576 -0.0053
 7600W        W21014  11.727   8.249   4.024  0.3196 -0.1255  0.1094
 7601W        W21015  10.113  15.355   1.718  0.0872  0.1884  0.2390
 7602W        W21016  10.557   0.636   2.899 -0.0015  0.0915  0.1504
 7603W        W21017  14.347  16.641   1.700 -0.2882 -0.0348  0.1677
 7604W        W21018   3.865   8.332  11.317  0.0264 -0.1935  0.0261
 7605W        W21019   7.920   5.639   5.420  0.1211 -0.2140 -0.0097
 7606W        W21020   6.251   7.286   4.948  0.2473  0.0362 -0.1550
 7607W        W21021  17.183   1.073   0.045 -0.0515 -0.1731 -0.0989
 7608W        W21022   2.398  11.970  13.287  0.0148  0.0205  0.0589
 7609W        W21023   7.461   0.911  14.985  0.0104 -0.3242  0.0365
 7610W        W21024   6.593   6.501  13.203  0.0737 -0.1458  0.2199
 7611W        W21025   7.334   2.188  12.818 -0.1364 -0.4029  0.1989
 7612W        W21026   4.696   6.768  11.912 -0.0084 -0.1919  0.0614
 7613W        W21027   0.315  15.983  15.216 -0.0833  0.0272  0.0973
 7614W        W21028  11.855  14.782  16.288  0.0419  0.2325 -0.0851
 7615W        W21029   1.604  16.359  13.774  0.3796  0.1764 -0.0782
 7616W        W21030   6.053  13.041  14.856 -0.3703 -0.0615  0.2395
 7617W        W21031  10.826   8.968  13.620  0.0381 -0.0211 -0.0569
 7618W        W21032  17.436  11.044  13.196 -0.2467 -0.0753 -0.0263
 7619W        W21033  10.663  14.217   4.960  0.0407  0.3293 -0.0737
 7620W        W21034  16.296  10.861  11.130  0.0816  0.0210  0.2510
 7621W        W21035   4.872   6.316  12.312 -0.3549  0.0120  0.0926
 7622W        W21036   4.973   6.598   3.472 -0.1033 -0.1943 -0.0525
 7623W        W21037   1.159   5.182   2.102 -0.2770 -0.2521 -0.0254
 7624W        W21038   8.282   5.755   0.134 -0.0770  0.1274 -0.1809
 7625W        W21039  12.212   8.366  11.999 -0.1124 -0.3095  0.2182
 7626W        W21040   3.682  10.139   4.706 -0.1735 -0.6951  0.3283
 7627W        W21041  15.669  11.916  12.434  0.0509  0.0650 -0.0997
 7628W        W21042   0.496   5.236  12.929 -0.2228 -0.4372 -0.1505
 7629W        W21043  13.509   9.599  14.547 -0.3796 -0.2448  0.0492
 7630W        W21044   2.506  13.819   1.352 -0.1488 -0.1481 -0.0171
 7631W        W21045  17.913   4.130  15.681  0.0611  0.1453  0.0451
 7632W        W21046   2.335   7.707   4.776  0.0965 -0.0684  0.1918
 7633W        W21047  10.394   0.698  13.524 -0.0989 -0.1475  0.0520
 7634W        W21048   0.060  11.453  15.716 -0.2881 -0.2650  0.2065
 7635W        W21049  16.869   0.062  16.317  0.2807 -0.0500 -0.1658
 7636W        W21050  14.609  13.672   0.025 -0.0082 -0.3674 -0.1078
 7637W        W21051  13.023  16.102   1.940  0.1663 -0.1085  0.1171
 7638W        W21052   7.389  17.377  13.479  0.0382  0.2654 -0.1270
 7639W        W21053  17.894   9.527  13.213 -0.2006 -0.0209 -0.1807
 7640W        W21054   5.035   7.953  16.386 -0.3335 -0.2690 -0.0529
 7641W        W21055  16.427  11.302  12.106  0.1157 -0.0958 -0.1945
 7642W        W21056   8.083  10.208  11.662 -0.1248  0.2069 -0.0727
 7643W        W21057  10.076   2.286  14.134 -0.0315 -0.0131 -0.1181
 7644W        W21058  16.043   1.175  10.837  0.0248 -0.0099 -0.0310
 7645W        W21059   5.188  11.089  11.654 -0.2115 -0.1148  0.1971
 7646W        W21060   7.740  16.292   3.183 -0.0492  0.0238  0.0068
 7647W        W21061  17.392   4.790   2.753  0.0188  0.1269 -0.0788
 7648W        W21062  11.449  15.388   5.933 -0.3357 -0.1631 -0.1108
 7649W        W21063  13.172   6.735   5.125  0.0058 -0.2758  0.0325
 7650W        W21064  15.297   5.681   4.894 -0.1301  0.1017  0.0668
 7651W        W21065   4.293   7.305  14.067 -0.1765  0.2730  0.0651
 7652W        W21066   8.316   5.988  16.148 -0.0107 -0.1211 -0.1413
 7653W        W21067   3.094  13.862  11.109 -0.0341  0.2008 -0.1335
 7654W        W21068   7.914   0.118   1.432  0.0720 -0.2322 -0.1464
 7655W        W21069  15.990   4.980   0.846  0.2312  0.1806  0.2733
 7656W        W21070   2.635   1.556   0.326  0.1753  0.1160  0.4136
 7657W        W21071   8.176  13.847  11.648  0.0164  0.3410  0.2180
 7658W        W21072   9.709   7.452   4.033 -0.3927  0.1483  0.1556
 7659W        W21073   2.096  17.842  16.214 -0.0117 -0.0529  0.2183
 7660W        W21074  13.451   6.409  12.388  0.2308 -0.0528 -0.2635
 7661W        W21075   9.209   8.100  10.678  0.1136  0.3236 -0.0301
 7662W        W21076   3.294  16.971  10.388 -0.1319  0.2658 -0.0617
 7663W        W21077  13.756   9.987   3.084  0.2142  0.0834 -0.1520
 7664W        W21078  16.099  10.711  10.601  0.2970  0.0015 -0.3306
 7665W        W21079   3.405  12.381  10.431 -0.2717 -0.1464  0.2552
 7666W        W21080   8.386  17.686   3.957 -0.1082 -0.1602 -0.1370
 7667W        W21081  15.269   0.330  14.417  0.0400  0.3049  0.0577
 7668W        W21082   5.314   0.335   2.959 -0.0230  0.0792 -0.2747
 7669W        W21083   8.376  11.058   4.998  0.2190 -0.2790  0.0008
 7670W        W21084  12.815  15.488   2.481  0.0850  0.0196 -0.2045
 7671W        W21085   1.560   6.613   3.642  0.3701 -0.2557 -0.1423
 7672W        W21086   9.707  10.733   4.476 -0.0023  0.2395  0.2826
 7673W        W21087   2.042  17.121   0.776  0.1038  0.0062 -0.4169
 7674W        W21088  17.115  14.645  10.329 -0.1046  0.0082 -0.5350
 7675W        W21089  15.392  10.773   2.336 -0.3758 -0.0666 -0.0611
 7676W        W21090   1.538  13.067  16.472 -0.0268 -0.1702 -0.3548
 7677W        W21091   3.429  13.682   0.976 -0.0658  0.2290  0.0191
 7678W        W21092  13.683   8.359  16.276  0.2524  0.1687 -0.0499
 7679W        W21093   2.384   5.544  14.220 -0.0324  0.1141  0.2093
 7680W        W21094  17.575  17.269  14.888 -0.0188  0.3352  0.0320
 7681W        W21095  12.894  14.348  10.840  0.4062  0.3968  0.0638
 7682W        W21096  12.625   7.994   0.319  0.2186 -0.1018 -0.1448
 7683W        W21097   4.499   7.935  15.604 -0.0583  0.1923  0.0718
 7684W        W21098   3.257   2.028  10.856  0.1717  0.1896  0.2028
 7685W        W21099   6.167  12.177  13.586 -0.1185  0.2089  0.4037
 7686W        W21100  13.577   1.573   3.643  0.3614 -0.0740 -0.1821
 7687W        W21101  11.189  12.536   3.700  0.0767 -0.0456 -0.0150
 7688W        W21102  18.013   8.026   3.900 -0.5029 -0.1903 -0.2521
 7689W        W21103  15.407  14.113  14.890  0.4485  0.0525 -0.1951
 7690W        W21104  10.726   9.842   5.098 -0.2823  0.3429 -0.0556
 7691W        W21105   3.501  14.499   0.831 -0.0016  0.0552 -0.1588
 7692W        W21106  12.146   8.315   1.573 -0.4046  0.1386 -0.0027
 7693W        W21107   7.532   4.699   2.171 -0.2716  0.0404 -0.0937
 7694W        W21108   4.164   1.526   0.201 -0.1510 -0.3170  0.0492
 7695W        W21109  14.535   5.239  10.464 -0.3508 -0.0638 -0.1701
 7696W        W21110  11.044   2.733  12.586 -0.0486  0.0814  0.0399
 7697W        W21111  10.405  12.095  15.602 -0.4085  0.0712 -0.2257
 7698W        W21112  15.451  13.835  11.186  0.1654  0.1229  0.2080
 7699W        W21113   5.939   8.668  15.862  0.1725 -0.0902  0.0092
 7700W        W21114  16.558   2.765  16.375 -0.0066 -0.1035  0.3672
 7701W        W21115  10.669  17.913  10.887 -0.1829 -0.1087 -0.4030
 7702W        W21116   3.789  12.672   4.522  0.2260  0.0800 -0.3579
 7703W        W21117  17.438   2.443  15.862  0.1380 -0.1184 -0.1584
 7704W        W21118   7.148   6.620  12.387 -0.0935  0.0388 -0.0680
 7705W        W21119   7.648   8.853  12.534  0.2214 -0.4261 -0.1787
 7706W        W21120  12.322  14.224   2.119  0.3048 -0.1071  0.0406
 7707W        W21121  17.656  17.285   2.739 -0.2192  0.0452 -0.1443
 7708W        W21122  11.367  11.248   0.285  0.1605 -0.1637 -0.1257
 7709W        W21123   2.903  12.239   5.258 -0.3178  0.0598 -0.0678
 7710W        W21124  13.919  10.481  13.045  0.1806 -0.1271 -0.0341
 7711W        W21125   2.683   5.217   0.647  0.1956  0.4548 -0.1310
 7712W        W21126  16.298  15.814  12.293  0.2119  0.0208  0.0902
 7713W        W21127   2.852  11.443   4.952 -0.1234 -0.1390  0.0475
 7714W        W21128  17.269   0.698   3.174  0.0341 -0.2342  0.0484
 7715W        W21129  16.297  13.766   3.054 -0.0822  0.0421 -0.0498
 7716W        W21130  15.553  10.990  12.374  0.1921  0.0058  0.0130
 7717W        W21131   5.206   1.758  10.757  0.0694 -0.0340 -0.3900
 7718W        W21132   8.053  15.605  12.130 -0.4167 -0.1175  0.0558
 7719W        W21133   1.487  12.422   2.939  0.0281  0.2242  0.3301
 7720W        W21134   5.162   9.738   1.207  0.3159 -0.0567 -0.1776
 7721W        W21135  14.304   9.209  11.608 -0.2412  0.3557 -0.0238
 7722W        W21136  15.632  16.248  14.054 -0.1063 -0.1648 -0.1478
 7723W        W21137   2.873   2.564  15.403 -0.3411  0.0041  0.1396
 7724W        W21138  15.158   3.013  11.683 -0.0333 -0.0498 -0.0513
 7725W        W21139   4.365  10.727  15.599  0.2340  0.0703 -0.1982
 7726W        W21140  13.141  14.557  11.501 -0.4109 -0.3156 -0.0564
 7727W        W21141   3.287  13.164   2.174 -0.0629 -0.2646  0.0738
 7728W        W21142  15.699   5.179   0.011 -0.1359  0.1691  0.1621
 7729W        W21143  11.225  16.148  16.326  0.1176 -0.0555  0.0739
 7730W        W21144   2.534   4.507  14.551 -0.3152 -0.2347  0.2411
 7731W        W21145   0.019  17.499   2.569 -0.1981 -0.2738  0.1247
 7732W        W21146   6.154   6.769  15.803  0.3061 -0.0590  0.4077
 7733W        W21147   4.308  15.485  10.128  0.1957 -0.0326  0.0961
 7734W        W21148   6.603   8.481  16.309 -0.0691 -0.1258  0.3085
 7735W        W21149  16.322   0.369   0.576  0.1729 -0.0695 -0.2134
 7736W        W21150  15.051   3.678   1.314  0.0610 -0.2116 -0.1469
 7737W        W21151   3.655  11.721  16.377  0.4574  0.3440  0.2852
 7738W        W21152   1.655   9.710   2.499  0.0621  0.2296  0.4130
 7739W        W21153   7.286   0.021   2.732  0.4485 -0.1775 -0.0708
 7740W        W21154  16.986  11.450  12.047  0.2054 -0.0526 -0.1458
 7741W        W21155   0.245   8.346   4.860 -0.0794 -0.0677  0.2863
 7742W        W21156  16.326   1.994   2.247 -0.0373  0.2003  0.0862
 7743W        W21157  12.304   6.509   0.106  0.3427  0.1231 -0.0282
 7744W        W21158  16.896   0.631   0.073 -0.1666 -0.0770 -0.0483
 7745W        W21159   3.279  11.098  15.048  0.0871  0.2108 -0.0033
 7746W        W21160   9.967   5.216   2.456 -0.1516  0.1585 -0.2626
 7747W        W21161   8.244  13.139   0.703  0.1899 -0.0747  0.0683
 7748W        W21162   9.964   9.315  13.460 -0.2229 -0.3322  0.1584
 7749W        W21163  13.969   0.671   5.057  0.0111 -0.0114  0.2961
 7750W        W21164  13.132   8.233   2.910 -0.2186 -0.0775 -0.1885
 7751W        W21165   2.740  16.401   3.410  0.2357 -0.2239  0.2533
 7752W        W21166   7.147   4.396  12.802 -0.1677  0.1919 -0.3280
 7753W        W21167  12.398  14.127   0.278  0.3625 -0.2669  0.0992
 7754W        W21168   4.986   3.365  12.122  0.0530  0.1047  0.0171
 7755W        W21169  15.715   1.686  11.899  0.1345  0.0359 -0.1501
 7756W        W21170   1.876  17.013   2.561 -0.1330 -0.0605  0.1095
 7757W        W21171  11.433   5.130   4.664  0.0954 -0.2472 -0.0234
 7758W        W21172  11.303   8.399  11.483  0.0432  0.2883 -0.0719
 7759W        W21173   3.101   0.442   1.754  0.1975 -0.1787  0.3752
 7760W        W21174   2.394   6.183   0.043 -0.0701 -0.1172  0.3057
 7761W        W21175   9.612  14.079   5.836 -0.1574 -0.0765 -0.4334
 7762W        W21176  11.176  11.091  11.225 -0.1333  0.1307  0.0359
 7763W        W21177  11.878  16.219  15.355  0.0902  0.3574 -0.0893
 7764W        W21178  16.304  13.570  14.200  0.0336  0.4790 -0.0026
 7765W        W21179   8.648  12.232   4.020  0.1276  0.0260 -0.2293
 7766W        W21180   2.412  17.630   3.897  0.0361  0.0827  0.0326
 7767W        W21181   4.405  17.689  14.213 -0.0579  0.0909 -0.2158
 7768W        W21182   4.980   1.529   9.923  0.1119 -0.0540 -0.2923
 7769W        W21183  12.561  17.965  11.051 -0.0705  0.2495  0.0202
 7770W        W21184   4.337  13.674  14.825  0.3322  0.0128  0.0313
 7771W        W21185   8.685  11.928  12.983 -0.0081  0.0024  0.0995
 7772W        W21186   1.169  17.771  15.742 -0.1494  0.1160 -0.1263
 7773W        W21187   5.378   0.195   9.875 -0.0006  0.2213  0.4164
 7774W        W21188   3.698   4.764   1.551  0.0174  0.0229  0.0891
 7775W        W21189   5.146   2.412   1.640 -0.2843 -0.0128  0.1325
 7776W        W21190   0.134  11.960  14.426  0.1146 -0.0243 -0.4395
 7777W        W21191   5.033  11.724   3.273 -0.1777 -0.1375  0.0497
 7778W        W21192  12.804  12.473   4.518  0.3697  0.1866  0.0516
 7779W        W21193   2.701  16.368  15.450 -0.1201  0.3531 -0.3295
 7780W        W21194  12.962   8.124   1.286 -0.0037  0.2416 -0.0665
 7781W        W21195  13.095   7.943   5.748 -0.0668 -0.2219 -0.1025
 7782W        W21196  10.116  11.004   2.990  0.4618 -0.0099 -0.0550
 7783W        W21197   1.677   3.787   2.647 -0.1320 -0.1071  0.0679
 7784W        W21198   4.198   4.341   5.612  0.1555 -0.1474 -0.1905
 7785W        W21199  11.870   8.687   3.494  0.0392 -0.1363  0.2441
 7786W        W21200  14.292   6.661  15.669  0.0118  0.5642  0.2708
 7787W        W21201   2.359   0.537  15.431 -0.0539 -0.0806 -0.0894
 7788W        W21202  16.826   2.376  13.719  0.2058  0.1133 -0.2522
 7789W        W21203  15.487  17.260  11.543 -0.0659 -0.0021  0.2486
 7790W        W21204   9.500  13.275  10.918  0.0537 -0.0527 -0.0395
 7791W        W21205  16.054   2.044  11.668  0.0041 -0.1536  0.1684
 7792W        W21206   3.060   8.782   5.008 -0.3209 -0.0881 -0.0658
 7793W        W21207   5.876   8.629   2.718  0.2709 -0.1514  0.2450
 7794W        W21208  18.102  16.284  10.979 -0.0615  0.0804 -0.0625
 7795W        W21209  16.435  14.971   2.299 -0.0662 -0.1046 -0.1232
 7796W        W21210  12.758  16.889  12.917  0.1447  0.0478  0.0111
 7797W        W21211  16.318  17.305  13.920 -0.1868  0.0803 -0.2191
 7798W        W21212   0.219   4.271   2.462 -0.2702  0.1059 -0.2303
 7799W        W21213  11.754   6.962   4.184 -0.2213  0.3436  0.0090
 7800W        W21214   6.376   3.100  15.280  0.0015 -0.2989 -0.2868
 7801W        W21215  12.895  10.769   0.263  0.1198 -0.0713  0.4800
 7802W        W21216   9.870  16.859  10.937 -0.1964 -0.0504  0.2832
 7803W        W21217   6.748  11.037   4.814 -0.0688  0.1171  0.1505
 7804W        W21218   6.054   1.859   0.442 -0.1501 -0.3667  0.1049
 7805W        W21219   2.792   5.193   2.661  0.2710 -0.0600 -0.1116
 7806W        W21220  13.508  11.974  11.188  0.1703  0.1062 -0.1571
 7807W        W21221  10.691  13.438   1.140  0.2639 -0.2724 -0.2616
 7808W        W21222   6.060  15.461  11.527 -0.1790 -0.1554 -0.0507
 7809W        W21223  10.397   8.439   5.561 -0.1495  0.3991 -0.3741
 7810W        W21224   6.065   2.374   0.556 -0.1316  0.3027  0.2299
 7811W        W21225  11.129   1.218   5.572 -0.1265 -0.1536  0.0476
 7812W        W21226  17.726   6.088  15.558  0.1537 -0.1825 -0.1150
 7813W        W21227  15.908   3.058   1.683 -0.1107  0.1761  0.1293
 7814W        W21228   3.715  13.093  14.489 -0.0352 -0.2240  0.2455
 7815W        W21229  15.464  10.925  15.340 -0.0054 -0.0685 -0.0617
 7816W        W21230   9.791  12.236   2.970 -0.3391  0.0338 -0.0928
 7817W        W21231   9.452   9.461   1.124 -0.4583 -0.0726 -0.0954
 7818W        W21232   4.344   9.010  12.601  0.0890  0.0467 -0.0057
 7819W        W21233  17.394  11.509   6.230  0.0497 -0.0415  0.2020
 7820W        W21234   9.927  13.109  15.599 -0.3079 -0.2725  0.0996
 7821W        W21235  16.030   5.506   4.847  0.0196  0.1182 -0.0953
 7822W        W21236  10.655   4.467   5.531  0.3537 -0.1505 -0.2790
 7823W        W21237  17.265   3.050  12.814 -0.1319  0.0651  0.1957
 7824W        W21238  10.776   5.967  15.615  0.0529  0.0449 -0.0927
 7825W        W21239  14.413  17.222   3.566  0.3495 -0.3632  0.3842
 7826W        W21240  16.456   1.965   1.150  0.2414 -0.0920 -0.0655
 7827W        W21241   8.383  17.475  12.685  0.4227  0.1243  0.0723
 7828W        W21242   1.698  11.635  15.433  0.3492 -0.1567  0.0939
 7829W        W21243  14.636  17.332  13.601 -0.0521 -0.0953  0.0344
 7830W        W21244   0.027  15.014   6.367  0.3424  0.0789 -0.1374
 7831W        W21245   2.077   4.955  12.207 -0.0613 -0.0303  0.1168
 7832W        W21246   1.238   6.418   5.636 -0.3082  0.3199  0.0818
 7833W        W21247   5.326  11.504  14.653 -0.0259 -0.1788  0.3555
 7834W        W21248  16.820   6.544   5.770 -0.1293 -0.0851  0.1166
 7835W        W21249   6.561  13.787  15.558  0.0909  0.0874 -0.1547
 7836W        W21250   4.605  10.083   4.338  0.0182 -0.2032  0.0326
 7837W        W21251   0.148  10.273   2.446 -0.1594 -0.2535  0.0249
 7838W        W21252  12.184  17.089  15.926  0.5401 -0.1049  0.0692
 7839W        W21253  13.613   8.439   6.390  0.0779 -0.0230  0.2738
 7840W        W21254   8.065  17.774  14.643  0.2371 -0.0831 -0.1950
 7841W        W21255  10.301   5.870   4.769  0.1089  0.0344  0.0804
 7842W        W21256   7.359   8.100  13.234 -0.1279  0.0827 -0.2176
 7843W        W21257  12.868  14.133   2.349 -0.0125  0.1974 -0.2807
 7844W        W21258   6.828  17.519  14.913  0.1279  0.2431 -0.0940
 7845W        W21259   0.953  16.566   4.677 -0.2286  0.1754 -0.2460
 7846W        W21260  14.675  11.448   2.248  0.1122 -0.0371  0.0621
 7847W        W21261   0.801   7.792   0.840 -0.2020  0.0853  0.5496
 7848W        W21262   5.873   5.483   0.691 -0.0272 -0.0902  0.3363
 7849W        W21263  11.797   2.589   0.815  0.2312  0.0772 -0.0093
 7850W        W21264  17.154   0.587   2.364  0.3186  0.4432 -0.0467
 7851W        W21265   4.267  13.111   1.633  0.0427 -0.2510 -0.1496
 7852W        W21266  17.893   1.853   2.225 -0.2643  0.2825 -0.0888
 7853W        W21267   8.712  16.185  11.065 -0.0326 -0.0866 -0.2710
 7854W        W21268   4.792   8.984   0.008 -0.1036 -0.2787 -0.0992
 7855W        W21269  11.321  15.564  15.167  0.3639  0.0692  0.0906
 7856W        W21270  11.866   2.528   4.313 -0.0622  0.1051 -0.2735
 7857W        W21271   6.077  15.894   2.828  0.1238  0.0332  0.1522
 7858W        W21272  12.557  15.210  13.481 -0.0484 -0.0780  0.1580
 7859W        W21273  16.519   7.266   0.996 -0.0399 -0.0642 -0.2084
 7860W        W21274   4.915   3.849   2.002  0.0381  0.2628 -0.0292
 7861W        W21275   2.155  15.564   1.302 -0.1370 -0.0724  0.1440
 7862W        W21276   7.549  14.179   5.070 -0.1840  0.3968  0.0291
 7863W        W21277   8.347   5.469   1.994 -0.1376  0.0564 -0.1697
 7864W        W21278  16.357   3.552  11.872 -0.0109  0.2315 -0.1576
 7865W        W21279   3.165  17.000  13.895 -0.1370  0.0694 -0.1820
 7866W        W21280   3.562   8.389  12.208 -0.0638  0.2599  0.0983
 7867W        W21281   3.242  12.904  14.526  0.2464 -0.1756  0.0187
 7868W        W21282   7.705  16.468  14.686 -0.0777 -0.2301  0.3752
 7869W        W21283  10.612  11.653  10.544 -0.0375 -0.1184 -0.0841
 7870W        W21284   9.256   2.037  11.916 -0.2483  0.0674 -0.0774
 7871W        W21285  13.062  15.197   2.183 -0.2157 -0.1948 -0.1731
 7872W        W21286   8.645  12.642  14.081 -0.0333 -0.0636  0.0550
 7873W        W21287   9.357  14.570  14.947  0.2562 -0.1861 -0.2130
 7874W        W21288  17.667  13.416  11.306  0.1804  0.2296  0.0677
 7875W        W21289   1.747   1.511   1.301 -0.5950  0.0623 -0.0226
 7876W        W21290  16.203  14.378   1.693  0.2298 -0.2020 -0.1112
 7877W        W21291   9.255  10.162   6.098  0.3249 -0.3083 -0.2377
 7878W        W21292  10.695   9.603  15.972 -0.1678  0.0146  0.3092
 7879W        W21293   8.455   6.983  11.273  0.2170  0.0430  0.0682
 7880W        W21294  11.548   5.629  11.704  0.2349  0.2421  0.0867
 7881W        W21295   5.522   8.333  15.520  0.2944 -0.0410  0.0968
 7882W        W21296   4.791  16.291  16.256 -0.0554  0.4824 -0.0863
 7883W        W21297  11.015   9.510   0.525 -0.0858 -0.0370 -0.1509
 7884W        W21298   1.377   7.674   3.399  0.0108  0.0263 -0.0141
 7885W        W21299  16.719   9.066  16.322 -0.1347 -0.4337  0.0463
 7886W        W21300   3.050   7.289   3.600 -0.2306  0.0369  0.1201
 7887W        W21301   0.425  17.945  14.905 -0.2251  0.0124 -0.0597
 7888W        W21302   5.832  13.252  12.952 -0.0790 -0.1324  0.0346
 7889W        W21303  15.500   9.469   1.902 -0.1086  0.1721  0.0132
 7890W        W21304  10.099  13.583   5.314  0.2010  0.0641 -0.5079
 7891W        W21305   7.731  15.299  14.170 -0.0057  0.1552  0.1811
 7892W        W21306   7.719   7.492  16.088 -0.1614 -0.2385 -0.0706
 7893W        W21307  14.641   3.443   3.888  0.1100  0.0919  0.1520
 7894W        W21308   2.122  10.927   0.761 -0.1883  0.0774  0.1454
 7895W        W21309   2.146  10.895  13.915  0.0026 -0.0183 -0.2384
 7896W        W21310   0.991   8.292  13.106  0.0392  0.2673  0.0968
 7897W        W21311  13.189   1.429  12.296  0.2807 -0.0614  0.0489
 7898W        W21312   8.148  12.661   5.658 -0.2057 -0.1433 -0.1724
 7899W        W21313   5.059   1.129  13.409 -0.4554 -0.0172  0.0500
 7900W        W21314  17.732   8.950   5.160  0.0813  0.3153 -0.0470
 7901W        W21315   1.948   9.469   1.128 -0.1353  0.0125 -0.0387
 7902W        W21316   9.544   4.439  14.803 -0.0078 -0.2639 -0.0589
 7903W        W21317   5.577   4.828  12.684 -0.0931  0.4333 -0.0204
 7904W        W21318   3.153  15.170   1.984  0.4052  0.0983 -0.1191
 7905W        W21319  12.499  13.274   1.045 -0.0636 -0.1019 -0.2130
 7906W        W21320   2.150   4.427  11.807  0.0076  0.2447  0.2131
 7907W        W21321  13.640   8.538   3.403  0.0582  0.1564  0.3503
 7908W        W21322   9.903  17.858   1.450 -0.1053  0.2854 -0.3728
 7909W        W21323   5.437  16.022  11.337  0.1745 -0.1078 -0.0647
 7910W        W21324  14.536  12.940   4.960  0.0907 -0.2135 -0.1577
 7911W        W21325   9.293   8.617  11.626 -0.0291 -0.0835 -0.0371
 7912W        W21326  17.896  18.149   2.145 -0.0761  0.2273  0.3471
 7913W        W21327   7.728   4.913  15.895  0.0716  0.2138  0.1398
 7914W        W21328  17.257   9.962  13.299 -0.0472 -0.1275  0.2323
 7915W        W21329  17.439   4.279   0.034  0.0098 -0.0351 -0.4207
 7916W        W21330  11.160  17.813   5.778  0.0797 -0.0912 -0.0612
 7917W        W21331   3.003   3.556   2.616  0.0325  0.3335  0.1124
 7918W        W21332  11.985  14.596   1.220 -0.2858  0.1445 -0.3141
 7919W        W21333  16.670  18.142   2.970  0.2461 -0.0254 -0.1853
 7920W        W21334   5.404  12.297   1.454  0.2083 -0.1511 -0.3172
 7921W        W21335  12.995  11.316   0.752 -0.0562  0.1121  0.3341
 7922W        W21336  12.127  13.081  15.712  0.3372 -0.1943 -0.0402
 7923W        W21337  17.001  16.270   4.939 -0.0082  0.0142  0.0515
 7924W        W21338   6.825   2.402   4.278  0.1067  0.0818 -0.2827
 7925W        W21339  15.621  10.795  13.638 -0.3041 -0.0069  0.0140
 7926W        W21340  11.901  11.028   4.433 -0.1347 -0.0292 -0.0683
 7927W        W21341   9.466   5.579   4.930  0.0597  0.2265 -0.1552
 7928W        W21342   7.885   2.788  13.649 -0.0737  0.2248  0.0663
 7929W        W21343  10.323   6.332   1.829 -0.1582 -0.3828 -0.1553
 7930W        W21344   4.436  13.024  11.871  0.0832  0.2596  0.0940
 7931W        W21345  12.926  13.508  12.917 -0.2864  0.5427 -0.0079
 7932W        W21346   3.272   7.387   4.336  0.0137 -0.2707  0.0050
 7933W        W21347   0.979  18.188  13.312  0.3228 -0.0808 -0.1372
 7934W        W21348   7.809   9.923   6.303  0.2117 -0.1377  0.2195
 7935W        W21349  13.878   7.013   1.145 -0.1961 -0.2067 -0.2513
 7936W        W21350   1.741  15.120   4.227  0.3647  0.0267 -0.1906
 7937W        W21351   7.562   2.017   4.579  0.2592  0.1508  0.1615
 7938W        W21352  13.920  14.411  13.150  0.1269 -0.1938 -0.1926
 7939W        W21353  12.093  12.383  11.860  0.2295  0.2423  0.1969
 7940W        W21354  14.913   5.654   4.604 -0.1775  0.1896  0.0339
 7941W        W21355   9.372   8.620  12.145 -0.1653 -0.2569  0.0736
 7942W        W21356  12.334  17.340   0.213  0.1281  0.1574  0.2558
 7943W        W21357   4.816   6.680  14.288  0.0293  0.0719 -0.2701
 7944W        W21358  12.563   6.977   0.993  0.0905  0.0270 -0.0691
 7945W        W21359   8.715   1.766   1.068 -0.1821 -0.0790  0.1032
 7946W        W21360  10.980   3.538   1.211 -0.0908 -0.1516 -0.0970
 7947W        W21361  16.833   2.736   4.482  0.1177  0.2002  0.2727
 7948W        W21362   8.440  12.050   3.199  0.1911 -0.0314  0.0878
 7949W        W21363  16.747  13.759  11.064 -0.1085  0.0708 -0.2105
 7950W        W21364  10.456   3.991  13.515 -0.0016 -0.2944 -0.2649
 7951W        W21365   1.805  13.881   3.944  0.1198 -0.0693 -0.0792
 7952W        W21366   3.639  13.230  12.603 -0.2148 -0.0224 -0.0899
 7953W        W21367  17.892   6.155  12.955 -0.0766 -0.0295  0.0537
 7954W        W21368   0.671   7.678   4.148 -0.0177 -0.1045  0.3625
 7955W        W21369   1.947  12.993   3.401 -0.1498  0.1816  0.0689
 7956W        W21370   9.069  10.758  14.759 -0.0041  0.1668  0.0340
 7957W        W21371   0.857  12.601   5.448  0.0449 -0.1357 -0.2174
 7958W        W21372  16.544   5.986  11.698 -0.4291 -0.1999  0.0325
 7959W        W21373   6.134   0.753   3.310  0.2464  0.0109  0.3352
 7960W        W21374   6.466  11.609   0.359  0.2615 -0.1996 -0.1379
 7961W        W21375   1.913   4.558   4.683 -0.0933  0.2557 -0.1571
 7962W        W21376  11.497  10.088  13.465  0.2294 -0.2199  0.2989
 7963W        W21377   9.767   2.031   3.171 -0.0057 -0.1369 -0.2585
 7964W        W21378   7.849  13.829  12.595  0.1859  0.0692 -0.2280
 7965W        W21379  14.097   7.245  14.233  0.0236  0.0495  0.1518
 7966W        W21380   1.718   2.563  13.702 -0.2522 -0.3610  0.2041
 7967W        W21381   3.082   3.267  16.290  0.0675 -0.1690  0.2931
 7968W        W21382  12.752   2.504  14.437  0.0488  0.3753 -0.0183
 7969W        W21383  12.817   6.865   3.111  0.2004 -0.0077 -0.1053
 7970W        W21384  16.553   0.373  15.204  0.0956 -0.1207 -0.2208
 7971W        W21385  11.872   2.844  12.699 -0.0336 -0.1166 -0.1211
 7972W        W21386   5.863  14.447  10.304  0.0436 -0.1467  0.0775
 7973W        W21387   5.547  18.154   3.033 -0.0332  0.0593  0.3336
 7974W        W21388  16.771   3.536   3.702  0.0500 -0.1283 -0.2201
 7975W        W21389  16.317  16.158   6.144  0.2889  0.1176 -0.1547
 7976W        W21390  17.954   1.339  11.341  0.1637 -0.1787  0.4175
 7977W        W21391   3.669   7.450   1.801 -0.2484 -0.1199  0.0447
 7978W        W21392   4.849  10.197   2.110  0.1807 -0.1435  0.2600
 7979W        W21393   2.493   3.943  11.655  0.1132  0.3523  0.2687
 7980W        W21394   0.859   4.930  14.822 -0.1854 -0.0099 -0.0471
 7981W        W21395  14.491   1.399   2.646 -0.0227 -0.0846  0.1270
 7982W        W21396  18.125  14.039  15.793  0.0119  0.0590  0.0243
 7983W        W21397  14.792   9.393  11.539  0.0680  0.0855  0.2192
 7984W        W21398  12.997   2.129  13.575  0.0796 -0.1303 -0.2987
 7985W        W21399   3.358   4.918  12.363 -0.2725  0.2243  0.1185
 7986W        W21400  18.204  16.731  13.149 -0.0388  0.0910 -0.0519
 7987W        W21401  12.152   4.040  13.992 -0.0816 -0.2444  0.2260
 7988W        W21402  16.327  18.060   0.371 -0.0525 -0.0733  0.3679
 7989W        W21403  10.335  14.941  10.294  0.1691 -0.0648 -0.0173
 7990W        W21404  10.567   3.231  12.669  0.0786 -0.2926 -0.0331
 7991W        W21405   1.981  10.793   6.326  0.0173  0.2913 -0.0483
 7992W        W21406  18.166   7.316   0.510 -0.1325 -0.2149 -0.0148
 7993W        W21407  17.060   5.455   4.450 -0.2239  0.1901  0.0531
 7994W        W21408  17.268   7.864   1.133  0.3360 -0.1765  0.1416
 7995W        W21409  11.261  10.119   3.935 -0.0382  0.0242  0.0067
 7996W        W21410   4.647   0.381  12.345 -0.0859 -0.2961 -0.1420
 7997W        W21411  10.022  10.989   2.442 -0.0721  0.2832  0.1471
 7998W        W21412   3.859   1.591   4.041 -0.1096 -0.1790 -0.1050
 7999W        W21413  12.412   0.017   1.686 -0.0118 -0.1778  0.0385
 8000W        W21414   8.956  11.762   5.118 -0.3000  0.1924  0.2101
 8001W        W21415   7.592  10.597  16.225  0.1058 -0.0850 -0.2891
 8002W        W21416   9.354   8.533   1.937 -0.1580  0.1174  0.0446
 8003W        W21417   3.361   0.761  13.730 -0.1735  0.0398  0.0632
 8004W        W21418  15.513  18.111  14.660  0.2862  0.0097 -0.2060
 8005W        W21419   0.816   5.305   4.219 -0.0939 -0.0540 -0.1819
 8006W        W21420   2.373   3.453   6.161 -0.0488 -0.0479  0.3436
 8007W        W21421  13.315   5.948  13.157  0.2377  0.2442 -0.0634
 8008W        W21422  14.888  15.702  15.079 -0.1081  0.4182 -0.1911
 8009W        W21423   8.076   5.539  14.783 -0.0837  0.4325  0.1317
 8010W        W21424   8.941  13.867   4.693  0.0809 -0.1483  0.1835
 8011W        W21425   9.527   2.449   4.485 -0.0821  0.0163  0.0781
 8012W        W21426  13.163   7.948  15.603  0.0317 -0.0400 -0.3324
 8013W        W21427  16.103  10.790   4.970 -0.0301  0.1045 -0.1155
 8014W        W21428  11.054  16.931  11.898 -0.1505 -0.0165 -0.1371
 8015W        W21429   5.389  13.908  13.790 -0.0370  0.3422  0.0504
 8016W        W21430  16.113   9.708   0.621  0.1840 -0.2587 -0.1239
 8017W        W21431   0.812   1.424   0.335 -0.1783 -0.0019 -0.2332
 8018W        W21432   5.126   0.065   5.101 -0.1416  0.1096 -0.0580
 8019W        W21433  11.591  13.379   1.372 -0.1508 -0.0575 -0.1674
 8020W        W21434  10.062  12.401   5.900  0.1800  0.0284  0.1326
 8021W        W21435  12.976  13.616  13.971  0.2225 -0.3508  0.0820
 8022W        W21436  18.010  14.099   0.614  0.0363  0.3092 -0.0133
 8023W        W21437  18.095   9.401  16.220 -0.0994  0.0009 -0.1558
 8024W        W21438   2.996   2.151  12.657 -0.0925  0.0207  0.1638
 8025W        W21439   6.398  12.022  11.926  0.3008 -0.3447  0.3759
 8026W        W21440  14.636   8.648  14.904  0.3689 -0.1123 -0.2000
 8027W        W21441   7.014  13.252   4.956 -0.0457 -0.1709 -0.1982
 8028W        W21442   7.951   5.609  10.959  0.1688 -0.0468 -0.0431
 8029W        W21443  15.355   8.728  13.592  0.1716  0.1017 -0.1248
 8030W        W21444   3.126   3.804  15.331  0.0208 -0.0858 -0.2123
 8031W        W21445   3.097   9.433   1.909  0.0012  0.1847 -0.1996
 8032W        W21446   8.245   7.301   0.623  0.0546 -0.2618  0.0927
 8033W        W21447  11.468   2.280  10.375  0.1580 -0.0710  0.1950
 8034W        W21448   1.331  11.812   1.101  0.2993 -0.1457 -0.0953
 8035W        W21449  10.364   5.573  11.351  0.0838 -0.2860  0.0576
 8036W        W21450   6.780   0.278   2.761  0.0736 -0.1342  0.1158
 8037W        W21451  11.026   7.539   3.798 -0.0867  0.0793  0.1627
 8038W        W21452   3.606  14.224  14.963  0.1581  0.6126  0.0299
 8039W        W21453   0.091  10.338   5.168 -0.3591 -0.0228  0.3351
 8040W        W21454   8.435  17.602  15.503 -0.0703 -0.3255 -0.1080
 8041W        W21455   9.536  15.176  11.597  0.0435  0.2537  0.1042
 8042W        W21456   6.324  14.751  10.949 -0.0292 -0.3529 -0.1892
 8043W        W21457   2.182  13.514  15.349  0.1429 -0.2499 -0.1035
 8044W        W21458  13.995  11.071  14.242 -0.0520  0.1769  0.1972
 8045W        W21459  13.515  14.458  11.857 -0.0812 -0.3438  0.0465
 8046W        W21460  13.008   8.350   0.382  0.2171 -0.2191 -0.0283
 8047W        W21461   9.386  12.122   0.961 -0.3007  0.0285  0.0442
 8048W        W21462  16.286  11.510  15.085 -0.1386 -0.1587  0.0717
 8049W        W21463   9.765  14.713  15.943  0.0856 -0.1323  0.0214
 8050W        W21464  14.112  11.021   3.837  0.2303  0.1575  0.0160
 8051W        W21465   3.943   5.847  14.591 -0.0007 -0.0773  0.1402
 8052W        W21466  16.693  16.445   5.276 -0.0372  0.0228 -0.3200
 8053W        W21467   1.300   6.876  14.535  0.1498 -0.1350  0.0801
 8054W        W21468   8.264   2.485   0.213 -0.1596 -0.1288  0.1622
 8055W        W21469   1.598   2.940   6.541 -0.2751 -0.2795 -0.1611
 8056W        W21470   2.891  16.962  11.630  0.0268  0.0358 -0.0182
 8057W        W21471   1.764   0.085  10.662 -0.0817 -0.1557  0.3323
 8058W        W21472  17.587   7.906   2.508  0.2743 -0.0064  0.0967
 8059W        W21473   7.626  17.664  13.898  0.2269 -0.0063  0.0477
 8060W        W21474   6.873  17.768   3.387  0.1315 -0.0447 -0.1372
 8061W        W21475   8.822  15.509  13.263 -0.1441  0.1720  0.0347
 8062W        W21476  14.896  10.766  12.291 -0.4499 -0.0757 -0.0904
 8063W        W21477  10.418   2.914  16.188 -0.2473 -0.1867 -0.0711
 8064W        W21478  11.128   1.659   2.600 -0.0513 -0.1529  0.1838
 8065W        W21479   1.955   0.653   0.461  0.0839 -0.0200 -0.1775
 8066W        W21480  13.576   0.122   3.610 -0.1577 -0.1772  0.0677
 8067W        W21481   1.202  15.913  11.626  0.0893  0.3172 -0.0355
 8068W        W21482  17.548  17.046   4.426 -0.1066 -0.2102 -0.0379
 8069W        W21483  17.533   3.444  10.408  0.1384 -0.2240  0.0109
 8070W        W21484  10.454  12.181   1.035 -0.1696  0.3212  0.0856
 8071W        W21485   1.372   8.836   2.149  0.0621 -0.3153  0.1226
 8072W        W21486   2.454   3.773   0.395  0.1768 -0.0794 -0.3191
 8073W        W21487   3.757   7.368   4.332 -0.0388  0.0050  0.1126
 8074W        W21488   4.031   5.227  12.839  0.3775 -0.0775  0.2679
 8075W        W21489   7.052   8.882  11.047 -0.0598 -0.0202 -0.0290
 8076W        W21490   2.169  16.117  13.303  0.0370  0.0215  0.0530
 8077W        W21491  18.062   1.683  13.731  0.1426 -0.1387  0.0028
 8078W        W21492   9.125   4.384  10.661 -0.2022  0.2168 -0.0411
 8079W        W21493   9.125   3.773   0.750  0.2210  0.3104 -0.1239
 8080W        W21494   7.383   8.402   3.978  0.0791  0.0025 -0.1184
 8081W        W21495   6.131  12.577  14.029 -0.1851 -0.0860  0.0555
 8082W        W21496  10.795   2.140   3.839 -0.0833  0.0692 -0.4378
 8083W        W21497   0.449  16.138  16.401 -0.4077 -0.4351  0.4166
 8084W        W21498  11.241  18.149  12.700  0.2178 -0.2188 -0.1311
 8085W        W21499   1.750  15.548   3.755 -0.0717  0.5053  0.2358
 8086W        W21500   8.402  14.267  16.152  0.3017  0.5171  0.2670
 8087W        W21501  14.443  13.088   2.286 -0.2404  0.0769  0.2921
 8088W        W21502   4.489  12.919   4.178 -0.0216 -0.2495  0.0225
 8089W        W21503  14.064  17.099   2.551 -0.0151 -0.0888  0.0559
 8090W        W21504  17.128  16.898   3.331  0.1530 -0.0449 -0.0479
 8091W        W21505  12.604  14.960  15.718 -0.2121  0.2830 -0.2392
 8092W        W21506   6.760  15.490   1.226  0.0375 -0.0227 -0.1053
 8093W        W21507   0.719  11.569  16.504  0.2136  0.0978  0.1829
 8094W        W21508  10.310  15.964  14.055 -0.0515  0.1916  0.1209
 8095W        W21509   5.835   5.931   0.886 -0.2097 -0.1072 -0.2693
 8096W        W21510   9.374   8.110  12.555  0.6058  0.0075  0.0805
 8097W        W21511  11.892  15.083  11.431 -0.0778  0.2028  0.0394
 8098W        W21512  13.735  17.509   4.675 -0.0489 -0.1442 -0.0268
 8099W        W21513   2.684   1.729   2.083  0.0758 -0.0014  0.0985
 8100W        W21514   7.163  10.209  15.347 -0.0077  0.1221 -0.0410
 8101W        W21515  17.623   9.890  13.726  0.0170  0.1599  0.1927
 8102W        W21516  12.374   0.957  15.978 -0.2749  0.1235 -0.3137
 8103W        W21517  10.709  16.214  10.229  0.1377  0.0110  0.3645
 8104W        W21518   8.977  12.219  14.296  0.1147  0.3123  0.1636
 8105W        W21519   4.641  10.400  12.934 -0.1193 -0.2717  0.0070
 8106W        W21520  13.006  15.834  13.904 -0.2329 -0.1412  0.3319
 8107W        W21521   7.334   1.914   5.031  0.0703  0.0093  0.0847
 8108W        W21522  15.811  13.320  13.208  0.1804  0.2201 -0.1290
 8109W        W21523   1.120  14.006  13.147  0.2765  0.0231  0.0363
 8110W        W21524  10.564   6.325   4.661  0.0203  0.4214 -0.2441
 8111W        W21525   5.728   6.690   6.718  0.0379  0.0396 -0.0037
 8112W        W21526  12.017   0.656  11.202 -0.4781 -0.1693 -0.0743
 8113W        W21527  14.089  17.629   3.194  0.2386 -0.1450 -0.2377
 8114W        W21528   7.136  11.894  13.289  0.1887 -0.1198 -0.0977
 8115W        W21529  14.885  15.084  15.150  0.0300 -0.1821 -0.0125
 8116W        W21530  12.933   3.911   1.485  0.2734 -0.1378  0.0895
 8117W        W21531  17.851   2.713  12.497 -0.1487  0.3159 -0.1585
 8118W        W21532   1.361  17.571   5.753 -0.1528 -0.0771 -0.0673
 8119W        W21533  16.172  14.644  10.415  0.1293 -0.0085  0.2045
 8120W        W21534  13.485  11.346  14.395  0.1626  0.0548 -0.1319
 8121W        W21535   4.531   2.027  14.393  0.0618 -0.2100  0.0017
 8122W        W21536   2.124   2.131   2.846  0.2191  0.0647  0.1322
 8123W        W21537  14.235   4.652  16.080 -0.0969 -0.1130 -0.1113
 8124W        W21538   8.625  13.365   1.436 -0.0346  0.1962 -0.0004
 8125W        W21539  16.471  11.665   1.725 -0.2974  0.1735 -0.2326
 8126W        W21540   6.821  12.979  12.378  0.1266 -0.2895  0.0777
 8127W        W21541  16.277  16.999  15.967  0.0000  0.3067  0.3826
 8128W        W21542   6.888   2.082   0.639 -0.2419  0.2973 -0.1371
 8129W        W21543  14.719  10.117  15.911  0.2190 -0.0616  0.0448
 8130W        W21544  10.894   2.132  11.423 -0.1247  0.4665 -0.2029
 8131W        W21545  15.672  12.722   1.402 -0.1924  0.3226  0.1014
 8132W        W21546  13.502  12.124   3.870 -0.1681 -0.3837 -0.2505
 8133W        W21547   6.343   5.707  11.130 -0.0379  0.0309 -0.0527
 8134W        W21548   8.947   9.099   0.558  0.0298  0.0699  0.2043
 8135W        W21549  14.593  10.959   3.063 -0.4497 -0.0424  0.0523
 8136W        W21550  18.085  10.433   2.065 -0.0428 -0.1084 -0.0874
 8137W        W21551  10.655  16.185  16.467  0.2564  0.3940  0.0641
 8138W        W21552  12.769  10.102  15.959  0.4761 -0.2647  0.1060
 8139W        W21553   3.834  14.702   3.243  0.1604  0.0468 -0.0905
 8140W        W21554  15.980  14.311   0.099 -0.1475  0.0315  0.2398
 8141W        W21555  15.818   3.061  11.757 -0.4111  0.2669 -0.3600
 8142W        W21556   4.364   6.418   4.886 -0.3817 -0.0848 -0.1276
 8143W        W21557   8.646   5.017  13.945  0.1036  0.0883  0.1541
 8144W        W21558   6.541   7.643   0.951 -0.1886  0.0273  0.0549
 8145W        W21559  10.434  12.404  14.723 -0.0254  0.1386 -0.1850
 8146W        W21560  12.694   2.494  16.145 -0.1459 -0.2973 -0.1234
 8147W        W21561   2.617   6.000  14.233  0.0895 -0.0602  0.0649
 8148W        W21562  16.500  13.370   2.702  0.1539  0.3351  0.1395
 8149W        W21563   1.641   7.187  12.238 -0.0067 -0.3262  0.1749
 8150W        W21564   1.181   2.601   3.912 -0.2534 -0.0705  0.2545
 8151W        W21565   7.700  10.238   0.964 -0.0291 -0.0700 -0.1243
 8152W        W21566  11.119   8.269   2.861  0.0277 -0.2415 -0.0454
 8153W        W21567   0.902   4.782   6.668  0.0466  0.2182  0.0855
 8154W        W21568  11.169  17.074  14.626 -0.3089 -0.1899 -0.1577
 8155W        W21569  14.327   7.233   3.812  0.3199  0.2412  0.3412
 8156W        W21570   9.725   8.535  10.520 -0.1491 -0.1912 -0.0546
 8157W        W21571  10.914   8.722  14.123 -0.2698  0.0252  0.1233
 8158W        W21572   5.330   9.807   5.575 -0.2167  0.1498 -0.1417
 8159W        W21573  13.387   6.188  11.526  0.1150  0.4863 -0.0362
 8160W        W21574  16.561   0.253  13.362 -0.2320 -0.1316  0.0235
 8161W        W21575   7.775   4.780  10.572 -0.1088 -0.4145  0.0121
 8162W        W21576  14.671   4.694   1.300  0.1254 -0.0736  0.3674
 8163W        W21577   5.134   5.145   4.312 -0.1535 -0.1542  0.0592
 8164W        W21578   6.026  16.401   0.527 -0.0917  0.0566 -0.0062
 8165W        W21579   6.801   7.336  14.368  0.0758  0.0607  0.0468
 8166W        W21580   5.903   7.581   3.767  0.0825  0.1302  0.3556
 8167W        W21581  11.192   8.107   5.465 -0.1361  0.1077 -0.2147
 8168W        W21582  13.315   6.607  12.981 -0.1163  0.1432  0.2745
 8169W        W21583   4.229   3.290  14.555  0.2101  0.1269 -0.1539
 8170W        W21584   6.207  14.162   4.458 -0.0990  0.3850  0.1744
 8171W        W21585   3.040  10.586  15.223  0.1773 -0.2353 -0.1071
 8172W        W21586   2.431  14.694  12.024 -0.1957  0.2076  0.0256
 8173W        W21587  14.050  17.191  12.519 -0.1504 -0.0526 -0.0676
 8174W        W21588   3.106   9.173  15.305 -0.0976 -0.0250 -0.0230
 8175W        W21589  17.655   9.450   6.167  0.0194 -0.0385 -0.0404
 8176W        W21590  15.026   9.256   2.658 -0.0262 -0.0357 -0.0187
 8177W        W21591   1.369  14.243  16.360  0.0856 -0.0306 -0.0718
 8178W        W21592   8.436   4.855   4.304  0.2111  0.1447 -0.0430
 8179W        W21593   4.892  11.472  13.574 -0.1497  0.0078  0.0934
 8180W        W21594   4.930   1.353  10.920 -0.1178  0.0124  0.0423
 8181W        W21595  15.851   7.555   3.010  0.1917 -0.4782 -0.0357
 8182W        W21596  14.105  11.643   4.447  0.0981  0.3750  0.4238
 8183W        W21597   1.272  10.101  14.829  0.0304  0.0318  0.0333
 8184W        W21598   0.203   1.099   3.033 -0.0102  0.0995 -0.1877
 8185W        W21599  17.217   3.227  13.274 -0.1422  0.0283 -0.2472
 8186W        W21600  14.800  13.977  10.339 -0.1462 -0.2330  0.3161
 8187W        W21601   8.162  18.078  10.021  0.4066  0.1489  0.0022
 8188W        W21602   4.066   7.700  15.558  0.1356 -0.1820  0.1856
 8189W        W21603   1.840  14.425  16.037 -0.0430  0.2241  0.1674
 8190W        W21604   5.028   3.377   3.337 -0.2215  0.0466  0.0958
 8191W        W21605  16.254  12.993  12.984 -0.2719 -0.0811  0.0384
 8192W        W21606  14.536  17.445   3.059 -0.1611  0.2157  0.1796
 8193W        W21607   6.267  13.206   2.109  0.0165 -0.0989  0.0052
 8194W        W21608  11.523   7.121   3.712  0.3168 -0.2091 -0.2678
 8195W        W21609   4.082  14.616  15.517  0.1491  0.0168  0.0275
 8196W        W21610   0.219   3.884   1.045  0.0705  0.0372 -0.1709
 8197W        W21611  11.036  15.853   1.485 -0.0089 -0.0461  0.4793
 8198W        W21612   7.263   2.753   0.042  0.0688 -0.0177 -0.0474
 8199W        W21613  15.626  17.733  11.847 -0.1238  0.1636  0.3811
 8200W        W21614  13.008  11.092  12.351  0.0133 -0.0067 -0.1052
 8201W        W21615  10.718   0.833   0.087 -0.0036  0.0282 -0.0649
 8202W        W21616   7.354  11.508   5.815 -0.2568 -0.0069 -0.2205
 8203W        W21617  12.227  11.303  11.313 -0.0246  0.1229 -0.1604
 8204W        W21618  16.167   7.598   0.173  0.1614 -0.0045 -0.0080
 8205W        W21619   8.675   0.734  10.679 -0.0172 -0.0702  0.0606
 8206W        W21620  17.245   4.305   1.231  0.0092 -0.0858  0.1042
 8207W        W21621   5.749   5.101   5.642  0.0579 -0.1818 -0.0430
 8208W        W21622   0.638   9.690   2.926  0.0497 -0.1364  0.0452
 8209W        W21623  14.786   9.237   0.677  0.0947 -0.0576 -0.1827
 8210W        W21624   9.136   4.011  13.284 -0.1411  0.2751 -0.0445
 8211W        W21625  17.513   2.898   4.066 -0.0059  0.1819 -0.3510
 8212W        W21626   3.514   1.986  15.800  0.2087 -0.0455 -0.2313
 8213W        W21627  13.297   0.473   1.499  0.2525  0.4279  0.0536
 8214W        W21628   0.874   9.096   4.986 -0.1132 -0.0236 -0.0773
 8215W        W21629   2.348   0.521   0.142  0.1441  0.3536  0.0534
 8216W        W21630  13.796   2.583   5.642  0.0366 -0.0972  0.1013
 8217W        W21631  10.035   5.568  16.159 -0.1255  0.0453  0.1058
 8218W        W21632   5.364   9.608  12.779 -0.5251  0.0834  0.0570
 8219W        W21633  10.197   8.036  11.570 -0.1479 -0.0075 -0.2423
 8220W        W21634   7.253  17.903  14.752 -0.0206 -0.0412 -0.1142
 8221W        W21635   3.181  10.718   5.841 -0.2560  0.0470 -0.2701
 8222W        W21636  16.558  12.404   4.929  0.1150  0.1657  0.1949
 8223W        W21637   2.759  11.043  13.924 -0.1650  0.2192 -0.3547
 8224W        W21638   2.154   1.804  15.008  0.1516  0.1160 -0.2219
 8225W        W21639   2.763  13.860   5.990 -0.1441  0.0239 -0.1260
 8226W        W21640  16.293   7.231  10.986  0.0912  0.2035 -0.1003
 8227W        W21641   0.786  11.844  11.847  0.2529 -0.0860 -0.1971
 8228W        W21642   2.681   9.571  13.536 -0.1447  0.3151 -0.1844
 8229W        W21643   8.814   0.620  12.028 -0.0012 -0.3929  0.1343
 8230W        W21644   7.075   5.642  16.001 -0.1699  0.1837 -0.0118
 8231W        W21645   8.403  14.268   1.290 -0.4774 -0.0198  0.0902
 8232W        W21646   7.287  10.644  14.923  0.0238  0.1012 -0.3302
 8233W        W21647  15.419   1.449   0.567  0.2674 -0.0562  0.0511
 8234W        W21648   0.828   2.254   4.825 -0.4786  0.1095 -0.1752
 8235W        W21649  14.075   6.297   2.477  0.0138 -0.0120 -0.0796
 8236W        W21650   4.048   8.607  16.212 -0.0818 -0.1275  0.1109
 8237W        W21651   5.957  15.325  14.076 -0.0798  0.0569  0.3783
 8238W        W21652  14.675   9.665  12.418  0.0925  0.0223 -0.1233
 8239W        W21653   5.413  18.182   0.399 -0.2178  0.2488 -0.1551
 8240W        W21654  11.714  10.043   3.703 -0.0118  0.1590  0.0136
 8241W        W21655   9.461  13.540   1.503 -0.0788 -0.0815 -0.1278
 8242W        W21656  12.579  14.962  15.145 -0.1629 -0.2208  0.0646
 8243W        W21657   0.985   8.067   4.877  0.3671  0.3336  0.0238
 8244W        W21658  11.094  13.257  12.846 -0.2571  0.3306  0.1240
 8245W        W21659   2.523  10.232  15.601  0.0766  0.0371 -0.1782
 8246W        W21660   6.138   1.809  15.623  0.2846 -0.3043 -0.1582
 8247W        W21661  10.717  11.446  12.951 -0.1719  0.0018 -0.3293
 8248W        W21662  15.169  11.496   1.421 -0.2735 -0.0877  0.1757
 8249W        W21663   5.967   7.747  14.751 -0.3334  0.2213  0.3557
 8250W        W21664   2.653  16.070  10.557  0.1990  0.0381 -0.2193
 8251W        W21665  12.801   2.235   2.720  0.1549  0.1268 -0.0607
 8252W        W21666   6.979  15.763  10.272  0.3436  0.2376  0.2761
 8253W        W21667   5.887  12.147  15.131  0.1001 -0.0244  0.2809
 8254W        W21668   4.178  17.873   2.884  0.3830  0.2433 -0.3548
 8255W        W21669   1.104   9.137  15.268  0.4486  0.2031  0.1987
 8256W        W21670   2.954   8.514  15.752 -0.0818 -0.0717 -0.2625
 8257W        W21671   0.863  12.517   0.018  0.1988 -0.0119  0.0990
 8258W        W21672   9.468   5.245  15.636 -0.4619 -0.0592 -0.0558
 8259W        W21673   0.061  17.084  15.859  0.0518 -0.0848 -0.1018
 8260W        W21674  16.345  15.361   0.674 -0.0823 -0.0765  0.0659
 8261W        W21675  10.575  14.745  14.286 -0.2975  0.1176  0.0124
 8262W        W21676   0.066  10.955  15.581 -0.0221  0.2133  0.0895
 8263W        W21677   3.531  11.102   6.671  0.2345 -0.0806  0.1249
 8264W        W21678  14.088  15.248   2.128 -0.0925 -0.1803 -0.0712
 8265W        W21679   1.142  16.192   2.303  0.0787 -0.1102  0.2600
 8266W        W21680  12.272   0.449   1.995 -0.0783  0.1113 -0.0878
 8267W        W21681   7.084   1.429   0.007  0.2146  0.2195  0.1428
 8268W        W21682  13.599  12.531   1.928  0.0214  0.1500  0.1583
 8269W        W21683   9.343   5.791  14.479  0.1232 -0.4098 -0.0349
 8270W        W21684  16.188  16.996   4.940 -0.2011  0.2740  0.0190
 8271W        W21685   6.969  12.811  13.814  0.0118  0.0230 -0.0123
 8272W        W21686   6.601  11.299   1.422  0.2856 -0.1286 -0.1888
 8273W        W21687  10.202  17.163   0.321 -0.3686  0.1290  0.1500
 8274W        W21688  10.719   0.658   9.728  0.3645  0.2213  0.1687
 8275W        W21689   0.831  11.170   0.898 -0.0219 -0.0570  0.1846
 8276W        W21690   5.972   1.837   0.915 -0.2320  0.0299 -0.1285
 8277W        W21691  12.259   3.088   0.178 -0.1423  0.2260 -0.1533
 8278W        W21692  13.296  17.434  13.570 -0.1581  0.1975 -0.3492
 8279W        W21693   2.799   9.970  15.954 -0.0141  0.5249  0.0096
 8280W        W21694   5.841   1.983  14.543  0.0751 -0.0540 -0.2427
 8281W        W21695  14.056  18.090   3.439 -0.2240 -0.1296  0.2086
 8282W        W21696   3.905  15.296  14.246  0.1351  0.2356 -0.0912
 8283W        W21697   6.332   9.740  12.771 -0.0159  0.3253 -0.1480
 8284W        W21698   3.523  12.256   5.874 -0.2262  0.1448  0.0595
 8285W        W21699   8.687  16.015   3.965  0.0881  0.0637 -0.1455
 8286W        W21700   9.692  15.667  11.345  0.2746 -0.0315 -0.0277
 8287W        W21701   3.602  18.196  13.928  0.4555 -0.0926  0.1491
 8288W        W21702  10.290   4.729  12.966 -0.1977  0.0063 -0.1115
 8289W        W21703  13.797   0.183  14.542 -0.0689 -0.3970 -0.4213
 8290W        W21704   0.225  10.102   6.869  0.0765  0.0333 -0.2827
 8291W        W21705   8.095   3.103  15.846  0.1894  0.1300 -0.3282
 8292W        W21706  15.956  11.175   5.310  0.0617  0.0318 -0.0286
 8293W        W21707   0.825   1.838  15.486 -0.4016 -0.0273 -0.1126
 8294W        W21708  11.862  13.651   4.204 -0.1165 -0.3262  0.1562
 8295W        W21709  12.584   3.410  12.858  0.3359  0.0258 -0.1076
 8296W        W21710   1.939   5.042   0.031  0.1386  0.2080 -0.1552
 8297W        W21711  11.421  11.586  14.022  0.1833 -0.0187 -0.0781
 8298W        W21712  16.803  13.240  14.890 -0.1726  0.2918 -0.3797
 8299W        W21713   5.649  12.565  15.525  0.0850  0.2716 -0.2467
 8300W        W21714   4.260   2.449   5.235 -0.2407  0.2856 -0.0431
 8301W        W21715   5.186   0.637  13.367 -0.4106  0.0680  0.2033
 8302W        W21716  18.201  15.945  15.598  0.1603  0.0829 -0.1393
 8303W        W21717   0.088   4.338  15.393  0.1233  0.0648  0.0571
 8304W        W21718   4.077  14.380   4.235 -0.1541  0.0204 -0.0021
 8305W        W21719  16.639   4.726  11.208  0.1356  0.0461 -0.1975
 8306W        W21720  15.258   9.040   0.050 -0.2298 -0.0504  0.0518
 8307W        W21721   7.639   7.829  15.694  0.0077 -0.0436 -0.1042
 8308W        W21722   8.962  13.929  14.634 -0.3526 -0.1670  0.0479
 8309W        W21723   1.086   6.014   3.170  0.0828  0.0638 -0.2681
 8310W        W21724  17.186   2.275  10.887  0.0603  0.3092 -0.1084
 8311W        W21725   0.310  11.410   3.301  0.0944  0.0871 -0.0509
 8312W        W21726  15.076   8.937  11.561 -0.0453  0.0442 -0.0968
 8313W        W21727  15.124  17.611  10.966 -0.0522 -0.0333 -0.0903
 8314W        W21728   5.841   6.208   6.849 -0.0457  0.2979 -0.0281
 8315W        W21729   1.642   3.004   2.249  0.4220  0.0460  0.1355
 8316W        W21730   4.933   9.373  14.190 -0.2257 -0.2958 -0.0266
 8317W        W21731   9.519   2.541   2.610  0.1021  0.0788 -0.1564
 8318W        W21732   0.740   8.155   4.094 -0.2386 -0.1041  0.2736
 8319W        W21733   1.741   6.342  11.990  0.1730 -0.1319 -0.0823
 8320W        W21734  13.759   0.105  11.764 -0.2840  0.0354 -0.1956
 8321W        W21735   9.895  11.430   4.633 -0.1395 -0.0007 -0.1155
 8322W        W21736   4.975  11.257  10.885  0.0199  0.0521  0.4004
 8323W        W21737  14.123   5.414  10.760 -0.0147  0.0985  0.0868
 8324W        W21738   9.827  12.268   0.326 -0.1702  0.0528 -0.0203
 8325W        W21739   3.661  10.654  10.401  0.0381  0.1526  0.1139
 8326W        W21740  15.769   5.024  11.998  0.1571 -0.1804 -0.0164
 8327W        W21741   6.009  16.081  16.156 -0.0003  0.0494 -0.0812
 8328W        W21742  18.026   4.825   0.139 -0.0060 -0.1370 -0.1661
 8329W        W21743   3.184  12.752   2.542 -0.0986 -0.0866  0.0658
 8330W        W21744  16.884  15.370  12.804  0.0287 -0.1649 -0.0903
 8331W        W21745   1.829  10.534  11.413 -0.0111  0.1294  0.0438
 8332W        W21746  15.034   7.050  16.164 -0.1566  0.3619 -0.3558
 8333W        W21747   8.583  14.171   3.446 -0.1890  0.0482  0.0383
 8334W        W21748  16.043  15.301   6.112  0.1263 -0.3420 -0.1117
 8335W        W21749   0.106   1.559   3.079  0.3738  0.0998  0.1265
 8336W        W21750   1.742   8.792   4.700  0.0744  0.3376 -0.0513
 8337W        W21751   6.279  15.643  15.286 -0.2754 -0.1383  0.0114
 8338W        W21752   8.186  11.778  15.339  0.1527 -0.1255 -0.2958
 8339W        W21753  16.576   1.002  16.094  0.2920  0.1212  0.3414
 8340W        W21754  17.515  14.500  15.127 -0.1917  0.1096  0.1842
 8341W        W21755  11.533  16.842   0.923 -0.0665  0.0653  0.1170
 8342W        W21756  14.787   5.735  12.711 -0.0909 -0.0144 -0.0598
 8343W        W21757  11.696  16.291  11.675  0.1955  0.0097 -0.1144
 8344W        W21758  10.558   1.493  12.911  0.2384  0.2377  0.3672
 8345W        W21759   7.506   7.362   2.264  0.1056  0.0469  0.1843
 8346W        W21760   6.490  18.149  15.683  0.0193  0.0396  0.0766
 8347W        W21761  10.845  15.377   1.113 -0.0544  0.2147 -0.3933
 8348W        W21762   0.335  10.023   1.965 -0.1877 -0.0556  0.0633
 8349W        W21763   6.485   6.396   3.745 -0.0198  0.0595 -0.0149
 8350W        W21764  13.777   6.771  15.433  0.1673  0.0391  0.0350
 8351W        W21765   5.370   0.295   0.006 -0.1885 -0.2386  0.0609
 8352W        W21766  16.346   6.761  15.522 -0.1655  0.0215 -0.0064
 8353W        W21767  10.910  15.634  15.567  0.0505  0.0754 -0.1495
 8354W        W21768   9.720  12.625   4.853  0.0605 -0.1417  0.3146
 8355W        W21769   3.979   4.619  13.930 -0.1490 -0.1788 -0.0757
 8356W        W21770  16.083   0.388  13.155  0.0683 -0.0690  0.0120
 8357W        W21771   3.045   4.859  13.230  0.0566 -0.2225 -0.1308
 8358W        W21772   7.681  15.429   0.287  0.0926 -0.1026  0.0098
 8359W        W21773   8.806   6.580  11.352 -0.0094  0.1520 -0.1240
 8360W        W21774  10.406  10.118   4.320  0.1971  0.2568 -0.3381
 8361W        W21775   1.992   5.067  15.667 -0.3208 -0.1112 -0.0834
 8362W        W21776  12.882   9.372   3.919  0.0691  0.0581 -0.2577
 8363W        W21777  15.796   3.093   1.218 -0.4228 -0.0332 -0.0849
 8364W        W21778  17.530  11.230  12.020 -0.1465  0.1723 -0.1434
 8365W        W21779   1.592   0.293   5.148  0.1729  0.0353  0.0632
 8366W        W21780  16.421  16.010  14.276  0.1354  0.1302 -0.1107
 8367W        W21781   3.028   7.927  13.466 -0.4292 -0.0247  0.0803
 8368W        W21782   3.060  17.465   5.602  0.2475 -0.2083 -0.2061
 8369W        W21783   6.381   6.535  14.057 -0.2754 -0.0746 -0.0067
 8370W        W21784  16.979  14.509  14.915 -0.1933 -0.1680  0.1069
 8371W        W21785  17.371   2.785   3.025 -0.0568  0.0089  0.0049
 8372W        W21786  15.197  14.173  14.317  0.2801 -0.2067  0.2420
 8373W        W21787   4.701  11.745  12.687 -0.0268  0.1424  0.3987
 8374W        W21788  10.273   0.451   2.025  0.0788 -0.1821  0.1087
 8375W        W21789  15.085  11.909   0.661 -0.0328  0.1701 -0.0563
 8376W        W21790   0.073   1.832   4.662 -0.3479  0.1745  0.2128
 8377W        W21791   1.921   3.714   0.624  0.1987  0.3601  0.2434
 8378W        W21792   5.773  15.584  10.615 -0.0219 -0.1705  0.1820
 8379W        W21793  13.855  16.421   5.096 -0.2075 -0.0127  0.2127
 8380W        W21794  14.301   4.949  15.091  0.0176 -0.0931 -0.3015
 8381W        W21795   4.349   7.385  13.012  0.0500 -0.0467 -0.2030
 8382W        W21796  15.465   8.607  15.368 -0.1336 -0.3144 -0.0386
 8383W        W21797  10.893  11.233   4.990 -0.1484  0.1888  0.0893
 8384W        W21798  11.566  16.944   3.286  0.0263 -0.2069  0.0362
 8385W        W21799  16.104   7.985  13.549 -0.0409 -0.1630  0.3214
 8386W        W21800  12.127   5.420   4.151  0.2879 -0.2912  0.1921
 8387W        W21801  10.328   8.256  16.277 -0.0367 -0.1962 -0.4609
 8388W        W21802  17.206  14.346   2.194  0.5223  0.2543 -0.1259
 8389W        W21803   1.674   8.488   6.189  0.0383  0.0324 -0.5779
 8390W        W21804   5.933   2.105  10.683 -0.4217  0.1642  0.0975
 8391W        W21805  10.877   3.026   0.524 -0.2048  0.1184  0.1817
 8392W        W21806   7.631   2.679   2.978 -0.1227  0.0261  0.0552
 8393W        W21807   5.067   8.582  12.852  0.3516 -0.0029  0.0867
 8394W        W21808   1.502   4.025   0.283 -0.0216  0.1726  0.0310
 8395W        W21809  16.920  16.990  16.468 -0.3561  0.0175  0.2846
 8396W        W21810  14.997   7.183   4.699 -0.3921 -0.0900 -0.2909
 8397W        W21811   0.419   9.804  13.541 -0.0266  0.0406  0.1832
 8398W        W21812   3.056  11.876  12.252  0.1292  0.3594  0.0556
 8399W        W21813   3.336  15.225  13.692 -0.3171  0.1070  0.2179
 8400W        W21814  10.422   8.788  16.016 -0.2919  0.2511  0.1058
 8401W        W21815   9.370   6.577   0.862 -0.3937 -0.1330  0.2168
 8402W        W21816   8.076   8.292   4.199  0.0388 -0.2378  0.0822
 8403W        W21817  16.717  15.677   4.351  0.0462  0.1282  0.1544
 8404W        W21818   4.215  15.879   2.498  0.0241  0.2042  0.0486
 8405W        W21819   4.860  10.607  15.530  0.0704 -0.1197  0.1241
 8406W        W21820   9.952   2.620  10.133  0.2054  0.1302 -0.0807
 8407W        W21821  18.201   7.682  16.053  0.0081 -0.0036  0.1241
 8408W        W21822  12.191  12.479  14.203 -0.0804  0.1118  0.0523
 8409W        W21823  11.822   2.383  12.436 -0.3248 -0.2229 -0.1049
 8410W        W21824  17.018   9.820   5.925 -0.1251  0.1403 -0.0244
 8411W        W21825   9.251  17.120  12.474  0.1151 -0.6646 -0.1027
 8412W        W21826   4.518  16.519   5.563  0.0366 -0.1753  0.0821
 8413W        W21827  10.090  11.695  12.261 -0.1625 -0.4111 -0.0947
 8414W        W21828  13.095  12.371   2.024 -0.0994  0.3626 -0.1281
 8415W        W21829  15.233  15.332  12.644  0.2034 -0.1696 -0.2583
 8416W        W21830  11.641   8.139  14.756  0.1094 -0.0173  0.0773
 8417W        W21831   0.655  16.063   2.542  0.1237 -0.2305 -0.0250
 8418W        W21832   5.700   1.144   3.439 -0.3177 -0.0193  0.2889
 8419W        W21833   8.480   2.400  14.397 -0.0264  0.0195 -0.0318
 8420W        W21834   4.652   6.963   5.924  0.3360  0.1605 -0.0624
 8421W        W21835   6.771  17.144   9.916 -0.3513  0.1079  0.1117
 8422W        W21836  13.268  12.532  13.768  0.4007  0.3043 -0.0820
 8423W        W21837   3.089  14.996  14.070  0.1387 -0.1421 -0.0859
 8424W        W21838   6.274  10.091  15.550 -0.0654 -0.1464 -0.0786
 8425W        W21839  11.165   8.373  15.633  0.0177 -0.0053 -0.0769
 8426W        W21840   4.821   8.094  15.936 -0.1853 -0.0314 -0.1230
 8427W        W21841   4.806  10.936   0.249  0.1287  0.2044 -0.1601
 8428W        W21842   8.326  13.999   5.323  0.2127 -0.1713  0.0931
 8429W        W21843   8.627  14.353   2.718  0.0580  0.0143 -0.1459
 8430W        W21844   1.322   2.986   4.727  0.1603 -0.0075  0.1111
 8431W        W21845   0.532   3.688  15.534 -0.0811  0.2639  0.0731
 8432W        W21846  11.302   5.060   2.686 -0.1788  0.1201 -0.0334
 8433W        W21847   8.085   4.213   3.305  0.0069  0.1585 -0.0049
 8434W        W21848  13.471  17.504  12.885  0.0606  0.0843  0.1684
 8435W        W21849   0.195  12.014   5.356 -0.0788  0.2386 -0.0186
 8436W        W21850   4.431   4.321   0.221 -0.2119  0.3246  0.0886
 8437W        W21851  14.178  15.997  10.349  0.1856  0.1721 -0.1280
 8438W        W21852  15.192   0.847   2.327 -0.1773  0.0225  0.2678
 8439W        W21853   9.734  13.726   3.916 -0.3732  0.0270  0.0419
 8440W        W21854  12.170   6.098   0.649  0.1544 -0.2234 -0.0089
 8441W        W21855  15.812   7.841   2.033  0.0878 -0.3633  0.1273
 8442W        W21856  17.682   7.721   1.915  0.2349  0.2384  0.0473
 8443W        W21857   3.526  16.090  15.974  0.3953  0.2053 -0.1460
 8444W        W21858   9.617  15.227   4.530 -0.0917 -0.0700  0.2128
 8445W        W21859  16.202   4.638  15.986  0.0363  0.1056  0.3601
 8446W        W21860  13.497   9.800   1.111 -0.0620  0.1411  0.0553
 8447W        W21861  17.432  17.624  10.707  0.0071 -0.0234  0.3342
 8448W        W21862   1.398  10.557   4.737  0.1787  0.0040 -0.0466
 8449W        W21863   4.780  10.602   3.997  0.0206  0.2489 -0.3703
 8450W        W21864  11.474  11.599  13.003  0.1808 -0.1879 -0.1299
 8451W        W21865  12.702   4.801   1.656  0.0923 -0.2714  0.1071
 8452W        W21866   4.186   2.069  16.365 -0.3603 -0.0077  0.1427
 8453W        W21867  15.784   0.645  13.541  0.0207  0.0641 -0.0697
 8454W        W21868  12.287   3.405   1.014  0.0089  0.0300 -0.0123
 8455W        W21869   0.377   0.419  12.273  0.0417 -0.0804  0.1953
 8456W        W21870  13.894  12.187  13.604  0.0462  0.1156  0.0548
 8457W        W21871  16.818  10.444  15.454 -0.3035  0.1949 -0.2122
 8458W        W21872   9.817  14.543   5.724 -0.1873  0.0014 -0.2563
 8459W        W21873   5.743  10.290   3.377 -0.0902  0.0858 -0.0552
 8460W        W21874   5.490  13.031   5.181  0.1198  0.1618 -0.0876
 8461W        W21875  11.455   7.187   5.470  0.0181 -0.3738  0.0175
 8462W        W21876  15.333   1.502   1.158 -0.0629 -0.1492  0.0491
 8463W        W21877  18.171  15.642   4.502 -0.2211  0.0371  0.3590
 8464W        W21878   1.476  15.972  12.772  0.0110  0.0735  0.1514
 8465W        W21879  10.958  13.070  12.419 -0.0368  0.0946  0.1492
 8466W        W21880  10.548   4.706   5.969  0.0070  0.1572  0.0097
 8467W        W21881   8.972   6.283  16.501  0.0197 -0.0387  0.1110
 8468W        W21882   0.214  12.903   5.088  0.0415 -0.2363 -0.1410
 8469W        W21883   4.169   2.370  13.466 -0.4343  0.1138  0.2900
 8470W        W21884  10.430   2.083  13.276 -0.0174 -0.0635  0.1273
 8471W        W21885  11.904  15.294  13.406  0.1796 -0.0680 -0.0244
 8472W        W21886   0.839   8.912   5.992  0.1382  0.0049 -0.1133
 8473W        W21887   9.370   0.360  11.400  0.0903 -0.0684  0.1656
 8474W        W21888  12.218   3.220  12.534 -0.2268  0.0535 -0.1659
 8475W        W21889  11.133   0.688   3.538  0.2296  0.1637 -0.2747
 8476W        W21890   1.794  17.907  12.872 -0.1183  0.2268  0.1084
 8477W        W21891  10.287   9.775   5.322 -0.0857  0.1435  0.1474
 8478W        W21892  15.436  13.187   3.178 -0.0200  0.1313 -0.2017
 8479W        W21893   3.888  12.057   4.659  0.2232  0.0592  0.0849
 8480W        W21894  16.724   6.352  13.862  0.0394 -0.0454 -0.3438
 8481W        W21895  16.086   5.901  14.594  0.0912  0.1111  0.1336
 8482W        W21896  17.312   3.299   2.988  0.1030  0.0981  0.3123
 8483W        W21897   7.487  11.351  11.421  0.0018  0.3243  0.2844
 8484W        W21898  12.708  13.275   2.107 -0.0810 -0.2451 -0.1308
 8485W        W21899   1.023  12.985  15.160 -0.2115 -0.2078  0.0474
 8486W        W21900   8.638  17.388   3.652 -0.2270 -0.0138 -0.2407
 8487W        W21901   8.863   4.870  13.521  0.0059  0.0576 -0.3150
 8488W        W21902  18.187   5.617   0.612  0.1845 -0.1772 -0.3179
 8489W        W21903   3.851   7.233   0.852 -0.2175 -0.2607 -0.2152
 8490W        W21904   3.867   3.532  12.091 -0.0057  0.0823 -0.2657
 8491W        W21905   1.519   9.857  14.465 -0.1979  0.3634  0.0312
 8492W        W21906   9.615  10.942  11.212  0.1955 -0.2900  0.2877
 8493W        W21907   0.055   3.186   2.464 -0.1793  0.0985  0.0447
 8494W        W21908  17.658   8.787  14.404  0.0144 -0.0356 -0.2699
 8495W        W21909   7.714  10.495   4.503 -0.1099 -0.4785 -0.2503
 8496W        W21910  13.000  17.489  15.365  0.0756  0.0783 -0.2835
 8497W        W21911   0.149  17.543  15.477 -0.1249  0.1872  0.0807
 8498W        W21912   8.988   8.600  15.782 -0.0146  0.0738  0.0135
 8499W        W21913  12.935   5.937   3.931 -0.2947 -0.3526 -0.1588
 8500W        W21914  12.772   2.378   3.717 -0.1080  0.1034  0.0308
 8501W        W21915  14.007  12.365   3.560  0.0613 -0.1671 -0.1709
 8502W        W21916   7.641   6.928  14.041 -0.1068 -0.2423 -0.1341
 8503W        W21917  16.190  12.534   2.592 -0.1241  0.0517  0.1382
 8504W        W21918  13.092   3.652  10.988  0.1243 -0.0755  0.2001
 8505W        W21919   5.218  14.107   2.973 -0.2547  0.1924 -0.2949
 8506W        W21920   0.923  17.739  11.745 -0.1690 -0.2996  0.0712
 8507W        W21921  12.883   7.413  16.239  0.0374  0.2855  0.0710
 8508W        W21922   4.107   5.663   5.435 -0.0337  0.0949  0.1212
 8509W        W21923   5.425  12.707  14.535 -0.0859 -0.0403  0.1162
 8510W        W21924   8.547  16.343  12.028 -0.1522  0.1241 -0.0800
 8511W        W21925  13.995  15.764   2.752  0.0614 -0.2191 -0.2715
 8512W        W21926  17.626   3.848  11.539  0.1941  0.3694 -0.1899
 8513W        W21927   6.978   2.239   3.772 -0.1523 -0.2218 -0.0587
 8514W        W21928   3.889  16.019   4.419  0.2027 -0.4486  0.1265
 8515W        W21929  10.037  16.344  15.047  0.2213  0.2251 -0.1541
 8516W        W21930   7.062   9.948   1.410  0.0168 -0.2066  0.0941
 8517W        W21931   5.753   3.109  15.411 -0.2112  0.2631 -0.0116
 8518W        W21932   9.237  16.798   3.583  0.2018  0.0991 -0.0685
 8519W        W21933   3.904  16.784  15.799  0.1332  0.2369 -0.1315
 8520W        W21934   0.464   5.930  14.131 -0.2646 -0.3360 -0.3875
 8521W        W21935   8.510   7.744   6.609  0.2210  0.2876 -0.1805
 8522W        W21936   6.081  13.921   3.064 -0.2826  0.0551 -0.0339
 8523W        W21937   8.191   4.800  14.254  0.1975  0.1175  0.0624
 8524W        W21938   1.638  17.096   4.202 -0.3090  0.1126 -0.0238
 8525W        W21939  13.673   4.334  14.915  0.1274 -0.0401  0.1035
 8526W        W21940  14.852   1.213   2.325  0.1113 -0.0884 -0.1226
 8527W        W21941  11.357  14.790   4.780 -0.1668  0.0435 -0.3098
 8528W        W21942   7.429   9.039  12.111 -0.0424 -0.1612 -0.1086
 8529W        W21943   8.850   2.419  12.780 -0.4274  0.0054  0.3456
 8530W        W21944   1.112  12.839  16.229 -0.1209  0.0218  0.0025
 8531W        W21945  12.066   4.599  14.278 -0.0507  0.0945  0.1988
 8532W        W21946  14.854   7.947   1.452  0.0468  0.1290 -0.0571
 8533W        W21947  18.066  10.824  10.711 -0.0853  0.2170 -0.0110
 8534W        W21948   9.762  16.976  11.568 -0.0138  0.2065  0.3902
 8535W        W21949   9.069  12.619   1.470  0.1252 -0.1439  0.1547
 8536W        W21950   9.818  16.564   2.641 -0.1336 -0.1614 -0.0975
 8537W        W21951   7.129   5.163   5.157 -0.0669 -0.0303  0.3337
 8538W        W21952  17.003  10.111   4.985 -0.2412 -0.2062  0.2055
 8539W        W21953  11.498  17.450   0.902 -0.1846 -0.1903  0.0536
 8540W        W21954   0.516  17.243   2.651 -0.0598 -0.0736  0.1661
 8541W        W21955   5.328  16.042  13.784  0.2423  0.0874  0.0187
 8542W        W21956  15.735  14.699  13.044  0.0603 -0.0721 -0.1780
 8543W        W21957  12.691   4.476  10.792  0.0418 -0.1539  0.1119
 8544W        W21958  12.047   6.328  15.037 -0.0512  0.0392  0.2981
 8545W        W21959   2.967  17.413   1.548  0.1191 -0.1387 -0.0627
 8546W        W21960   5.815   6.767   3.203  0.0798  0.0881  0.0940
 8547W        W21961   4.583   0.053   6.347 -0.0509  0.2477 -0.0634
 8548W        W21962  17.566  13.917   2.113 -0.1897 -0.1338 -0.0690
 8549W        W21963   4.370  16.588   1.479 -0.1143  0.0628  0.0737
 8550W        W21964  11.793   3.499   3.747 -0.2568  0.1374  0.1763
 8551W        W21965   9.981  16.580  11.772  0.2237 -0.2215  0.1225
 8552W        W21966  12.442   2.328  13.079 -0.2261  0.0832  0.0781
 8553W        W21967   3.444  16.630  14.921 -0.1254 -0.0472 -0.0790
 8554W        W21968   9.437  11.721   2.407  0.0674  0.0069  0.1544
 8555W        W21969  12.390  13.398  12.698 -0.0806 -0.1662  0.1605
 8556W        W21970   7.514  15.295  10.758  0.1066 -0.0190  0.1649
 8557W        W21971   4.983   8.454  16.237 -0.1383  0.2125  0.0095
 8558W        W21972   9.880   3.880  16.209 -0.1448  0.0028 -0.1138
 8559W        W21973   0.884  12.850  10.893  0.1763  0.0215  0.1233
 8560W        W21974  17.777   0.811   6.262 -0.0521 -0.0828  0.0163
 8561W        W21975  14.708   0.510   2.258 -0.2549 -0.0196  0.1345
 8562W        W21976  13.829   9.551   4.234  0.1067 -0.1528  0.4933
 8563W        W21977   9.787  10.143   1.875  0.0769  0.0047  0.2414
 8564W        W21978  16.748  13.364  12.793  0.0553  0.1113 -0.0493
 8565W        W21979   1.394   0.167  13.133  0.0124  0.2663  0.1821
 8566W        W21980  15.337   3.961  11.295  0.3316  0.1293 -0.2462
 8567W        W21981  17.553   7.283  16.469  0.1175 -0.0212  0.0302
 8568W        W21982   8.282  13.445  11.226  0.2570 -0.2368  0.0162
 8569W        W21983  17.704   1.865  14.087 -0.0993  0.0184 -0.0006
 8570W        W21984   8.965   0.022   1.691  0.2080  0.0571  0.1041
 8571W        W21985   8.474  15.388  15.777 -0.1228 -0.0131  0.2341
 8572W        W21986  14.235   5.136   4.720  0.2361 -0.1891  0.1417
 8573W        W21987   9.302  18.201  15.350 -0.0859  0.2436 -0.1373
 8574W        W21988  16.187  16.791   3.091 -0.0390  0.0373 -0.0211
 8575W        W21989   5.567   3.950   1.453 -0.2371 -0.3840 -0.0659
 8576W        W21990  14.437  10.307   4.275 -0.0324 -0.0241 -0.1616
 8577W        W21991  15.145  10.129   4.941 -0.2418  0.2679 -0.3866
 8578W        W21992  16.791   3.417   1.843 -0.2650  0.2645  0.5395
 8579W        W21993  17.109   7.542  10.495 -0.2062  0.1787 -0.0720
 8580W        W21994   4.502  10.198   5.039 -0.3871  0.1996 -0.1781
 8581W        W21995   4.987   5.930  14.634 -0.0622  0.1068  0.1574
 8582W        W21996   1.870  17.095  16.361 -0.1694  0.2205 -0.0315
 8583W        W21997   0.387   4.809   1.016  0.2696  0.3137  0.2687
 8584W        W21998   9.582   6.858  11.911  0.1899  0.0989  0.0789
 8585W        W21999  15.127   8.123  14.714  0.0887  0.0530 -0.0445
 8586W        W22000   7.376   8.934  12.906  0.1492  0.2620  0.4666
 8587W        W22001   8.970   9.022   5.022  0.0464  0.0883  0.1368
 8588W        W22002   4.746   2.874  12.208 -0.1505 -0.0992 -0.3893
 8589W        W22003   8.258  13.655  12.732 -0.2737  0.0651  0.2483
 8590W        W22004   5.875   7.094  16.106 -0.1901  0.0865  0.2173
 8591W        W22005  10.565   9.305   5.274  0.0335 -0.3178  0.3726
 8592W        W22006  13.029  11.665   6.292  0.2706  0.1238  0.1235
 8593W        W22007   2.731   7.094   5.854 -0.1691  0.1527 -0.0501
 8594W        W22008   8.079   4.860   0.328 -0.1701 -0.0347 -0.0918
 8595W        W22009  17.099   0.149   3.929  0.1194  0.2442  0.0345
 8596W        W22010   3.699   6.254   6.098 -0.3888 -0.1798 -0.1208
 8597W        W22011  11.017   2.218  12.728  0.1969  0.0631  0.1737
 8598W        W22012   4.856   4.725   5.468 -0.1008 -0.3066 -0.2651
 8599W        W22013   8.774  17.617  10.735  0.0323  0.1647 -0.4040
 8600W        W22014   4.860   3.249   5.213  0.0867  0.0888  0.2731
 8601W        W22015  14.942   8.555  12.724  0.2153 -0.2414  0.1700
 8602W        W22016   7.412  11.212   4.787  0.1425 -0.0690 -0.0107
 8603W        W22017  10.929  10.742   2.829  0.0087  0.2176  0.1497
 8604W        W22018   2.665  15.210  12.217 -0.1264  0.3470 -0.0226
 8605W        W22019   5.639  17.295  11.432 -0.0533  0.0420 -0.1365
 8606W        W22020  11.673  13.708  11.322 -0.3049 -0.2092  0.0719
 8607W        W22021  14.181  16.886   5.168 -0.1561  0.0002 -0.0294
 8608W        W22022  16.166  13.984   2.042 -0.2378  0.0665  0.1747
 8609W        W22023   5.437  12.796   0.135 -0.1690 -0.0518  0.3614
 8610W        W22024   7.717  18.114   3.622 -0.0936  0.0912  0.0993
 8611W        W22025  17.361   2.249  15.422 -0.2110  0.0697 -0.2677
 8612W        W22026  10.070  10.566  13.001  0.0059  0.0596 -0.1318
 8613W        W22027   6.721   7.419   1.404  0.2190 -0.4468 -0.1842
 8614W        W22028  17.409   0.756  15.347  0.3243 -0.2645  0.4575
 8615W        W22029   1.464   4.458   5.486 -0.1725  0.2160 -0.0130
 8616W        W22030   0.159   4.539   4.124 -0.0128  0.1052 -0.0919
 8617W        W22031  15.414   6.303  12.603  0.2277 -0.1797 -0.2987
 8618W        W22032  13.752   6.812  16.360 -0.2068  0.2212 -0.0596
 8619W        W22033   0.141   8.987  12.952  0.1900  0.0968 -0.3133
 8620W        W22034   1.200  16.278   4.992  0.3148  0.1979  0.0990
 8621W        W22035   9.104   3.293   1.146  0.0798  0.1075  0.0796
 8622W        W22036   4.807  12.103   0.327 -0.0911 -0.0337 -0.0658
 8623W        W22037  16.649   7.739  12.816  0.0426 -0.2280  0.0903
 8624W        W22038  10.553   3.547   0.878 -0.2075  0.2364 -0.0090
 8625W        W22039  15.048  10.916   3.722  0.2241 -0.1311  0.0009
 8626W        W22040  14.305   3.045   4.956 -0.1454 -0.2492 -0.0177
 8627W        W22041   1.040   8.574   5.052 -0.1631  0.0277 -0.1408
 8628W        W22042  16.394   2.417  14.964 -0.0353 -0.0352 -0.0118
 8629W        W22043  12.171   7.744   6.643  0.1393  0.0964 -0.1633
 8630W        W22044  16.740  14.625  12.948 -0.0683 -0.2727 -0.1493
 8631W        W22045  12.074   1.234  14.504  0.1172 -0.3662  0.1227
 8632W        W22046  12.971  11.226  14.958 -0.0949 -0.1692 -0.0177
 8633W        W22047  11.934  13.549   2.383  0.1016 -0.2628  0.1986
 8634W        W22048   0.667   1.223  12.011 -0.5030 -0.0967  0.1398
 8635W        W22049   7.914  12.291  13.713  0.4131 -0.1283  0.0164
 8636W        W22050  10.698   3.640   1.616 -0.3137 -0.1858  0.1821
 8637W        W22051  10.017  14.556  15.584  0.0615 -0.1285 -0.0869
 8638W        W22052   8.793   0.718  15.101 -0.1035 -0.0661  0.0785
 8639W        W22053   3.041   6.118   3.622 -0.2334 -0.0277  0.2094
 8640W        W22054   4.097  17.907  16.210  0.0271 -0.0156  0.0370
 8641W        W22055   7.117   2.805  14.553  0.1446  0.0791  0.2155
 8642W        W22056  14.389   5.973  14.689 -0.1908 -0.1197 -0.0215
 8643W        W22057  14.813  12.646   4.746 -0.3092  0.0739 -0.0467
 8644W        W22058  10.683   9.608  14.832  0.0710 -0.0619 -0.0037
 8645W        W22059   3.304   1.036   3.800  0.4049 -0.1982 -0.1868
 8646W        W22060  10.286  16.435   2.604  0.0088 -0.2231 -0.1602
 8647W        W22061  18.181  12.956  14.057  0.3482 -0.0655  0.0088
 8648W        W22062   0.376  12.780  10.626  0.0753 -0.1156 -0.3348
 8649W        W22063   5.687  11.801  14.391 -0.3073 -0.1891 -0.0311
 8650W        W22064  12.153  17.327   9.531 -0.0282 -0.2038 -0.0624
 8651W        W22065  12.541  13.141  16.442 -0.1529  0.3224  0.0450
 8652W        W22066   0.367   6.396  16.179  0.0936 -0.1337 -0.1386
 8653W        W22067   8.854  10.410   4.315 -0.3835 -0.3374  0.4417
 8654W        W22068   1.216   3.893   3.668  0.1139 -0.0250 -0.4697
 8655W        W22069   3.994   9.762  12.226 -0.1739  0.0374 -0.2004
 8656W        W22070   2.399  13.160   1.728  0.3399 -0.2353 -0.1887
 8657W        W22071  13.105  11.933   4.654 -0.0300 -0.0631  0.1615
 8658W        W22072   5.374  13.190   4.149 -0.1825 -0.2872 -0.1979
 8659W        W22073   7.782   3.205   0.466 -0.2437 -0.0645 -0.0210
 8660W        W22074   4.661  17.999   3.495 -0.3047 -0.4497 -0.0087
 8661W        W22075   4.731  10.336  12.395 -0.0080 -0.1956 -0.2540
 8662W        W22076   6.785  15.663  13.282 -0.0580 -0.0462  0.1269
 8663W        W22077   5.232  15.145   1.007 -0.2214 -0.0879  0.1558
 8664W        W22078   9.245   1.955   2.379 -0.0958 -0.0993  0.0728
 8665W        W22079   1.905   2.217  15.702  0.1497  0.0481  0.0748
 8666W        W22080  11.878   5.106  12.845 -0.2577  0.0817  0.0585
 8667W        W22081   5.881   3.479   2.858 -0.0878 -0.0055 -0.1750
 8668W        W22082  14.122   6.809   5.300  0.3512 -0.1062  0.1217
 8669W        W22083  16.193   8.942  14.619 -0.0826 -0.1328  0.0511
 8670W        W22084   0.264  10.943  16.088  0.0813  0.0857  0.1847
 8671W        W22085   9.872  13.303  10.112 -0.0484  0.1637 -0.3454
 8672W        W22086  15.937   3.550   1.532  0.0642  0.0863  0.0728
 8673W        W22087   0.261  10.665  11.230 -0.1233  0.2459  0.3037
 8674W        W22088   8.226   5.295  12.391 -0.2692  0.2276  0.2158
 8675W        W22089  11.011   4.206  13.082  0.0099  0.1643 -0.1017
 8676W        W22090   4.112   7.576   5.763  0.1915 -0.0961  0.0429
 8677W        W22091   3.909   6.314  12.235 -0.0993 -0.1120 -0.1490
 8678W        W22092  17.889  14.178   3.465 -0.1737 -0.1719  0.1278
 8679W        W22093  14.054   0.752  11.210  0.0792 -0.0013  0.0824
 8680W        W22094   7.899   2.518  15.887  0.1968 -0.0071  0.0812
 8681W        W22095  12.541  13.640  15.737 -0.0391 -0.0436  0.0499
 8682W        W22096  14.503   6.540   2.070  0.1114  0.0793 -0.3198
 8683W        W22097  17.626   8.685  12.425 -0.1380 -0.0301 -0.0082
 8684W        W22098   6.679  17.142   1.069  0.2965 -0.0368 -0.0578
 8685W        W22099  13.485  10.297   1.982 -0.2779 -0.1586  0.0930
 8686W        W22100  15.482  12.797  13.301 -0.1119 -0.1778  0.0316
 8687W        W22101   5.245  15.380   2.038  0.2630  0.1154 -0.3036
 8688W        W22102   6.379  13.378  15.222 -0.4384  0.0529 -0.3031
 8689W        W22103   9.535  16.067   4.247  0.2734  0.0099  0.3392
 8690W        W22104  16.885  11.516  11.225  0.1449 -0.1007  0.0186
 8691W        W22105   8.862  10.813   2.490  0.0825 -0.2985  0.1273
 8692W        W22106  12.762   0.672  14.774  0.0523  0.0245 -0.0239
 8693W        W22107  18.218   2.892  13.690 -0.2075  0.2202 -0.3102
 8694W        W22108  16.618   8.413   2.991  0.2425  0.3276 -0.0743
 8695W        W22109   7.889  11.221   4.659  0.2185 -0.1352  0.1328
 8696W        W22110  12.938  12.709  10.140  0.2602 -0.2122  0.3746
 8697W        W22111   1.257   5.134  14.421 -0.1490 -0.1270  0.1477
 8698W        W22112   0.932   7.483   6.163 -0.3547 -0.0426  0.0584
 8699W        W22113  10.832   0.106  16.040  0.0022  0.4260 -0.1244
 8700W        W22114   3.457   2.440  14.765 -0.2220  0.1750  0.2340
 8701W        W22115   6.261  16.792   5.032 -0.2405  0.0867  0.1294
 8702W        W22116  12.429   9.304  12.573  0.0467 -0.3030 -0.1615
 8703W        W22117  12.103  15.949   3.043 -0.2159  0.0987 -0.1290
 8704W        W22118   4.907   2.670   5.979  0.4190  0.2069 -0.2558
 8705W        W22119   3.708  16.958   5.697 -0.2832 -0.0861 -0.1953
 8706W        W22120   4.959  12.387   5.552  0.0310 -0.0266  0.0808
 8707W        W22121  15.076   5.173   1.257 -0.0455  0.1195  0.0017
 8708W        W22122  17.730   5.581   2.227 -0.2701  0.0040  0.0995
 8709W        W22123  10.338   5.130  13.251  0.1718 -0.1801  0.3066
 8710W        W22124   6.147  13.473   4.045  0.0712 -0.0451  0.3291
 8711W        W22125  11.787   8.487  11.665 -0.3743  0.1959  0.0897
 8712W        W22126   6.438   2.328  12.660 -0.1334 -0.3061 -0.2874
 8713W        W22127   4.817   4.427  12.034  0.1783  0.1310  0.0432
 8714W        W22128   2.058  14.919   2.481  0.0310 -0.2082  0.0945
 8715W        W22129   8.747   6.986   0.375 -0.1168 -0.0694  0.2974
 8716W        W22130   7.016   3.036  11.888  0.0436 -0.0782  0.0780
 8717W        W22131  12.444   5.664  14.274  0.1052  0.2645 -0.2544
 8718W        W22132  12.622  16.509   4.364  0.0482  0.0030  0.0536
 8719W        W22133  10.291   3.253   2.795  0.0957  0.1443  0.0419
 8720W        W22134  15.005  14.158  15.197 -0.0324 -0.0999  0.0524
 8721W        W22135   2.335   8.629   0.008  0.0555  0.0100 -0.1833
 8722W        W22136   4.935   0.247   9.697  0.0481  0.1285 -0.1923
 8723W        W22137   1.529   7.967   3.852 -0.3308 -0.2299 -0.2456
 8724W        W22138   4.741   9.263   3.294 -0.0788 -0.0531 -0.2905
 8725W        W22139   6.558   1.558   4.426  0.0339 -0.1510 -0.3995
 8726W        W22140   8.866   8.671   4.660  0.0130 -0.1328  0.0112
 8727W        W22141   3.049  15.694  15.962  0.1808 -0.2065  0.0384
 8728W        W22142   4.507   5.496   0.717  0.2452 -0.0564  0.0239
 8729W        W22143   1.002   8.159   3.350  0.1872 -0.0176 -0.0001
 8730W        W22144   5.521   7.389   0.821 -0.1250  0.0801  0.0727
 8731W        W22145  13.984   2.103  15.624 -0.1598  0.1557 -0.0365
 8732W        W22146   6.861  11.069   1.821  0.0288  0.2977 -0.1615
 8733W        W22147   7.675   4.335   4.184 -0.0413 -0.0580 -0.0533
 8734W        W22148   6.270   1.734  14.667  0.2168  0.4461  0.0480
 8735W        W22149   7.774   9.468   2.774 -0.4099  0.0633  0.1843
 8736W        W22150   8.441   1.758   2.447 -0.1465  0.2791  0.0894
 8737W        W22151   8.513  17.005  12.906  0.0890  0.0191  0.0639
 8738W        W22152   0.698   4.174  14.096 -0.0314 -0.3975  0.0225
 8739W        W22153  12.841   3.407  11.803 -0.5113 -0.2644 -0.0217
 8740W        W22154   6.011  16.400   4.905  0.2440  0.0998  0.1741
 8741W        W22155   8.757  16.875   4.920 -0.2827 -0.0026 -0.1191
 8742W        W22156   4.677  16.674   4.072 -0.3203  0.0386  0.1585
 8743W        W22157  12.865   0.276  13.074 -0.0629  0.3879 -0.0672
 8744W        W22158   2.265   9.508  12.634 -0.3292  0.0004 -0.0394
 8745W        W22159  15.483  16.781  10.767 -0.5266 -0.2568  0.2087
 8746W        W22160  13.420  17.271  11.601  0.1168 -0.0496 -0.1496
 8747W        W22161  14.645   8.402  13.183  0.0437 -0.0385 -0.1483
 8748W        W22162   2.583   5.093  10.305  0.1499 -0.0226  0.0015
 8749W        W22163  16.723  11.389  15.374 -0.0598  0.1332  0.2206
 8750W        W22164   8.551  17.827   0.997  0.1567 -0.0752  0.0647
 8751W        W22165  11.448  10.380   5.491 -0.2405  0.1886  0.1992
 8752W        W22166  14.321   7.737  12.876 -0.0161 -0.1430 -0.4198
 8753W        W22167   9.837  11.168   3.583  0.2548  0.2492 -0.0341
 8754W        W22168  11.249  17.653  10.059 -0.0565 -0.1583 -0.1556
 8755W        W22169  17.432  12.404  14.374  0.0448 -0.1593  0.1000
 8756W        W22170  18.147  17.175  15.265  0.0055  0.2116 -0.0858
 8757W        W22171   2.494  12.999  10.178  0.1989  0.0827  0.0556
 8758W        W22172   0.714  16.648  13.622 -0.0862 -0.2034  0.1436
 8759W        W22173   8.286   7.929   5.004  0.0280  0.0537 -0.0563
 8760W        W22174  16.212   7.315   4.691 -0.2337 -0.0038  0.0086
 8761W        W22175   3.500   3.258  16.033  0.2019  0.1578 -0.3685
 8762W        W22176   5.496   2.701  14.636  0.0911  0.3112 -0.3263
 8763W        W22177   9.276   2.181  14.182 -0.2313  0.0058  0.0897
 8764W        W22178   9.924   2.458   4.177 -0.0504 -0.0958 -0.1287
 8765W        W22179  12.651  11.825   4.894  0.1376  0.2694  0.1215
 8766W        W22180  16.808   3.673   2.423  0.1026 -0.1649  0.1930
 8767W        W22181  15.103   5.692   3.677 -0.0975  0.0183 -0.0916
 8768W        W22182   7.895   5.294   4.583 -0.0198  0.0465  0.1706
 8769W        W22183  15.135  12.410   5.711  0.1684 -0.1132  0.1215
 8770W        W22184  11.471  12.759   4.060 -0.0535 -0.0512  0.1942
 8771W        W22185   2.071   1.168   5.999  0.0461  0.1397 -0.3925
 8772W        W22186   4.582  17.911   2.171 -0.3024  0.0564  0.1908
 8773W        W22187   2.929   4.186   5.074  0.1527  0.4989  0.0803
 8774W        W22188   2.026  11.008   2.994 -0.0312  0.0419  0.1135
 8775W        W22189  16.667  15.280  15.694 -0.1560 -0.1575 -0.1011
 8776W        W22190  13.972  17.721  11.006 -0.3578  0.2261 -0.1629
 8777W        W22191   2.603   3.125  14.954  0.1630 -0.2659 -0.0396
 8778W        W22192   9.382   6.534  14.099  0.0111 -0.0251 -0.1317
 8779W        W22193   8.734  16.588  13.084 -0.1781 -0.0392 -0.1489
 8780W        W22194   9.533   1.033   4.051 -0.0834  0.1877 -0.0841
 8781W        W22195   1.216  16.338  12.981 -0.0616 -0.0558 -0.3001
 8782W        W22196   0.376   1.979  15.460  0.2639  0.4928 -0.1551
 8783W        W22197   6.842  15.695  14.249 -0.0189 -0.5558 -0.1656
 8784W        W22198   1.260   7.720   5.789  0.0091  0.0244 -0.0324
 8785W        W22199   5.505   8.454   6.016 -0.0495  0.2597 -0.2544
 8786W        W22200  13.287   3.407   1.493  0.2119 -0.0751 -0.2537
 8787W        W22201  13.956  15.780   0.229  0.0533 -0.1688  0.1801
 8788W        W22202   2.559  16.365   4.729  0.0798 -0.1541 -0.2055
 8789W        W22203   2.822   9.078  13.355 -0.1226  0.4266 -0.0269
 8790W        W22204   5.888   5.533   3.791  0.1083 -0.0361 -0.0461
 8791W        W22205  11.088   5.797   5.295 -0.3162  0.0221  0.1514
 8792W        W22206   8.400   6.877  15.123  0.0090  0.2357 -0.2635
 8793W        W22207  14.291  12.735   2.674 -0.2147  0.4043  0.2057
 8794W        W22208   6.638  16.961  15.658  0.1166  0.2299 -0.1697
 8795W        W22209  12.681  13.635  16.353  0.2344  0.2105  0.2373
 8796W        W22210  16.140  18.025   4.622  0.1240 -0.1682 -0.0400
 8797W        W22211   3.983  12.457  12.750 -0.0058 -0.1274 -0.0756
 8798W        W22212  16.194  16.615   5.241  0.0068 -0.2459  0.0586
 8799W        W22213  12.627  15.041   9.742  0.0500 -0.1098  0.2252
 8800W        W22214  12.955  14.459   2.725  0.3107  0.1873 -0.1630
 8801W        W22215  16.450  17.911  10.738 -0.0968  0.0934 -0.0314
 8802W        W22216   4.353  16.947  12.580 -0.1674  0.2365  0.2115
 8803W        W22217   3.068   6.042   3.099  0.1319  0.0717 -0.1028
 8804W        W22218   2.518   7.157   4.863  0.0704  0.0042  0.2460
 8805W        W22219  13.563  10.881  15.293 -0.3204 -0.2517 -0.2116
 8806W        W22220  16.317   9.481   4.283  0.1377  0.2060  0.1008
 8807W        W22221  16.319   8.804   2.836 -0.2090  0.2591  0.0665
 8808W        W22222  14.313  13.141   4.542 -0.3074 -0.2171 -0.1928
 8809W        W22223   5.361   0.856   1.117 -0.2303  0.0623 -0.2890
 8810W        W22224   1.363   8.556  15.450 -0.0287  0.0762 -0.1792
 8811W        W22225  13.941   1.829  13.987  0.1612  0.0177 -0.0782
 8812W        W22226  16.283  14.052  15.028 -0.3629  0.4207  0.2391
 8813W        W22227   7.504  11.689  14.758 -0.0483  0.3557 -0.0210
 8814W        W22228  11.404   9.900  12.012  0.0990 -0.0535 -0.0259
 8815W        W22229  10.417  13.472   0.110 -0.1443 -0.0033 -0.0488
 8816W        W22230   6.520  17.815   3.790 -0.2323  0.0485  0.3030
 8817W        W22231  15.635   1.636  14.566 -0.0474  0.0149  0.0706
 8818W        W22232   5.995  14.159  13.738  0.0124  0.0096  0.0559
 8819W        W22233  15.826  17.765   2.171  0.0469  0.0080 -0.2975
 8820W        W22234  13.289   4.399   2.917 -0.2787 -0.1280 -0.0943
 8821W        W22235  14.306   8.864   3.847 -0.1435  0.1306 -0.0837
 8822W        W22236  10.789   4.207   3.204  0.0872  0.2456 -0.4976
 8823W        W22237   1.765   6.676  16.196 -0.0993 -0.1739  0.0570
 8824W        W22238  11.847   9.767   5.026 -0.2544  0.1406  0.0507
 8825W        W22239  12.178   0.672  13.438  0.0033 -0.0862  0.4953
 8826W        W22240   5.565   1.713  12.845 -0.0370 -0.3868 -0.1476
 8827W        W22241   5.933   7.120   3.500  0.2280  0.0095 -0.1905
 8828W        W22242  10.960   8.836  12.790  0.2961  0.1108 -0.0228
 8829W        W22243   4.731  12.778   6.241  0.2080 -0.1280 -0.0639
 8830W        W22244   8.039   3.445  12.821 -0.2803 -0.0610  0.2997
 8831W        W22245   2.726  13.632   4.101  0.2388 -0.3913  0.2296
 8832W        W22246   1.472   9.216   6.597 -0.1559 -0.0855 -0.2426
 8833W        W22247  12.545  10.527  11.518 -0.0279  0.1371  0.2483
 8834W        W22248  16.367   0.624  11.720 -0.1197  0.0205  0.2723
 8835W        W22249  17.421  17.007  16.393 -0.1954  0.0180  0.0573
 8836W        W22250   4.515   2.484   0.112  0.0100 -0.0551 -0.2156
 8837W        W22251   5.330   3.645  11.125 -0.2580  0.0129 -0.1167
 8838W        W22252   5.924   5.507  14.236  0.1301 -0.2753 -0.2507
 8839W        W22253  10.464   0.968  11.016 -0.1448  0.4071  0.2182
 8840W        W22254  11.772   8.001  12.114  0.1159  0.2081 -0.1181
 8841W        W22255   3.878   8.114   5.529  0.1959 -0.0409 -0.2344
 8842W        W22256   4.274   2.174   1.095  0.0210  0.0091  0.1820
 8843W        W22257   3.288   6.239  11.526 -0.2304  0.4251  0.2531
 8844W        W22258   3.042   7.968  16.250 -0.2201 -0.1794  0.3164
 8845W        W22259   0.201  15.268   4.699  0.0789 -0.0594 -0.1297
 8846W        W22260  15.492   3.628   3.525  0.0563  0.1608 -0.0295
 8847W        W22261   1.044  10.844   3.693 -0.3225 -0.2111 -0.0615
 8848W        W22262   6.727  12.144   1.157  0.0156 -0.0091  0.2394
 8849W        W22263   0.703   5.320  11.434  0.1653  0.3032  0.1101
 8850W        W22264   4.837  12.019  11.342  0.1256 -0.0984  0.1159
 8851W        W22265  11.306  15.493  13.918  0.1445 -0.4000 -0.1943
 8852W        W22266  17.072  10.098  16.297  0.0797 -0.0654  0.1755
 8853W        W22267  12.272   5.471  15.366  0.1036  0.0134  0.3522
 8854W        W22268  15.410  12.785   0.685  0.0464  0.1696  0.0705
 8855W        W22269  10.906   9.847  10.698  0.1420 -0.2189 -0.1730
 8856W        W22270   5.424   8.897   1.318  0.1191 -0.4496  0.1845
 8857W        W22271   3.751   4.469  13.534 -0.1211 -0.2146  0.0918
 8858W        W22272   5.265   9.757   5.069  0.3802  0.2841  0.2663
 8859W        W22273   9.928  10.998   0.955  0.1821  0.0605 -0.2023
 8860W        W22274   6.835  17.103  14.090  0.0068 -0.0042  0.0412
 8861W        W22275  14.080  18.005  14.546  0.2652 -0.4059 -0.1573
 8862W        W22276  17.947  13.978   1.094 -0.2121 -0.0232 -0.1579
 8863W        W22277   2.570  11.829   2.900  0.1728 -0.1293  0.4905
 8864W        W22278  12.969   5.131   1.251 -0.3326 -0.2085  0.4830
 8865W        W22279  13.339   4.347   1.395 -0.0244  0.1061  0.0014
 8866W        W22280   6.645   0.160  12.835 -0.1153  0.1490  0.1499
 8867W        W22281   8.641  13.763  11.423 -0.0353  0.0604  0.1509
 8868W        W22282   7.392  10.066  11.049  0.1739 -0.2565  0.3769
 8869W        W22283  10.010  16.077  11.291  0.2448 -0.1433  0.1262
 8870W        W22284   5.821   2.368  12.981 -0.0058 -0.1132  0.0134
 8871W        W22285   0.763   4.552  16.515 -0.0373 -0.0590 -0.1465
 8872W        W22286  10.368   5.331   1.208 -0.2488  0.1044  0.0022
 8873W        W22287   6.060   7.738   0.173 -0.0734 -0.2131 -0.1784
 8874W        W22288   9.367   4.225   2.247 -0.0491 -0.2910 -0.0079
 8875W        W22289  12.370   2.669   3.644 -0.1701  0.1723 -0.3034
 8876W        W22290  16.616  14.833   4.349 -0.1897  0.3082 -0.0505
 8877W        W22291   0.617   9.996  14.561 -0.0825  0.0925 -0.0233
 8878W        W22292  18.135   6.524  11.520 -0.3671 -0.1503  0.1846
 8879W        W22293   0.363   3.124  13.135 -0.3149 -0.2538  0.1025
 8880W        W22294   4.950  17.634   0.154  0.0529 -0.0102 -0.1383
 8881W        W22295  15.128  10.502  16.150 -0.3447  0.0304 -0.0468
 8882W        W22296   1.704   6.301   4.897  0.0309 -0.0397  0.0785
 8883W        W22297   3.408   2.401   4.998  0.0008 -0.1572 -0.3344
 8884W        W22298   2.460  14.094   0.154  0.0424  0.1443 -0.0091
 8885W        W22299   7.794  15.576   5.545  0.0759 -0.4479  0.0295
 8886W        W22300   6.820   5.806  13.624 -0.0844  0.1646  0.0077
 8887W        W22301   6.336   3.168   0.222  0.1181  0.0373 -0.0149
 8888W        W22302   4.485  15.618   2.930 -0.0564 -0.1242 -0.1806
 8889W        W22303  12.109  17.762  10.694 -0.2037 -0.0492  0.1954
 8890W        W22304  13.601  13.678  11.516  0.3842 -0.1428 -0.1164
 8891W        W22305   4.918   9.718   5.837  0.1412  0.3593  0.1700
 8892W        W22306  12.157   7.024   1.427  0.0285 -0.0230  0.1883
 8893W        W22307  17.535   9.194  14.633  0.1056  0.0733  0.1961
 8894W        W22308   4.127   0.419  15.149 -0.0693 -0.2130 -0.0538
 8895W        W22309  17.314   8.122   3.521  0.3558 -0.0759  0.4210
 8896W        W22310   3.400  16.297  13.908 -0.0306 -0.1975 -0.0683
 8897W        W22311  16.575   1.766   1.746  0.1282 -0.0360 -0.0075
 8898W        W22312  17.404   5.876  10.708  0.1064  0.2576  0.2689
 8899W        W22313  10.886   3.099  16.455  0.1172  0.0278  0.0480
 8900W        W22314  18.194  17.015   3.458 -0.1687  0.0398  0.1945
 8901W        W22315  13.235  13.951   2.781 -0.1842 -0.2239 -0.0069
 8902W        W22316  15.474   6.688   0.280  0.0023 -0.1716  0.1833
 8903W        W22317   1.059   2.170  15.844  0.1590  0.0468 -0.1083
 8904W        W22318   0.603   3.334   6.610  0.1162  0.0352  0.1649
 8905W        W22319  12.340  13.372   3.987 -0.0852 -0.0713 -0.0968
 8906W        W22320   6.474  13.147   4.202 -0.1040 -0.0839  0.0162
 8907W        W22321   4.594  14.141  13.858  0.2523 -0.1760  0.1579
 8908W        W22322   3.761   3.262  16.497 -0.1363  0.3409 -0.2382
 8909W        W22323   3.064   3.917  15.894 -0.0181  0.3353  0.1748
 8910W        W22324   3.364  12.611   4.315 -0.0252 -0.2310  0.3958
 8911W        W22325   6.264  10.790   3.486 -0.1982 -0.1664  0.1108
 8912W        W22326   9.213  12.700  15.229 -0.1812  0.1249  0.1537
 8913W        W22327  14.972   1.375   0.772  0.0337 -0.3683 -0.1820
 8914W        W22328   3.930  17.366   9.794 -0.1683 -0.3462 -0.0251
 8915W        W22329   1.142   4.079   6.327 -0.1733  0.0623  0.0854
 8916W        W22330   8.267   9.710  15.683  0.2823 -0.0579 -0.0776
 8917W        W22331  14.147   8.216  12.997  0.2139  0.1683 -0.1271
 8918W        W22332   3.624   4.076   3.159  0.1402 -0.0236  0.2603
 8919W        W22333   9.477  10.401   0.277  0.2153  0.0261 -0.0248
 8920W        W22334   9.324   1.712   1.449 -0.4185 -0.1220 -0.2677
 8921W        W22335  15.660   1.483   3.513  0.1008  0.0342 -0.1511
 8922W        W22336   3.543   9.489   0.251 -0.1283 -0.2012  0.1479
 8923W        W22337   4.919   5.277  13.604 -0.0145  0.0422  0.0612
 8924W        W22338   1.655   5.553   2.522 -0.3022 -0.3324  0.1047
 8925W        W22339   9.574   9.212   0.680  0.0929  0.0477 -0.0263
 8926W        W22340   5.075   0.501  10.740 -0.0872 -0.0575  0.0113
 8927W        W22341   6.188   4.538   0.987 -0.0013  0.0387 -0.0100
 8928W        W22342   2.645   4.229  12.602 -0.1998 -0.1571 -0.1122
 8929W        W22343  11.688  13.382  14.706  0.1176 -0.2937 -0.0856
 8930W        W22344   9.290   1.466   2.446  0.4243 -0.2861 -0.2588
 8931W        W22345  17.401  16.745  14.042 -0.0635  0.0557 -0.2828
 8932W        W22346   4.330   8.264   5.602  0.1018  0.1255  0.0644
 8933W        W22347   0.299   6.706  11.220 -0.1337  0.0822  0.1797
 8934W        W22348   9.988  11.989   0.856  0.0464  0.2049 -0.2564
 8935W        W22349   4.307   9.285   1.454  0.3211 -0.1204 -0.0238
 8936W        W22350  10.742   9.213   6.019  0.0453 -0.0705  0.1298
 8937W        W22351   3.523  11.734   3.247  0.2879  0.0170  0.0498
 8938W        W22352  13.320  10.635   2.876  0.1330  0.3975 -0.1280
 8939W        W22353  12.210   3.489  15.539 -0.2736  0.0641  0.2403
 8940W        W22354  16.703   7.670   4.065  0.1837 -0.2127  0.1451
 8941W        W22355  16.194  15.686  13.943 -0.0745 -0.1891 -0.0628
 8942W        W22356  10.932   2.498  15.737 -0.0133  0.0623  0.1600
 8943W        W22357   6.802   4.930  16.439  0.2274 -0.5650  0.0764
 8944W        W22358   4.604   2.994  14.527 -0.2109  0.1756  0.1898
 8945W        W22359  17.304   1.607  11.925  0.3340  0.2113  0.0769
 8946W        W22360  16.350   2.120  13.554 -0.1754 -0.2403 -0.0543
 8947W        W22361   8.683   2.058  12.985 -0.2309  0.1703  0.0234
 8948W        W22362   1.068  10.389   2.473  0.1991 -0.0751  0.0377
 8949W        W22363   4.190   3.868   4.215  0.0950 -0.0797  0.0133
 8950W        W22364   7.515   2.165  15.861 -0.0412  0.0025 -0.0942
 8951W        W22365   6.318   5.568  13.429 -0.0608 -0.2024  0.0787
 8952W        W22366   9.029   2.953  15.594  0.0700  0.0683  0.3450
 8953W        W22367   9.842  10.021   5.071  0.3117 -0.1201  0.1097
 8954W        W22368   0.081   2.748   5.890  0.0752  0.0053 -0.2434
 8955W        W22369   9.745   3.185   2.727 -0.0265  0.2137  0.1372
 8956W        W22370   1.481   3.720   4.736 -0.1690 -0.1779 -0.1541
 8957W        W22371  16.471   8.268  14.220 -0.2001 -0.0862  0.0537
 8958W        W22372   1.792   0.497  11.018 -0.2644 -0.1196  0.1134
 8959W        W22373  11.466  11.791  11.690  0.0031  0.0802 -0.3146
 8960W        W22374   7.060   0.187  15.444  0.2535 -0.3197  0.0610
 8961W        W22375   6.555  17.142   5.353  0.2755  0.0658  0.1962
 8962W        W22376   2.336  14.308   2.775 -0.2711 -0.2004  0.1890
 8963W        W22377   4.462   8.330  12.590 -0.2628 -0.3500 -0.1106
 8964W        W22378  13.486  12.207  16.450 -0.0590 -0.1645 -0.2100
 8965W        W22379   7.754  10.700  13.720 -0.0574  0.1089 -0.3327
 8966W        W22380   1.327   2.306  16.256  0.0359 -0.0399 -0.1351
 8967W        W22381   5.513  14.832   5.524  0.1346  0.0334  0.2457
 8968W        W22382   7.211  15.445   2.678 -0.2553 -0.1663 -0.1635
 8969W        W22383  16.922   7.284  13.554 -0.0085  0.0765  0.0527
 8970W        W22384   5.947  11.092  15.366  0.0734  0.1820  0.0360
 8971W        W22385   5.578   6.187  15.183 -0.1182  0.2583  0.1709
 8972W        W22386   9.942  12.918  11.404  0.4905  0.3744 -0.1766
 8973W        W22387   0.761   6.348   0.574 -0.0228  0.1512  0.0406
 8974W        W22388  11.385   6.117   5.722  0.1027  0.2870  0.1342
 8975W        W22389   3.311  15.945  14.325 -0.2058 -0.0913 -0.0223
 8976W        W22390  14.297  11.031   5.848 -0.4226 -0.2875 -0.0331
 8977W        W22391   3.907   7.096  12.776  0.0302  0.0447  0.1846
 8978W        W22392  16.236   0.924   0.755 -0.0574 -0.1697 -0.0603
 8979W        W22393  17.412  13.969   3.226  0.0488 -0.1107  0.1391
 8980W        W22394  11.528   5.378   1.868 -0.0305 -0.1509 -0.3100
 8981W        W22395   6.417   9.990  12.323 -0.1108 -0.1165 -0.0199
 8982W        W22396  17.803  12.720  11.318 -0.2825  0.0976  0.0565
 8983W        W22397  13.227   8.360   4.342  0.4627  0.0325  0.1631
 8984W        W22398  18.203  12.417   2.603 -0.0596 -0.3071 -0.0555
 8985W        W22399   7.950  16.688   3.291 -0.1083 -0.0031  0.0979
 8986W        W22400  15.681  12.293  13.420 -0.1062 -0.0758 -0.0871
 8987W        W22401   7.040  12.773  12.849 -0.3714 -0.1703 -0.0871
 8988W        W22402  11.088   3.329  15.161  0.1402  0.1545  0.0070
 8989W        W22403   8.889  17.401   1.184  0.0249  0.3212  0.0100
 8990W        W22404   0.573  15.569   4.809 -0.3275 -0.0869 -0.3738
 8991W        W22405   8.944  11.144  14.472 -0.2059  0.1931  0.3434
 8992W        W22406   3.705  10.388   6.418 -0.3138  0.0496 -0.0596
 8993W        W22407   2.652  12.658   5.430  0.2767 -0.3121 -0.1621
 8994W        W22408   6.015   3.154  12.200  0.0474  0.2599  0.4018
 8995W        W22409  14.916  12.087  15.432  0.2561  0.0783  0.3288
 8996W        W22410  11.781  11.161   4.986  0.1446  0.1602  0.1553
 8997W        W22411  10.221   7.524  12.343  0.0560 -0.1357  0.0702
 8998W        W22412   8.745   1.809   4.419 -0.2667  0.3502  0.0216
 8999W        W22413   7.913   7.491   2.436  0.1284 -0.0583 -0.0418
 9000W        W22414   4.089   0.903  10.440 -0.0248  0.0623  0.0097
 9001W        W22415   3.495  10.429   2.208 -0.2456 -0.1471  0.3529
 9002W        W22416  13.275   4.063   5.521 -0.3313 -0.0585 -0.1517
 9003W        W22417   5.500   0.332  16.048  0.1069  0.2695 -0.1584
 9004W        W22418   5.870   1.896  13.177 -0.1650  0.0918 -0.0558
 9005W        W22419  13.925  11.832   5.942 -0.2274  0.3494  0.0906
 9006W        W22420   6.558  18.114   4.709 -0.1823 -0.2768 -0.0265
 9007W        W22421  16.506  10.811  12.175 -0.3852 -0.0583  0.1579
 9008W        W22422   6.917  10.360  13.622 -0.2357 -0.1028  0.0827
 9009W        W22423   0.878   3.569  11.922  0.0550 -0.1864  0.1905
 9010W        W22424  12.826  13.082   3.833 -0.0429  0.0257  0.0041
 9011W        W22425   2.479   5.925  12.368  0.0744 -0.2321 -0.0402
 9012W        W22426   6.778  10.282   5.385  0.0965  0.0400  0.0936
 9013W        W22427  18.051   2.782   4.165  0.0436 -0.0577  0.0625
 9014W        W22428  15.522   4.499  14.497  0.1586 -0.1743  0.1328
 9015W        W22429   9.122  15.527  12.880 -0.0570 -0.0192  0.0143
 9016W        W22430   3.994   9.382  11.707 -0.0929  0.0037  0.0676
 9017W        W22431  16.225   6.268   4.098 -0.0919 -0.0018  0.3607
 9018W        W22432  16.095   2.860  11.365  0.0221 -0.1780  0.0056
 9019W        W22433  17.204  10.233  14.525 -0.0358 -0.0623 -0.0689
 9020W        W22434   7.054  16.687  14.857 -0.0902  0.1438  0.1177
 9021W        W22435   1.649  13.804  13.239  0.0826 -0.2753 -0.2513
 9022W        W22436   4.061  14.855  14.093  0.1368 -0.0068 -0.2010
 9023W        W22437  10.246  13.659  12.366 -0.3657  0.0740  0.0331
 9024W        W22438   0.545  11.558  11.261  0.1299 -0.3137 -0.1569
 9025W        W22439   8.177   9.200   4.541 -0.0847 -0.3521 -0.0325
 9026W        W22440  18.140  12.586   2.139  0.2049  0.0562 -0.1620
 9027W        W22441   3.279   9.627  15.245  0.0239 -0.0327  0.2363
 9028W        W22442   3.021  10.728   1.819 -0.1046  0.0924 -0.2152
 9029W        W22443  17.339   6.327   0.363 -0.1611 -0.2069  0.1849
 9030W        W22444  10.624  17.420  10.950  0.1783  0.1755 -0.0608
 9031W        W22445  18.224   1.968  14.146  0.1912  0.1044  0.1299
 9032W        W22446   4.577  10.182   5.592  0.0652 -0.3705  0.2139
 9033W        W22447   4.667  14.017  12.922  0.1547 -0.2116 -0.0636
 9034W        W22448  11.689  16.493  12.129 -0.2677  0.0754  0.2524
 9035W        W22449   1.837  13.803   0.150  0.0626 -0.0865 -0.0332
 9036W        W22450  10.667  14.583  11.387 -0.2320 -0.1381  0.0872
 9037W        W22451  16.716   5.649   0.434  0.0187 -0.0876  0.2393
 9038W        W22452   0.221  10.820   4.274 -0.0273 -0.0788 -0.2386
 9039W        W22453   4.698   0.110  15.586 -0.0575 -0.0149  0.3542
 9040W        W22454   0.261   8.182   2.767 -0.1668 -0.0897  0.3330
 9041W        W22455  12.965   5.012  14.231  0.2374 -0.0674  0.0418
 9042W        W22456  12.322  13.127   5.573  0.1773  0.0293  0.1423
 9043W        W22457   0.551   3.796   0.099  0.2824  0.1018 -0.0249
 9044W        W22458   6.912   3.400   4.444  0.0685  0.0330 -0.1659
 9045W        W22459   5.292   2.563  16.467 -0.1758  0.0285 -0.1783
 9046W        W22460  16.613  15.138  11.390 -0.2152  0.1981  0.2896
 9047W        W22461   8.486   5.362  13.598  0.0313 -0.1371 -0.0764
 9048W        W22462   1.579  16.550   2.568  0.1780  0.0050 -0.1392
 9049W        W22463  17.514  17.278   5.730 -0.1226 -0.0209 -0.2022
 9050W        W22464  14.499  12.119   0.045  0.0073 -0.0881 -0.1876
 9051W        W22465   2.579   6.149  16.055  0.0077  0.0618  0.1114
 9052W        W22466   9.398   2.190   4.968  0.1122 -0.0877  0.2366
 9053W        W22467   8.321  10.436   5.085  0.4848  0.2919  0.1939
 9054W        W22468  12.495   9.652   5.671 -0.3219  0.0048  0.1351
 9055W        W22469   9.206  16.812  14.856  0.1932 -0.0115  0.1134
 9056W        W22470  13.663  15.885   0.675  0.0666 -0.1375 -0.1586
 9057W        W22471   8.390   3.667   4.126 -0.1417  0.1572 -0.1931
 9058W        W22472   4.474   7.280   5.041  0.2886  0.2608 -0.0431
 9059W        W22473  11.185   0.953   4.162 -0.3474 -0.0229 -0.2914
 9060W        W22474   5.070   7.650  14.172  0.2255 -0.1733 -0.0482
 9061W        W22475  11.590   2.925   4.192 -0.0193  0.0580  0.0399
 9062W        W22476  10.087  12.244   1.346 -0.0554 -0.1799  0.2101
 9063W        W22477   5.110   2.051  11.668 -0.0644 -0.1917 -0.2176
 9064W        W22478   4.209   0.865   1.506 -0.2021  0.0766 -0.4018
 9065W        W22479   3.404  17.677  13.155 -0.1382 -0.5663  0.0582
 9066W        W22480   5.504   9.567   3.672  0.0950  0.0935 -0.2402
 9067W        W22481   8.052   8.276  13.813 -0.1996  0.2216 -0.2814
 9068W        W22482  13.708  15.057   6.237  0.0758 -0.2831 -0.0703
 9069W        W22483  11.627   5.166  12.053 -0.1011  0.1387 -0.6087
 9070W        W22484   7.614  15.110   5.811  0.3630 -0.4043 -0.0034
 9071W        W22485   2.112   2.165   1.361  0.3383 -0.0264  0.1546
 9072W        W22486   5.188   6.210  15.543  0.3193  0.1294  0.1551
 9073W        W22487  10.497   5.451  16.428  0.0299  0.1281  0.3692
 9074W        W22488   7.305  12.804  11.351 -0.0664 -0.0525 -0.0128
 9075W        W22489   0.327  14.958   0.859  0.0651  0.0801  0.1445
 9076W        W22490   2.340   3.264  14.466 -0.2935 -0.1253  0.0206
 9077W        W22491  17.308  15.256   2.187  0.0259 -0.0912 -0.1229
 9078W        W22492  14.041   6.880  11.708  0.0347 -0.0361  0.0833
 9079W        W22493   8.306   3.458  14.184 -0.1133  0.0940  0.1065
 9080W        W22494  17.273   2.530   4.347  0.2605  0.2486 -0.0250
 9081W        W22495  12.223   6.382   1.977  0.1376 -0.1056 -0.0299
 9082W        W22496   4.717   7.010  16.462  0.1957  0.2063 -0.2639
 9083W        W22497   7.287  13.062  12.510  0.0192  0.0329  0.3064
 9084W        W22498   9.883   5.814  14.500  0.0609 -0.2450  0.0984
 9085W        W22499   6.740  10.086  14.524 -0.0245  0.1720  0.0108
 9086W        W22500  12.105   7.119   0.600  0.0723  0.0965 -0.0664
 9087W        W22501  11.658  13.787  15.301  0.1189  0.0994  0.2498
 9088W        W22502  12.639  14.485   4.061  0.3523  0.1891  0.4015
 9089W        W22503   4.935   9.571   4.094  0.0312  0.1634 -0.2914
 9090W        W22504  13.018   5.730   1.860  0.1309 -0.2514  0.2188
 9091W        W22505   6.218   2.668   3.068  0.1635 -0.0215  0.2890
 9092W        W22506   7.896  14.544  14.802  0.1235 -0.2739  0.2039
 9093W        W22507  15.832  10.672  10.177  0.0935  0.0936  0.1653
 9094W        W22508   2.792  15.354   1.675  0.1967  0.1782  0.0121
 9095W        W22509   4.872   9.181  10.412  0.1859 -0.1947 -0.1637
 9096W        W22510   1.885   5.451  15.023 -0.1075  0.3724  0.0414
 9097W        W22511   4.197  10.499   4.703 -0.0928  0.1485  0.1035
 9098W        W22512   3.918  15.936   3.831  0.1235  0.0237  0.3690
 9099W        W22513  14.308   2.800  13.954 -0.0963 -0.0468  0.5462
 9100W        W22514  15.291  10.434  15.359 -0.1564  0.2175 -0.0353
 9101W        W22515  10.886   8.857   3.084  0.0858 -0.2285 -0.0337
 9102W        W22516   2.997   0.310  11.234 -0.1758 -0.0345  0.2528
 9103W        W22517   9.440   3.504  11.902 -0.0696 -0.1660  0.1278
 9104W        W22518   5.296   7.121   4.856 -0.3103  0.2511 -0.1561
 9105W        W22519   7.822   6.787   3.313 -0.0413  0.0149  0.1742
 9106W        W22520  14.890  16.402   3.847 -0.1174  0.1145 -0.3418
 9107W        W22521   3.711   4.355   5.385 -0.0539 -0.1477  0.0800
 9108W        W22522  15.270  16.175   4.062 -0.2187 -0.3319  0.1483
 9109W        W22523   6.136  12.715   4.363  0.0268 -0.1768 -0.2628
 9110W        W22524   1.883  18.107   1.685  0.0140 -0.1820 -0.0001
 9111W        W22525  17.854   1.537   2.952 -0.1094  0.3367 -0.1717
 9112W        W22526  17.248   9.146   5.405 -0.2259  0.1652  0.1254
 9113W        W22527   0.958  14.761  16.432  0.2396  0.2489 -0.0957
 9114W        W22528  14.083  13.826  11.533 -0.1325 -0.1072 -0.4043
 9115W        W22529   4.706   2.684   2.524 -0.0116  0.3288 -0.1600
 9116W        W22530   3.702   2.071  13.971 -0.0498 -0.1666  0.0631
 9117W        W22531   8.187  13.623   4.104  0.1144 -0.4563  0.3111
 9118W        W22532   3.773   0.058   5.158  0.0916  0.1009 -0.0699
 9119W        W22533  13.218   6.890  14.836  0.0841 -0.0851  0.1713
 9120W        W22534   7.783  14.642   2.322 -0.0589 -0.0004  0.0086
 9121W        W22535   0.042   3.463  14.731  0.1318 -0.1578 -0.2315
 9122W        W22536  11.378   5.259  15.202  0.1230  0.1119 -0.1555
 9123W        W22537   6.695   2.918   3.119 -0.1067  0.1849 -0.2951
 9124W        W22538   5.092  14.868   5.257 -0.0908  0.1501 -0.0076
 9125W        W22539  10.751  13.836  14.007  0.2113 -0.1965  0.0261
 9126W        W22540   2.018  11.981   5.704 -0.1120  0.5421  0.0409
 9127W        W22541  13.066  15.260   0.614 -0.0625  0.0130  0.3845
 9128W        W22542   6.628  12.485   5.005  0.2139 -0.1102 -0.1913
 9129W        W22543  12.153   8.837   0.310  0.1357  0.1260 -0.2796
 9130W        W22544  14.558   0.434   1.811  0.2545  0.0427  0.0953
 9131W        W22545  10.849   8.295   3.980 -0.1746  0.1432 -0.4561
 9132W        W22546  15.131  11.136   4.470  0.1113  0.1217 -0.0598
 9133W        W22547   8.739  10.532   3.788  0.1896 -0.1775  0.2930
 9134W        W22548   0.743   2.451  14.840 -0.1090 -0.0054  0.3010
 9135W        W22549   7.880   3.518  10.241 -0.0429  0.0492 -0.1172
 9136W        W22550  13.270   7.931   0.348  0.1887 -0.3528  0.0840
 9137W        W22551  11.887  11.500  14.305  0.1768  0.1605 -0.1248
 9138W        W22552  11.569  11.879  14.858  0.1817  0.1570 -0.0872
 9139W        W22553   4.258   9.294   4.781 -0.0929  0.1084  0.0081
 9140W        W22554   7.023   4.758   3.738 -0.0487  0.2290  0.0020
 9141W        W22555  18.073   8.588   0.021  0.0344 -0.1470  0.0139
 9142W        W22556  16.021  11.633   1.395 -0.0968 -0.2529 -0.2067
 9143W        W22557  14.077   2.488  15.340  0.1226  0.2630 -0.1298
 9144W        W22558   8.887  11.899   0.892  0.0538 -0.0366  0.1089
 9145W        W22559   3.242   4.420  13.553  0.0045 -0.2707  0.1345
 9146W        W22560   0.062  17.166   5.525  0.2383  0.1143  0.1240
 9147W        W22561   9.298   2.888   3.536 -0.0499  0.0101 -0.2329
 9148W        W22562   2.684   8.056   4.772 -0.0294  0.1217  0.3946
 9149W        W22563   2.704   6.943   3.724 -0.0907  0.0118 -0.0343
 9150W        W22564  14.564   8.116  10.580  0.0211 -0.0603  0.0366
 9151W        W22565   8.713   8.051   3.365  0.0354 -0.0030 -0.0654
 9152W        W22566   8.358   6.796  12.118  0.3512  0.0509 -0.0789
 9153W        W22567  11.833  11.012   1.258  0.1716 -0.1735  0.2535
 9154W        W22568   7.849  17.410   1.997  0.3441  0.1726 -0.0215
 9155W        W22569  13.779  14.221   2.083  0.3133 -0.0781 -0.3049
 9156W        W22570   6.224   8.873   0.869 -0.1133 -0.1008 -0.2784
 9157W        W22571  12.708   3.524   5.976 -0.0329  0.0559 -0.0658
 9158W        W22572  10.826   2.998   2.090  0.1730 -0.0761 -0.2432
 9159W        W22573   0.004  10.798   5.477 -0.0841  0.1766  0.3666
 9160W        W22574  15.900   5.916   4.550  0.0884  0.0494 -0.0167
 9161W        W22575   4.944   1.794   1.612  0.2079  0.0193  0.1116
 9162W        W22576   6.559  16.396   1.350  0.0799 -0.1361 -0.2168
 9163W        W22577   9.632   4.321  15.488 -0.0145  0.1569 -0.1664
 9164W        W22578   5.302  15.503   3.736 -0.0482 -0.0016 -0.1812
 9165W        W22579   3.308  11.165   4.898  0.1471 -0.0725 -0.0085
 9166W        W22580  12.532   4.235  11.709 -0.0333  0.4983  0.1234
 9167W        W22581   0.277   2.033   5.538 -0.0891 -0.0993  0.0194
 9168W        W22582  13.636   2.841  16.293 -0.0335  0.1211 -0.1145
 9169W        W22583  17.509   8.769   1.418  0.0185  0.2252  0.1470
 9170W        W22584  12.467  10.172  16.378 -0.0255  0.1797 -0.2042
 9171W        W22585  14.497  12.439  15.577 -0.4994  0.0393 -0.2191
 9172W        W22586  14.639  18.197  15.173  0.0070  0.0202 -0.2147
 9173W        W22587   9.166   8.668   1.496 -0.1340 -0.2378 -0.0489
 9174W        W22588  11.779   7.780   4.265  0.1288  0.3310 -0.0095
 9175W        W22589  11.337   6.450  16.160  0.1650 -0.0107 -0.1277
 9176W        W22590  12.802   2.737  13.981  0.2234 -0.2441  0.1937
 9177W        W22591   4.329  16.434   1.964 -0.0918  0.0146 -0.1230
 9178W        W22592  11.132  13.948  10.702  0.1419  0.0385 -0.2517
 9179W        W22593   9.496  15.395   2.332 -0.2767  0.2496  0.1053
 9180W        W22594   1.965  14.029  15.053  0.0136 -0.0750 -0.5481
 9181W        W22595   8.010  13.962   4.912  0.0729  0.0575  0.1713
 9182W        W22596  13.948   4.544   4.561 -0.1027 -0.2596  0.0832
 9183W        W22597  15.150  18.063   2.501  0.1890  0.0654 -0.0133
 9184W        W22598   2.425   9.105  16.067  0.1793  0.0674  0.1309
 9185W        W22599   0.436  14.345  13.402 -0.1128  0.1430 -0.2526
 9186W        W22600  11.363  16.088   4.340 -0.0622  0.0585 -0.2561
 9187W        W22601   7.256   5.657  13.352  0.0119 -0.0452  0.2208
 9188W        W22602   7.625   8.276   4.416 -0.0702 -0.1610  0.0127
 9189W        W22603  12.804   2.431  10.774  0.0040 -0.0576  0.0766
 9190W        W22604  13.238   3.514  14.581  0.1386 -0.0332  0.0395
 9191W        W22605  10.096  15.606  12.169 -0.3075 -0.3677  0.0324
 9192W        W22606  17.696  15.993  11.988 -0.3205  0.1721 -0.0256
 9193W        W22607  15.914  14.902  14.737 -0.0328 -0.3513 -0.3263
 9194W        W22608  17.895   3.329  11.016 -0.2322 -0.3802 -0.2584
 9195W        W22609  16.841   3.680   4.208  0.0367 -0.0138 -0.0029
 9196W        W22610   2.475   3.097  11.316  0.0230  0.0712 -0.2311
 9197W        W22611  14.847  14.725   0.669 -0.4341 -0.1575  0.0342
 9198W        W22612  13.664  16.192   2.963 -0.1529 -0.3123 -0.1273
 9199W        W22613   0.041   4.655  12.377 -0.1371 -0.3289 -0.0637
 9200W        W22614   5.037   0.814   0.691 -0.4868 -0.1432 -0.0112
 9201W        W22615   6.169  17.992   4.316  0.0182 -0.1142  0.0769
 9202W        W22616  18.094   5.929  15.116 -0.0504 -0.0833 -0.0872
 9203W        W22617  13.902   7.918  11.606 -0.0663  0.3645 -0.2115
 9204W        W22618  16.505   8.460  15.662 -0.0619  0.2782 -0.1114
 9205W        W22619  16.372  15.521   4.741  0.0859  0.0686 -0.0238
 9206W        W22620  16.926   1.500   0.265 -0.0372 -0.1007 -0.0764
 9207W        W22621   2.990   7.960  15.745 -0.2123  0.0953 -0.2016
 9208W        W22622   1.158  10.897  12.194  0.1643 -0.1120  0.0917
 9209W        W22623  13.253   0.671   4.360  0.0332 -0.0120  0.0294
 9210W        W22624   9.780  13.060   5.227  0.1418  0.0447 -0.1862
 9211W        W22625   5.258   1.836  14.625 -0.4282  0.2101 -0.2100
 9212W        W22626  11.291   3.087   5.033  0.2674 -0.0744 -0.3019
 9213W        W22627   7.685   2.909  14.096 -0.0381 -0.2283 -0.1356
 9214W        W22628   0.863   4.403  11.042  0.0719  0.0653  0.0067
 9215W        W22629   9.897  17.754  12.372 -0.1279  0.1219 -0.0721
 9216W        W22630  14.958  16.286  12.043  0.0832  0.1321 -0.0889
 9217W        W22631  10.895   5.925   3.965 -0.0848  0.1256 -0.1624
 9218W        W22632   2.740  16.945  14.213  0.0803 -0.4551  0.1780
 9219W        W22633   1.415   1.040  16.274  0.0416 -0.0748  0.2864
 9220W        W22634  17.523   2.783   4.992  0.0863 -0.1729 -0.1845
 9221W        W22635  13.110   5.985   4.435 -0.1221 -0.1100 -0.2216
 9222W        W22636  13.761  17.490   1.296  0.1504  0.1758 -0.1636
 9223W        W22637  16.812  16.047   3.961 -0.1565 -0.0472  0.1356
 9224W        W22638   8.964   7.064  12.162  0.0365  0.1292 -0.0230
 9225W        W22639   4.421  14.432  11.209 -0.1999 -0.3702  0.1612
 9226W        W22640   5.680   5.959  11.596 -0.0009 -0.0055 -0.0378
 9227W        W22641  10.459   9.101   3.557  0.2550  0.1818 -0.0156
 9228W        W22642  16.016   6.223   0.262  0.1058  0.1119  0.0441
 9229W        W22643  12.875  15.061   5.023  0.1326  0.1580 -0.1832
 9230W        W22644   5.708   7.178   2.871 -0.0860 -0.2069  0.2717
 9231W        W22645   1.755  10.672   5.824  0.0024  0.2624 -0.0096
 9232W        W22646  16.811   8.205   0.914  0.0955  0.2753  0.1168
 9233W        W22647   0.583   5.824  11.678  0.0590 -0.0998 -0.0449
 9234W        W22648   9.372   9.631   2.463 -0.0157 -0.3030  0.2189
 9235W        W22649   8.507   7.376  12.081 -0.2384 -0.2003  0.2882
 9236W        W22650  17.773  11.118   1.679  0.1464  0.0395  0.0902
 9237W        W22651  13.558   4.169  14.360 -0.0211 -0.1910 -0.1162
 9238W        W22652   3.026  16.915   0.729 -0.1634 -0.2869  0.0066
 9239W        W22653   1.266   5.201   3.776 -0.1804 -0.0381 -0.0354
 9240W        W22654  10.376   4.590   4.027 -0.3218 -0.4548 -0.2816
 9241W        W22655  14.370   0.456   4.008 -0.1128  0.0113 -0.0058
 9242W        W22656  11.954  10.392   2.818 -0.0164 -0.0242  0.1071
 9243W        W22657   9.239   0.163  14.149 -0.1302  0.3812  0.3668
 9244W        W22658  18.065   1.330  15.429 -0.2622  0.2013 -0.0548
 9245W        W22659   5.648  13.281   2.702  0.0244 -0.1130 -0.1744
 9246W        W22660   6.985   9.030  14.472 -0.2231  0.0522 -0.1498
 9247W        W22661   7.271   9.123   6.461 -0.1418  0.0404  0.0737
 9248W        W22662  11.836  10.877  11.793  0.0582  0.1909  0.0114
 9249W        W22663  10.994  13.097   4.043  0.0514  0.0666  0.3030
 9250W        W22664  16.695  10.175   5.925 -0.0719 -0.2362  0.1392
 9251W        W22665  15.300  10.305  12.698  0.0447  0.0377 -0.0192
 9252W        W22666  13.438   8.311   4.870 -0.2482 -0.0226 -0.0275
 9253W        W22667   2.926   7.075   2.207  0.0108  0.1923  0.1588
 9254W        W22668  12.567   7.737  16.408  0.0550 -0.2615  0.2246
 9255W        W22669   8.716   7.924   2.862 -0.1646 -0.0566  0.1683
 9256W        W22670  17.867   3.115  11.521 -0.1646  0.2362 -0.1354
 9257W        W22671   7.459  12.927   0.264 -0.0948 -0.0598  0.1923
 9258W        W22672  14.104   1.346   0.746 -0.1032 -0.1804  0.2946
 9259W        W22673  12.681   5.296  14.536 -0.1775  0.1114  0.2927
 9260W        W22674  11.725   1.826  15.802 -0.3152  0.2790 -0.0607
 9261W        W22675  17.168  13.629  12.938  0.1127  0.0044 -0.2853
 9262W        W22676   7.305  16.655   5.055 -0.0834 -0.3917  0.1783
 9263W        W22677   8.047  13.051   3.445  0.0662 -0.3365  0.0322
 9264W        W22678   5.453   9.134   2.910 -0.0764 -0.0025  0.2255
 9265W        W22679   1.582  14.768  15.755 -0.0355  0.3690 -0.1358
 9266W        W22680   3.841   1.542   2.470  0.1436  0.4994  0.0886
 9267W        W22681   4.173   9.306   6.022 -0.0657  0.0212 -0.1281
 9268W        W22682  14.310   5.673   0.953 -0.1254 -0.2193 -0.2780
 9269W        W22683   5.769  10.406   2.136 -0.1703 -0.1104  0.0634
 9270W        W22684  14.571   9.783   3.650  0.0933  0.1047 -0.0138
 9271W        W22685   9.380   0.641   4.354 -0.3205 -0.1749 -0.0982
 9272W        W22686   1.276  15.917   3.623 -0.1319 -0.0035 -0.2551
 9273W        W22687  12.892   2.099  10.355  0.3701 -0.1267  0.1361
 9274W        W22688  13.014   7.211   1.028 -0.4235  0.0997 -0.0820
 9275W        W22689   1.764   8.234  11.545 -0.2365  0.0846  0.0913
 9276W        W22690  14.698  17.546  15.036  0.0570  0.1187 -0.1958
 9277W        W22691  18.018   6.398  15.302 -0.3166 -0.0913  0.1246
 9278W        W22692  10.016   2.530  10.659 -0.2679  0.1097 -0.0332
 9279W        W22693   1.669   0.510  14.349  0.1911 -0.2750  0.0354
 9280W        W22694   1.897  13.865   2.172  0.2684 -0.0948  0.1259
 9281W        W22695   2.679   5.197   3.251  0.1573  0.0683  0.2696
 9282W        W22696  16.169  12.986  16.354  0.0752  0.3292 -0.0915
 9283W        W22697  11.017  12.225   0.236  0.2271 -0.4432  0.1449
 9284W        W22698   4.809  10.647  13.937 -0.0099  0.0824 -0.4552
 9285W        W22699  13.211   9.374   1.275  0.0671 -0.0273 -0.0302
 9286W        W22700   9.057   8.228  12.123 -0.1169  0.2282  0.0137
 9287W        W22701   0.245  11.495  14.774  0.3248 -0.3124 -0.2809
 9288W        W22702  13.511  13.872   4.956  0.1555  0.0139 -0.0459
 9289W        W22703   3.650  14.922   0.336  0.0058 -0.1533 -0.0881
 9290W        W22704   6.846  12.913   2.797  0.0983 -0.0298 -0.0650
 9291W        W22705  14.462   6.780   3.320  0.0563  0.1509  0.0234
 9292W        W22706   2.770  10.093  11.148 -0.0490 -0.0404  0.1027
 9293W        W22707   1.691  13.901  10.751 -0.0436  0.0803  0.0049
 9294W        W22708  13.447   3.257   3.256  0.0282 -0.4484  0.0540
 9295W        W22709   5.978  18.159  13.912  0.1743  0.0729 -0.2177
 9296W        W22710  13.413   3.895  15.623 -0.0504  0.0122  0.0869
 9297W        W22711   8.953   6.744  13.894  0.0174  0.2671  0.2343
 9298W        W22712  10.645  13.448  12.061  0.2213 -0.0329  0.0815
 9299W        W22713   3.376  10.850   0.274  0.0100  0.2069 -0.4088
 9300W        W22714   9.378   3.800   1.249 -0.1323 -0.0251 -0.1259
 9301W        W22715  12.616   2.967  13.204 -0.3361 -0.2707  0.0044
 9302W        W22716   1.294   4.970   6.004 -0.2208 -0.2610  0.2680
 9303W        W22717   7.579   6.870  11.059 -0.2425  0.1573 -0.1124
 9304W        W22718   7.407   9.753   1.111  0.1982  0.0712  0.1396
 9305W        W22719   3.670   3.827   4.391 -0.1418 -0.3050  0.0195
 9306W        W22720  13.753   3.326   3.716 -0.0992 -0.0350 -0.1292
 9307W        W22721   4.665   5.565  16.124 -0.0694  0.1091  0.2527
 9308W        W22722   9.450   5.963  13.690 -0.5039  0.0685  0.0775
 9309W        W22723   0.698  16.555  12.044 -0.0739  0.1540 -0.0585
 9310W        W22724  11.872  10.452  15.592  0.1835  0.3696 -0.1346
 9311W        W22725   0.081  11.412   2.778  0.0498 -0.3010  0.1267
 9312W        W22726   9.051  17.463  13.907  0.0118 -0.5664 -0.0979
 9313W        W22727   6.974   1.945  11.646  0.0482  0.2977  0.0591
 9314W        W22728  10.377  17.981  12.439  0.1120 -0.0729 -0.2925
 9315W        W22729  14.474  15.800   3.193 -0.3111 -0.0466  0.2030
 9316W        W22730  10.346  12.772   3.296 -0.0002  0.0030 -0.3695
 9317W        W22731   1.347   6.552  14.053 -0.2299 -0.0166 -0.0069
 9318W        W22732   5.724  15.120   2.850  0.1862  0.3071  0.1697
 9319W        W22733  12.772   0.760   5.166  0.2457 -0.0698  0.1785
 9320W        W22734   1.155  15.587  15.287  0.0447  0.1128  0.0448
 9321W        W22735  16.408  14.262  12.902  0.2276  0.0215  0.2920
 9322W        W22736   9.888   9.339   4.087  0.0936  0.1568 -0.1592
 9323W        W22737   4.076   5.309  13.881 -0.2245  0.3081 -0.0821
 9324W        W22738  13.684   7.183  14.600 -0.2392  0.3169  0.0724
 9325W        W22739   4.730  14.159   5.387  0.0691  0.0695 -0.2800
 9326W        W22740  17.411   3.677   5.117 -0.0095 -0.0812 -0.2533
 9327W        W22741  15.296   5.259   2.324 -0.1036 -0.2694  0.0169
 9328W        W22742  16.648  13.218   4.822 -0.0878  0.0731 -0.1910
 9329W        W22743  14.251  12.644   0.049  0.2151 -0.2634 -0.0079
 9330W        W22744  15.885   8.649  11.218 -0.0490  0.2366  0.3187
 9331W        W22745   6.500   8.738  13.356  0.2838  0.1469 -0.1993
 9332W        W22746   4.262   2.522   1.559 -0.0510  0.1046  0.0618
 9333W        W22747   8.901   1.121   5.425  0.0138  0.2032  0.1190
 9334W        W22748   3.918  12.837   3.374 -0.1988 -0.2019 -0.3070
 9335W        W22749   4.624   4.131   4.909 -0.2012  0.2463  0.3034
 9336W        W22750   6.698   2.551   0.648 -0.0669 -0.0544 -0.0012
 9337W        W22751  13.607  14.157   3.625  0.2292 -0.1289  0.1323
 9338W        W22752   3.716   9.760  10.738 -0.2468  0.0091  0.0151
 9339W        W22753  16.691   4.343   0.462  0.0588 -0.0388  0.0640
 9340W        W22754   6.791   2.156  13.514  0.5563 -0.2689 -0.2553
 9341W        W22755  13.405   6.664  13.453 -0.1673  0.0324 -0.2014
 9342W        W22756  12.941   3.884  13.014 -0.1412 -0.2565 -0.2244
 9343W        W22757  11.100  15.337  16.512 -0.2487 -0.1452  0.0119
 9344W        W22758   0.860   5.844  13.895  0.1606 -0.2106  0.2082
 9345W        W22759  11.974  17.624   4.574  0.4480 -0.3337 -0.1425
 9346W        W22760  13.952   3.291   2.003  0.0218  0.0077 -0.2103
 9347W        W22761  10.576   6.232  11.880  0.2479  0.1998  0.0016
 9348W        W22762   8.048  16.262  14.268  0.2770  0.0658 -0.1747
 9349W        W22763   1.011  17.611  12.837  0.2398 -0.0780  0.0261
 9350W        W22764  10.172   9.100   5.061  0.1784 -0.0415 -0.2614
 9351W        W22765  17.326  11.610   2.180 -0.2559 -0.0093 -0.1721
 9352W        W22766  16.372   5.638  15.637  0.0322 -0.3477  0.0948
 9353W        W22767   1.342   1.635   5.185  0.2303 -0.0444  0.1518
 9354W        W22768  12.846   9.907   2.679 -0.0452  0.2337 -0.2479
 9355W        W22769  15.835   2.617   2.861 -0.1128  0.0252  0.0886
 9356W        W22770  17.004  16.278  14.659 -0.1527  0.0199 -0.0175
 9357W        W22771  13.925   5.837   2.357  0.1071  0.2021 -0.3737
 9358W        W22772   4.799  17.537  10.787 -0.0603 -0.0360 -0.0501
 9359W        W22773   2.863   5.732  15.860 -0.3141  0.0104  0.2382
 9360W        W22774   3.601   5.462   0.137  0.2216 -0.0324 -0.2705
 9361W        W22775   5.056  14.551   1.785 -0.0763 -0.3432  0.1951
 9362W        W22776  13.224  13.631   3.238 -0.0405  0.0917 -0.0897
 9363W        W22777   0.959   2.878  15.540  0.2036 -0.0348  0.4675
 9364W        W22778  14.317   5.719  12.509 -0.1485 -0.1303 -0.2139
 9365W        W22779   9.855   0.612   0.464  0.0511 -0.0839 -0.0588
 9366W        W22780   5.071   2.638   2.155 -0.0892 -0.2243  0.0222
 9367W        W22781   0.396  11.772  10.037  0.1850 -0.1511  0.0521
 9368W        W22782   4.972  15.463   0.216  0.0394  0.3564 -0.0291
 9369W        W22783   4.661   8.944   4.693  0.2013 -0.0895  0.2034
 9370W        W22784  14.440   0.617  11.481 -0.1653  0.1359 -0.0767
 9371W        W22785  13.244   3.559   0.298  0.2802 -0.0999 -0.0953
 9372W        W22786   5.855   6.063  16.445  0.2464 -0.2588 -0.0084
 9373W        W22787  10.366   6.893   2.306 -0.1317 -0.0481  0.1217
 9374W        W22788   7.661   4.256  15.588  0.1505  0.1961  0.1103
 9375W        W22789  17.002   4.703  15.809 -0.0494  0.2689  0.2273
 9376W        W22790  13.888   1.489  14.843  0.1481 -0.1661  0.1234
 9377W        W22791  13.023   5.199   3.116  0.0028  0.0820 -0.0796
 9378W        W22792  17.327   3.424   5.545  0.0745  0.3227  0.0256
 9379W        W22793   5.224  13.409  11.367  0.0832 -0.0166 -0.1740
 9380W        W22794  11.616  10.289   2.397 -0.1512 -0.2966  0.1613
 9381W        W22795  14.022   1.726   3.680  0.0282 -0.1705 -0.0483
 9382W        W22796  10.194   1.454  15.527 -0.1970  0.2925 -0.1040
 9383W        W22797   0.955  15.249   4.889 -0.0825  0.0557 -0.2751
 9384W        W22798   7.149   5.283   0.032  0.1201  0.3287 -0.0464
 9385W        W22799  11.193   0.389  12.943 -0.0192 -0.1484 -0.0312
 9386W        W22800  12.363   0.358   5.042  0.0779  0.2293  0.2794
 9387W        W22801   7.645  10.456   2.870 -0.4218 -0.0103 -0.2597
 9388W        W22802   3.309   7.832   1.865 -0.0406  0.0083  0.0554
 9389W        W22803  17.330   9.818  12.378 -0.0556  0.0618 -0.1032
 9390W        W22804   2.686  12.306   4.482  0.0787 -0.0465 -0.0221
 9391W        W22805  11.077   2.402   3.393  0.0771  0.2198 -0.0031
 9392W        W22806  17.840   8.086  13.686  0.0698  0.0610 -0.4068
 9393W        W22807  16.862  15.782  14.474 -0.2163 -0.0393 -0.1183
 9394W        W22808   2.569  10.454  13.118 -0.0282  0.0164 -0.2896
 9395W        W22809  16.820  11.931  15.522 -0.1495  0.0293 -0.1419
 9396W        W22810   3.893  11.353   3.279  0.3113 -0.1729  0.3259
 9397W        W22811  17.104  17.140  14.003  0.1617 -0.2553 -0.0049
 9398W        W22812   8.765   2.181   2.525 -0.1133  0.4247  0.2110
 9399W        W22813   2.021  14.325   2.342 -0.0828 -0.1967  0.0398
 9400W        W22814   4.390  16.824  15.460 -0.1413  0.0554 -0.0393
 9401W        W22815   6.874   3.897  13.284 -0.4595 -0.1128  0.0574
 9402W        W22816   4.836  14.619   0.795 -0.0107 -0.0154  0.3949
 9403W        W22817   7.347   9.371  15.432  0.1012  0.0909  0.0623
 9404W        W22818   2.827   1.528  14.666 -0.1699 -0.3033 -0.0228
 9405W        W22819   1.167   1.936  11.865 -0.2798 -0.2037  0.0754
 9406W        W22820   7.599  15.429  12.905 -0.2294  0.0615 -0.1795
 9407W        W22821   5.805  11.350  12.199  0.0428  0.0372  0.1109
 9408W        W22822  12.408   9.174   2.308 -0.2547  0.0339 -0.0918
 9409W        W22823  10.805  10.498  15.893  0.0504  0.0923 -0.0329
 9410W        W22824  12.731   9.636  11.774 -0.0870  0.1205  0.0828
 9411W        W22825   1.474   3.992   2.198  0.0763 -0.2224 -0.2081
 9412W        W22826  11.486  14.391  16.452 -0.2632  0.2426  0.0494
 9413W        W22827  14.134  14.531  13.659 -0.0062  0.1115  0.0023
 9414W        W22828  14.577   7.165   4.243  0.1507 -0.2886  0.2003
 9415W        W22829  10.156   6.980   2.792  0.0647 -0.1398 -0.1994
 9416W        W22830   0.768  11.236   3.627 -0.0492  0.0187 -0.4638
 9417W        W22831  10.934   1.684   0.865  0.1547  0.1857 -0.0200
 9418W        W22832   9.118  16.734  13.502 -0.1059  0.0848 -0.1687
 9419W        W22833  17.062  11.807  12.720  0.1815 -0.2554  0.1760
 9420W        W22834   3.703  15.155  14.922 -0.0698  0.1006  0.2753
 9421W        W22835   0.703  10.064   0.530  0.1279  0.0846  0.2806
 9422W        W22836   1.682  16.665  16.111  0.0299  0.1703  0.3207
 9423W        W22837  15.289   9.189   5.346 -0.0258  0.0050  0.3249
 9424W        W22838  10.606   1.096  12.465 -0.3872 -0.4001  0.0946
 9425W        W22839  16.906  12.836  15.473 -0.3125  0.3557  0.1319
 9426W        W22840   9.839   2.560   2.161 -0.1555  0.0190  0.0106
 9427W        W22841   7.008  14.039  16.074 -0.0564 -0.0953 -0.1505
 9428W        W22842   0.798   3.144   1.095  0.0056 -0.0390 -0.1525
 9429W        W22843   1.857  16.895  14.467 -0.1467  0.2825  0.0961
 9430W        W22844   7.298   7.174  13.348  0.0467 -0.0382 -0.2570
 9431W        W22845   5.727   9.198   2.491  0.2238 -0.0997  0.2037
 9432W        W22846  15.055  17.113   4.376  0.2539  0.2000 -0.0063
 9433W        W22847  13.672   1.207   0.092 -0.0820 -0.3583  0.2031
 9434W        W22848   6.738   8.723   0.926  0.2234 -0.2062  0.0452
 9435W        W22849  14.542   8.683   3.371  0.3307  0.2308 -0.1199
 9436W        W22850   9.249  13.563   3.181  0.3523 -0.0860  0.1797
 9437W        W22851  15.828  15.880  16.322 -0.4299  0.1396  0.2809
 9438W        W22852   4.332  11.326  13.708 -0.3319 -0.1953 -0.1356
 9439W        W22853   2.609  16.911  11.176 -0.1178  0.3201  0.0077
 9440W        W22854  18.128  12.033  12.791  0.0587 -0.0609 -0.0997
 9441W        W22855   9.314  17.397   0.129 -0.0058 -0.1317 -0.0358
 9442W        W22856  10.320  17.243  14.754  0.0211 -0.0589  0.1511
 9443W        W22857   1.870  13.988   3.179  0.0430 -0.0519 -0.0689
 9444W        W22858   4.540   3.165   0.939 -0.1337 -0.0374  0.1412
 9445W        W22859   8.434   6.581   3.346 -0.0464 -0.1787 -0.3499
 9446W        W22860   1.852   8.760  12.324 -0.0840 -0.0027  0.0299
 9447W        W22861  11.106   0.772   9.494  0.3019 -0.0544 -0.0852
 9448W        W22862  14.248   2.188   0.084 -0.2264 -0.0474 -0.2008
 9449W        W22863  15.442  15.870  12.648 -0.0179  0.0012  0.3010
 9450W        W22864   1.894  17.055  15.855  0.0583 -0.1838 -0.0742
 9451W        W22865  13.436  14.709   3.838 -0.4435  0.2052  0.0331
 9452W        W22866  13.488   3.233  13.086  0.2716 -0.1181  0.0885
 9453W        W22867   0.988  12.623   2.848 -0.1954 -0.1086 -0.1017
 9454W        W22868  10.308   9.634   2.826 -0.1973 -0.0676 -0.1435
 9455W        W22869  17.141  10.132   6.346 -0.0381  0.0512 -0.0273
 9456W        W22870   2.453  11.086   1.200  0.2970 -0.2374 -0.1689
 9457W        W22871  11.001  13.715   3.299  0.1300  0.0001  0.0173
 9458W        W22872   7.291  15.367  11.625 -0.2629 -0.3301  0.2666
 9459W        W22873  10.726  12.878  11.488  0.1911  0.1252  0.2129
 9460W        W22874   0.222  16.274   2.359 -0.1888  0.1201 -0.1085
 9461W        W22875   3.488   8.730  14.479  0.0027 -0.0777 -0.2069
 9462W        W22876   2.821   8.384  11.914 -0.1093 -0.1381 -0.1044
 9463W        W22877  13.940   8.597   0.347  0.0477 -0.0439 -0.1289
 9464W        W22878   0.413   8.954  14.293 -0.3640 -0.0172 -0.3377
 9465W        W22879   1.235   9.522   2.093 -0.0010 -0.1871  0.1953
 9466W        W22880   5.306  18.134   2.578  0.2521  0.0187  0.4005
 9467W        W22881   7.638  16.490  15.270  0.1530  0.2078 -0.3153
 9468W        W22882   7.663   3.826   4.537  0.1730 -0.2236  0.0538
 9469W        W22883  17.406  14.155  14.091  0.1480 -0.0444 -0.1428
 9470W        W22884   7.979   7.033  12.697 -0.1438  0.1317  0.1336
 9471W        W22885   1.484  10.588  10.269  0.1198 -0.1429 -0.1924
 9472W        W22886   0.272   6.053   4.483 -0.4558 -0.0506  0.2764
 9473W        W22887   5.582   0.965   0.667  0.1697 -0.3419 -0.0162
 9474W        W22888  16.581   1.534   3.010 -0.2051 -0.1136  0.0717
 9475W        W22889  16.899  10.047  12.110  0.3237  0.0556 -0.1073
 9476W        W22890  13.810  11.972   1.402  0.0660 -0.2274  0.0234
 9477W        W22891  15.967  14.758   0.404 -0.1197  0.1363 -0.1715
 9478W        W22892  12.520   7.385   2.270 -0.3770  0.0068 -0.3157
 9479W        W22893  10.336   8.873   0.936  0.0263 -0.1041  0.2087
 9480W        W22894  15.609   0.621   3.233  0.4070  0.2207 -0.2138
 9481W        W22895   5.330   4.412   2.155 -0.2948  0.1345 -0.2090
 9482W        W22896   2.919  13.596   3.150 -0.2523 -0.0145 -0.1699
 9483W        W22897   7.015  16.025   4.351  0.0665 -0.0091  0.1323
 9484W        W22898   4.213   4.312   3.937 -0.2035  0.1173 -0.0417
 9485W        W22899   4.553  17.358  11.213 -0.2307 -0.1287  0.2336
 9486W        W22900  10.904  17.955  10.439  0.0313 -0.2926  0.0587
 9487W        W22901  17.424   0.594   4.693  0.0213  0.0106 -0.0614
 9488W        W22902   2.475  14.699   4.701  0.0319  0.0336 -0.2339
 9489W        W22903   9.568   4.089  10.928 -0.0511 -0.1074  0.0483
 9490W        W22904  10.595   8.479  12.818  0.1763  0.0685 -0.3034
 9491W        W22905  14.463  15.938  12.349 -0.1690  0.0379 -0.3239
 9492W        W22906   6.844   7.199  13.560  0.0017  0.0105  0.0172
 9493W        W22907   1.924  12.047  12.439 -0.3322 -0.1698 -0.0633
 9494W        W22908   5.991   8.515   3.549  0.1558 -0.1034 -0.0757
 9495W        W22909   2.705  16.979   0.325  0.1661 -0.4604 -0.1783
 9496W        W22910  12.057   6.487   1.383 -0.0491  0.1502 -0.0030
 9497W        W22911  12.798  10.043   5.571 -0.0308 -0.1600 -0.5107
 9498W        W22912  16.930  15.297  14.292 -0.3091 -0.0258  0.0869
 9499W        W22913   1.547   0.348   4.644  0.2393  0.0405  0.0121
 9500W        W22914   8.199   8.647   3.087  0.0112 -0.0486 -0.2486
 9501W        W22915   3.883   9.688   3.385  0.0219 -0.0826  0.1576
 9502W        W22916  15.714  12.388  12.368 -0.1237 -0.1031  0.1478
 9503W        W22917  14.300  12.576  12.996 -0.1808  0.0020 -0.0768
 9504W        W22918   2.325  11.784  15.995  0.0206 -0.1135 -0.0905
 9505W        W22919  10.944   7.824  10.929  0.2921 -0.1376  0.2667
 9506W        W22920   2.448  10.620  11.662 -0.0772 -0.0480  0.2572
 9507W        W22921  11.593   3.742   4.572 -0.1656  0.2165  0.3756
 9508W        W22922  15.799  17.517  12.717 -0.0856 -0.0361  0.3171
 9509W        W22923  11.134  13.154   1.174 -0.0795  0.3421 -0.1808
 9510W        W22924  11.963  10.433   6.161 -0.1358  0.1016 -0.1672
 9511W        W22925   8.056   0.505  13.773 -0.0837  0.0764 -0.3709
 9512W        W22926  17.240   9.065   1.775  0.1212  0.0931 -0.3017
 9513W        W22927   1.302   0.682  13.070  0.2424 -0.1521  0.0971
 9514W        W22928  14.233   4.198  16.335  0.0351  0.0563  0.3629
 9515W        W22929   0.816   8.619   1.051  0.1391  0.0974  0.0018
 9516W        W22930   0.768   9.428   2.436  0.0931 -0.0275 -0.1382
 9517W        W22931   0.075  17.642   5.708 -0.1809 -0.2406  0.0865
 9518W        W22932  14.226  14.503  10.826  0.0534 -0.3448  0.1464
 9519W        W22933  17.494  12.708   5.141  0.1949  0.1432  0.0590
 9520W        W22934   5.026  11.737  12.240  0.1583 -0.0418 -0.0469
 9521W        W22935   7.767  17.236  12.529  0.0369 -0.0379  0.1681
 9522W        W22936  17.911   8.871  10.953  0.1365  0.2453  0.0259
 9523W        W22937   2.070  10.639   2.213  0.1519  0.0604  0.0714
 9524W        W22938  10.306  15.221   0.743 -0.1195  0.1235 -0.0286
 9525W        W22939   8.161   7.203   3.422  0.0958  0.1399  0.0709
 9526W        W22940   3.634   6.299  15.915  0.1375  0.0688  0.1306
 9527W        W22941   3.529   6.238   5.243 -0.0212  0.2919 -0.3512
 9528W        W22942  15.639   9.296   5.694  0.1149 -0.0205  0.0349
 9529W        W22943   5.070   6.326  12.896 -0.3048  0.1831  0.1575
 9530W        W22944  17.661  16.249   0.327  0.1981  0.2035  0.0907
 9531W        W22945  14.589   3.797  15.107 -0.2828 -0.2487  0.1875
 9532W        W22946   7.494  17.230  16.407 -0.2747 -0.1190 -0.1569
 9533W        W22947  14.871   7.717  14.428  0.2111 -0.1366  0.0675
 9534W        W22948  11.743   7.796   3.247 -0.2271 -0.1879 -0.1902
 9535W        W22949   1.941  15.855   0.155  0.1678  0.0470 -0.0815
 9536W        W22950   9.398  13.466   2.663 -0.0659 -0.2574  0.2424
 9537W        W22951  11.983   6.628   0.478  0.2925 -0.0171 -0.1771
 9538W        W22952  18.181   1.477  12.641  0.1451  0.2627 -0.0047
 9539W        W22953   4.278   7.201   3.276 -0.1597  0.0037 -0.2001
 9540W        W22954   0.071  15.476  12.592  0.1263 -0.2755  0.0552
 9541W        W22955   3.024  11.299   2.051 -0.0400  0.2286  0.1134
 9542W        W22956   2.580   0.474   3.812  0.0309  0.0458 -0.2132
 9543W        W22957   7.543  15.035   1.149 -0.1046 -0.0489 -0.0172
 9544W        W22958   0.951   3.639  10.723 -0.1034 -0.1513 -0.2337
 9545W        W22959   3.873   9.641   4.451  0.0221  0.0883  0.1123
 9546W        W22960  12.885  14.704   2.244  0.4429  0.0255  0.1587
 9547W        W22961  10.172  12.911   6.009  0.0120  0.0112  0.0667
 9548W        W22962   0.087   8.355  12.522 -0.1537 -0.0296 -0.2641
 9549W        W22963  11.632  15.821   3.541  0.0853 -0.1852  0.1667
 9550W        W22964  12.929   6.871   4.255 -0.0113  0.2026  0.0181
 9551W        W22965  11.967   5.274   5.464 -0.0330 -0.0331  0.1814
 9552W        W22966   6.874   0.847  13.320  0.3316  0.5545  0.1797
 9553W        W22967  11.771   9.921   5.544  0.3557  0.0853  0.0032
 9554W        W22968   6.359  17.526   4.490  0.2220  0.2005 -0.3030
 9555W        W22969   4.338   2.472   0.569 -0.0434 -0.0499 -0.4236
 9556W        W22970   5.766  16.864   3.400 -0.0195  0.1001  0.0022
 9557W        W22971  13.907  16.822   0.804 -0.0050 -0.0379  0.2472
 9558W        W22972  13.813   9.667   4.714 -0.1226  0.0659 -0.0882
 9559W        W22973   0.902   1.419  15.178 -0.2817 -0.3189 -0.1448
 9560W        W22974   8.560  13.304  12.470 -0.0406  0.0007 -0.0730
 9561W        W22975   5.694   4.096   3.662 -0.0841 -0.3563 -0.2550
 9562W        W22976   4.363   6.045  12.330 -0.3655  0.1483  0.2354
 9563W        W22977   5.093   0.075  11.097  0.0270  0.1163  0.0653
 9564W        W22978   6.243  15.930  12.202 -0.0387  0.0133  0.0673
 9565W        W22979  17.809   5.142   1.055  0.1564 -0.1125 -0.0669
 9566W        W22980   1.085   5.967   0.461 -0.0556  0.2459 -0.2750
 9567W        W22981   2.862   9.805   1.013  0.0143  0.1504 -0.0657
 9568W        W22982  10.474   1.565   0.614  0.0175 -0.0073 -0.1433
 9569W        W22983   7.357  13.684  13.576  0.1873  0.2794  0.2390
 9570W        W22984  17.132  17.772   0.442 -0.0768 -0.0614  0.0303
 9571W        W22985   3.413   5.778   2.573 -0.1117  0.1459 -0.2420
 9572W        W22986  12.839   5.488   3.653  0.1634  0.2581 -0.0822
 9573W        W22987  14.964   9.216  12.415 -0.0289 -0.1335  0.2739
 9574W        W22988  15.412  17.035   4.814  0.0088 -0.0577  0.0127
 9575W        W22989  13.686   0.106   1.048  0.0368  0.0975  0.1467
 9576W        W22990   3.501   7.276   5.327 -0.0716  0.1095  0.0528
 9577W        W22991   1.765   1.437  15.039 -0.1266  0.3370 -0.0360
 9578W        W22992   2.987   2.627   3.826  0.0504 -0.3256 -0.0513
 9579W        W22993  16.367   7.455   6.625  0.0798  0.1129 -0.0697
 9580W        W22994   9.432  12.377  15.584 -0.0303  0.0568 -0.0371
 9581W        W22995   7.620   0.409  12.841  0.1002  0.0119 -0.2472
 9582W        W22996  17.470   7.651   3.183  0.0397 -0.0361 -0.0809
 9583W        W22997   7.644  10.039  15.494  0.1666 -0.1930 -0.0823
 9584W        W22998  10.163  10.962   4.564  0.0043 -0.0989  0.0895
 9585W        W22999  18.121  14.999  15.174 -0.1405  0.2893 -0.0413
 9586W        W23000  16.598   3.029   2.181  0.0005 -0.0411  0.0194
 9587W        W23001   5.900  15.247  13.534  0.1319 -0.1125 -0.0705
 9588W        W23002  16.658   1.207   2.541  0.3088  0.1070  0.4024
 9589W        W23003   8.698  10.546  11.364 -0.2673  0.0853 -0.0914
 9590W        W23004   0.589  17.728  12.621  0.2720  0.0632  0.2546
 9591W        W23005  15.918  11.481  12.224 -0.0752  0.2219  0.0109
 9592W        W23006  17.280   2.405   5.349 -0.0947 -0.3487  0.0852
 9593W        W23007   0.257   7.952  12.841 -0.2835 -0.0551 -0.2450
 9594W        W23008  14.167  11.302  16.425 -0.2160  0.3219 -0.0013
 9595W        W23009   6.704  14.929   1.674 -0.0132  0.2609 -0.4360
 9596W        W23010   0.262   2.251   0.680  0.0263 -0.2438  0.0851
 9597W        W23011  10.920   7.380   4.320  0.0993  0.2243  0.2977
 9598W        W23012  17.394   4.335  15.093  0.0224 -0.0995  0.1761
 9599W        W23013   5.272   2.772  15.484 -0.1842  0.0255 -0.2807
 9600W        W23014   9.085   2.525   2.344  0.1001 -0.1706  0.0624
 9601W        W23015   6.032   5.020  13.516 -0.0082  0.1568  0.0762
 9602W        W23016  11.361   4.527  14.431  0.0234  0.0207 -0.1459
 9603W        W23017   2.949   2.970   1.046 -0.1652 -0.2382  0.0649
 9604W        W23018  12.699  12.328   6.049 -0.3153  0.2951  0.3639
 9605W        W23019   6.792   6.854   3.882  0.1364 -0.1236 -0.1307
 9606W        W23020   7.403   1.827  10.931  0.1972 -0.0933 -0.2031
 9607W        W23021  10.291   9.955   2.396 -0.1325  0.2895  0.0870
 9608W        W23022   7.603  12.043   2.176 -0.0725  0.0677  0.1449
 9609W        W23023   2.349  11.214  11.716 -0.1939 -0.0116 -0.2379
 9610W        W23024   6.453  15.903  14.832  0.2934  0.0908  0.0437
 9611W        W23025   7.476   9.606  11.256 -0.0556 -0.2928 -0.0628
 9612W        W23026   8.835  12.256   1.841  0.0874  0.0732  0.0873
 9613W        W23027  11.135   0.445   0.401 -0.0290 -0.0400 -0.3226
 9614W        W23028  15.315   1.892   4.381  0.0849  0.2869  0.2583
 9615W        W23029   4.974   0.648   1.953 -0.0045 -0.0104 -0.0373
 9616W        W23030  14.955   6.605   3.610 -0.1304  0.0826 -0.0170
 9617W        W23031   5.773   9.596   5.520  0.1698 -0.0552  0.2423
 9618W        W23032   6.052   4.239  10.919  0.2895  0.2636  0.0473
 9619W        W23033  12.398  16.188   4.777  0.0360  0.1985  0.2344
 9620W        W23034   8.625   2.692  14.766  0.1286 -0.1202  0.2976
 9621W        W23035   1.174   5.642   4.028 -0.1556  0.3951  0.2074
 9622W        W23036   1.141  13.708   1.104 -0.2959 -0.1199 -0.0084
 9623W        W23037   7.848  11.559  15.607 -0.0128 -0.1544 -0.0221
 9624W        W23038   5.924  15.525   3.160 -0.1604  0.0853  0.5443
 9625W        W23039   8.012   4.803   4.617 -0.1387  0.4876 -0.2217
 9626W        W23040   0.578  16.196  12.394 -0.0063  0.1999  0.1433
 9627W        W23041  10.136  15.020   0.317  0.0157  0.0545  0.2992
 9628W        W23042   7.028  15.405  16.072 -0.3293  0.1445  0.0524
 9629W        W23043   1.016  17.448  10.147 -0.0828 -0.1809 -0.0185
 9630W        W23044  11.638   0.059   4.584 -0.0621 -0.1823 -0.1358
 9631W        W23045  14.852   1.813   6.041  0.1454  0.1912  0.2349
 9632W        W23046   0.805   0.895   1.072 -0.2051 -0.2427 -0.0093
 9633W        W23047  17.520   6.070  13.262 -0.0770 -0.0580 -0.0609
 9634W        W23048   2.279   8.935   2.676  0.1523  0.1532  0.3505
 9635W        W23049   7.777  18.217   1.883 -0.1837 -0.3542 -0.1845
 9636W        W23050   6.004   0.219   4.540  0.1191 -0.2332  0.1930
 9637W        W23051   4.886   1.784   4.900 -0.1874 -0.0440 -0.0797
 9638W        W23052  14.852   0.492  11.841  0.0451 -0.1255  0.2367
 9639W        W23053   9.678   3.359   4.487  0.2044 -0.3053 -0.1425
 9640W        W23054   4.891   6.902  13.034  0.1572 -0.4094  0.0824
 9641W        W23055   7.474   7.022   0.199 -0.1502 -0.2088 -0.0861
 9642W        W23056   3.560   9.398   0.874 -0.0079  0.2688  0.1382
 9643W        W23057  14.791  14.605  14.990 -0.0411 -0.0873 -0.0106
 9644W        W23058  12.279   5.775   6.021  0.0473  0.3134 -0.0153
 9645W        W23059  17.506  15.965  13.561 -0.0199  0.1705  0.0548
 9646W        W23060  17.335  16.184  10.318  0.0914 -0.1352 -0.0965
 9647W        W23061   7.959  11.453  11.780  0.1038  0.1123  0.1094
 9648W        W23062   7.900   2.449  16.381 -0.0591 -0.0343  0.2827
 9649W        W23063  11.960  11.894   2.746 -0.2958 -0.0190  0.0228
 9650W        W23064  18.168   0.650   1.462  0.0933  0.0814  0.0907
 9651W        W23065   9.027  12.422  13.776 -0.0830 -0.3849  0.0523
 9652W        W23066  15.855   9.629  10.574 -0.1301 -0.0721 -0.0385
 9653W        W23067  10.490  10.344   0.687  0.2452 -0.3557 -0.1258
 9654W        W23068   6.212   2.704  12.050  0.0882  0.0266 -0.3074
 9655W        W23069   0.071   9.342  14.106 -0.2034 -0.4239 -0.0558
 9656W        W23070  12.204  12.210   6.429 -0.2872 -0.1206 -0.0518
 9657W        W23071   1.862   0.982  15.951 -0.1014 -0.3314 -0.0314
 9658W        W23072  15.667   0.130   4.444  0.0979 -0.2260 -0.0494
 9659W        W23073   0.906  10.544  10.770 -0.2127  0.0513  0.0914
 9660W        W23074  12.761   3.200   2.511  0.1578  0.3270  0.2142
 9661W        W23075  10.429   4.108  15.917 -0.0212  0.0169 -0.1177
 9662W        W23076  15.066  12.177  14.926 -0.0281  0.1237 -0.0017
 9663W        W23077   9.944  11.559   6.621  0.0340  0.0989  0.2713
 9664W        W23078   3.204  12.543   5.558 -0.0061  0.0441 -0.0504
 9665W        W23079  10.508   1.912   5.003 -0.1444 -0.0064 -0.3683
 9666W        W23080   7.506   7.931   0.730  0.3107 -0.2761 -0.1032
 9667W        W23081   9.144   9.994   5.025  0.2691  0.0978  0.0357
 9668W        W23082  18.076  14.628  10.576  0.0156  0.0220  0.0172
 9669W        W23083  10.490   7.124  10.940 -0.2112  0.1578 -0.2371
 9670W        W23084   5.995  11.165   1.724 -0.0070  0.0078 -0.2293
 9671W        W23085   9.681   1.124  14.746 -0.2023 -0.0711  0.0493
 9672W        W23086   9.080   3.938   5.280  0.0534 -0.4416  0.1704
 9673W        W23087  16.089   0.933   6.283 -0.2687  0.2102  0.0848
 9674W        W23088   7.098   9.000   2.320 -0.0812  0.1419  0.0026
 9675W        W23089   2.025   6.784  12.196 -0.0198 -0.1443  0.1176
 9676W        W23090  15.711   1.851   4.033  0.0308  0.0629 -0.2166
 9677W        W23091   0.283   4.044  15.763 -0.2046 -0.0060  0.3271
 9678W        W23092   9.272   5.955   5.193 -0.3652 -0.1236  0.0153
 9679W        W23093  17.299  12.778   3.684  0.1835  0.0533  0.2480
 9680W        W23094  14.722   7.063  12.404  0.0403 -0.2814 -0.0608
 9681W        W23095   2.342  12.426  15.801 -0.0192 -0.0354  0.0662
 9682W        W23096   9.274   6.178   3.377 -0.1606  0.2033 -0.1225
 9683W        W23097  12.104  12.061   3.866  0.0080  0.0771 -0.0416
 9684W        W23098   7.702   0.579   3.474  0.0262  0.0306  0.1034
 9685W        W23099   7.594  13.632   2.214 -0.1266 -0.0301  0.1343
 9686W        W23100   1.625  11.815  14.971 -0.2673  0.2424  0.0795
 9687W        W23101  16.528   4.214  16.150 -0.0228 -0.0434 -0.0939
 9688W        W23102   7.296   9.756  15.104  0.1172  0.0416  0.0688
 9689W        W23103  14.437  15.229   1.588  0.0636  0.0612 -0.1830
 9690W        W23104  12.783  15.911  14.703 -0.0078  0.0700 -0.0865
 9691W        W23105   6.298  16.389  11.393  0.1674  0.0743  0.0949
 9692W        W23106  17.990   3.230  12.604  0.3384 -0.1842 -0.1298
 9693W        W23107  15.126   3.492  12.460  0.1929 -0.2603 -0.1116
 9694W        W23108  14.065  15.316   3.048  0.1519  0.1165 -0.0694
 9695W        W23109  16.760   1.431  12.695  0.3800  0.1265  0.0637
 9696W        W23110   3.389  16.078   1.665 -0.0186 -0.3388 -0.1774
 9697W        W23111  11.941   2.913  16.248 -0.2576 -0.3570 -0.1369
 9698W        W23112  14.640  10.599   0.323 -0.0043 -0.0093 -0.0290
 9699W        W23113  10.218   0.458  11.474  0.0208  0.0046 -0.3109
 9700W        W23114   4.067  13.066  14.841 -0.2044  0.2051 -0.0089
 9701W        W23115  12.247   9.572  14.367 -0.0107 -0.0153  0.0148
 9702W        W23116   1.905   5.571  13.929  0.0213 -0.2007 -0.0593
 9703W        W23117   7.262  15.708   4.065  0.0884  0.0837  0.1316
 9704W        W23118   1.433  12.666  15.309  0.3006 -0.1986  0.1405
 9705W        W23119   7.606   7.574  10.963 -0.1698 -0.1198 -0.0185
 9706W        W23120   6.185   3.641  11.584  0.1008 -0.0017  0.0654
 9707W        W23121   5.128  13.050   3.211 -0.1237 -0.1550 -0.1392
 9708W        W23122   1.743   7.492   3.058 -0.1422 -0.0326  0.4639
 9709W        W23123  12.189  13.103  13.543  0.0686  0.1339  0.0631
 9710W        W23124   6.224   0.664   4.343  0.0006  0.0929  0.0316
 9711W        W23125   7.642   8.767   2.954  0.0197 -0.3152  0.3638
 9712W        W23126   7.298   1.865   0.140  0.2771 -0.0716  0.2131
 9713W        W23127   3.165  15.401   4.149 -0.1626  0.1926 -0.0161
 9714W        W23128   1.795   4.545  15.713  0.0336 -0.0097  0.0195
 9715W        W23129   9.111  10.628   6.309  0.1109 -0.2461 -0.0942
 9716W        W23130  11.731  11.060  14.332  0.1829 -0.0461 -0.3003
 9717W        W23131   7.510   5.608  14.188 -0.1003  0.2244 -0.1393
 9718W        W23132  12.619   8.660   5.058 -0.1697  0.1071 -0.1077
 9719W        W23133  13.682  16.929  11.207  0.2059  0.1210 -0.1975
 9720W        W23134   8.943   7.082  11.169 -0.2063 -0.1377  0.1328
 9721W        W23135  11.777   6.249  12.188 -0.1419 -0.0804 -0.1128
 9722W        W23136   1.714  15.158  14.123  0.1868  0.0577 -0.2593
 9723W        W23137  16.793  10.192   3.255  0.2475 -0.0747  0.0211
 9724W        W23138  16.606  14.522   4.727 -0.0238 -0.0112  0.1677
 9725W        W23139   3.110   1.559   1.377  0.0079 -0.1195  0.2073
 9726W        W23140   9.919  15.388  14.682  0.0854  0.3154  0.2808
 9727W        W23141   9.557  14.471   5.307 -0.2194  0.2192 -0.1513
 9728W        W23142  16.602   7.726   4.798  0.1784 -0.0716 -0.2658
 9729W        W23143   9.038  11.045   3.742 -0.4234  0.0983  0.0931
 9730W        W23144  13.959   5.128   2.666 -0.1620 -0.2809  0.0449
 9731W        W23145   0.941   0.624  13.390 -0.1820  0.2533  0.2794
 9732W        W23146  15.494  15.726   5.168 -0.1989 -0.2559  0.0307
 9733W        W23147  10.588   9.596   3.424  0.0122 -0.5637  0.0369
 9734W        W23148   1.145  10.175  15.288  0.1189 -0.0246 -0.1742
 9735W        W23149  11.545  13.366  15.698  0.1507  0.0422  0.0631
 9736W        W23150  14.299  10.369   5.118 -0.0168 -0.2005 -0.1411
 9737W        W23151   1.073  13.678   2.599  0.2705 -0.2071  0.3523
 9738W        W23152   9.549   4.773  11.384 -0.1880  0.0395 -0.1047
 9739W        W23153   9.471  14.394  13.996  0.0706  0.0621 -0.0542
 9740W        W23154   3.297   6.644  14.604 -0.2603 -0.1034 -0.2652
 9741W        W23155  14.758   8.435   3.755  0.1784  0.1676 -0.1964
 9742W        W23156   6.440  13.875  10.747 -0.0286 -0.0238  0.1210
 9743W        W23157   6.637   4.740  11.579 -0.2025 -0.2017  0.1750
 9744W        W23158  11.606   7.998  11.562  0.2495 -0.1385 -0.1939
 9745W        W23159  13.845   0.412  15.516  0.2085 -0.1156 -0.4768
 9746W        W23160  12.057  12.340   0.948 -0.0070  0.0357  0.2004
 9747W        W23161  11.046  13.567   3.868  0.3941  0.0745  0.3019
 9748W        W23162   5.069   0.006   6.127 -0.4736  0.1801 -0.1156
 9749W        W23163  10.663   0.269   1.064 -0.2831  0.0067 -0.0101
 9750W        W23164  15.921  16.466  10.675  0.0928  0.2642  0.0933
 9751W        W23165   7.600   5.436   6.267 -0.1232  0.1463  0.1925
 9752W        W23166   6.867   1.951  12.511 -0.0782  0.0692 -0.2613
 9753W        W23167   8.384   6.745   1.302 -0.0267  0.5055 -0.3166
 9754W        W23168   6.961  15.087  16.518  0.0239 -0.3272 -0.2558
 9755W        W23169   1.802   3.822   5.628  0.0895 -0.1567  0.0794
 9756W        W23170  15.230  16.546  13.867 -0.0402  0.3291 -0.2048
 9757W        W23171   2.738  15.310   5.362  0.0408  0.0113  0.0544
 9758W        W23172   9.645  12.780   5.781 -0.2049 -0.0415 -0.1316
 9759W        W23173  17.717  13.038   2.562 -0.1432 -0.1868  0.1079
 9760W        W23174  14.005   9.189   1.318 -0.0255  0.0567 -0.2091
 9761W        W23175   1.924   9.297   4.873 -0.1873 -0.2197  0.0239
 9762W        W23176   5.625   6.414  11.373  0.1922 -0.0309  0.1413
 9763W        W23177   2.128   0.035   6.200 -0.0192  0.1899 -0.2626
 9764W        W23178   0.981   8.247   1.529 -0.1801 -0.2298 -0.0227
 9765W        W23179  17.107  15.691  11.991 -0.1818  0.0517  0.0930
 9766W        W23180  11.228   3.165   9.779 -0.1301 -0.1081  0.0231
 9767W        W23181   5.887   9.078   5.477  0.0187 -0.2057 -0.2896
 9768W        W23182  17.383   3.355  15.654 -0.2492  0.1617 -0.0249
 9769W        W23183  15.994   5.426  15.300 -0.1211  0.2978  0.1481
 9770W        W23184  16.661   5.507   4.830 -0.1561  0.3793 -0.0599
 9771W        W23185   7.200  17.448  16.087 -0.1022  0.0121  0.0234
 9772W        W23186   7.567  14.545   0.675 -0.0077 -0.1369  0.2231
 9773W        W23187   4.532  14.231  15.362 -0.1083  0.1411  0.1025
 9774W        W23188  14.424   1.892  13.064  0.0840 -0.1712 -0.2937
 9775W        W23189   6.220   6.327  16.226  0.0271 -0.3870  0.0736
 9776W        W23190  12.741  15.293  11.809 -0.0823  0.2326  0.0324
 9777W        W23191   9.753  12.812  14.466  0.0075  0.2235  0.2275
 9778W        W23192  10.032   5.643   3.458 -0.0512 -0.0922 -0.1596
 9779W        W23193  12.172   4.660  15.836 -0.5805 -0.1261  0.2941
 9780W        W23194   7.589   2.857   0.788 -0.0693  0.0610  0.2399
 9781W        W23195   7.539  17.000  10.468 -0.1397  0.2087  0.0574
 9782W        W23196   1.089   7.287  15.183  0.0047 -0.3149 -0.1253
 9783W        W23197  10.286  18.054  14.131  0.2209 -0.2209 -0.1664
 9784W        W23198   3.013   5.375   5.944 -0.2926  0.1383  0.1953
 9785W        W23199  17.881   7.932  14.253 -0.1472  0.0805  0.0522
 9786W        W23200  11.180   5.260  11.639 -0.3678 -0.1638 -0.1061
 9787W        W23201   0.622  13.441   0.837  0.1253 -0.0278 -0.0714
 9788W        W23202   4.654  16.995  10.613 -0.1639 -0.0253  0.1828
 9789W        W23203  16.763   9.612  13.287 -0.3173 -0.0315 -0.0976
 9790W        W23204  14.307  17.668  13.702  0.1558 -0.1224 -0.0677
 9791W        W23205  12.689   7.923   4.418 -0.1336  0.0481 -0.0884
 9792W        W23206   7.419  13.836  10.861 -0.1494  0.1565  0.1987
 9793W        W23207  16.307   8.013  11.425  0.0032  0.1366 -0.1545
 9794W        W23208  17.397   7.461  12.935  0.0386  0.0255  0.1270
 9795W        W23209   8.787   6.323  11.850  0.4364 -0.2779  0.0244
 9796W        W23210  17.215  12.181   1.002 -0.1993 -0.0525 -0.2668
 9797W        W23211   6.072  17.223   4.771 -0.0179 -0.1155 -0.0954
 9798W        W23212   9.372   9.771   6.396 -0.1783 -0.3755  0.2648
 9799W        W23213  16.868  12.759   1.194  0.2398 -0.2246 -0.2570
 9800W        W23214  10.325  15.767   0.813  0.0020  0.0821 -0.0359
 9801W        W23215   6.791  13.041   2.298  0.2736 -0.1846  0.2521
 9802W        W23216  17.073   5.591  15.008 -0.0520 -0.1999  0.2585
 9803W        W23217   9.129  12.034   6.180 -0.1610 -0.1304 -0.0647
 9804W        W23218   3.238  15.220   0.379  0.0492  0.2229  0.1261
 9805W        W23219   2.825   4.014   4.571 -0.1780  0.1019  0.0499
 9806W        W23220  11.482  12.707  13.870  0.1765  0.3494 -0.0791
 9807W        W23221  15.177   0.858   0.052  0.1210  0.0021 -0.4754
 9808W        W23222  16.558  16.596  12.863  0.1496 -0.1477 -0.1205
 9809W        W23223  15.025  14.999   4.381 -0.0995  0.2345 -0.2336
 9810W        W23224   3.313  10.880  13.852  0.0812 -0.1598  0.0062
 9811W        W23225  12.841   4.927   5.373  0.0525  0.1840  0.1929
 9812W        W23226  16.822   6.880   1.215  0.1380  0.2171  0.0520
 9813W        W23227  17.126  11.220  12.875 -0.0659  0.2325 -0.0070
 9814W        W23228  10.611  11.448   3.093  0.0432 -0.1743  0.2083
 9815W        W23229  17.759   4.807   1.437  0.0038  0.0586 -0.1096
 9816W        W23230  14.233   7.965   5.842 -0.1820  0.0582 -0.2256
 9817W        W23231   7.356  14.880  11.673 -0.1892 -0.1060 -0.0299
 9818W        W23232  15.200  17.299   1.684 -0.3202  0.1857 -0.1313
 9819W        W23233  12.698   5.080  11.200  0.2040 -0.2974 -0.1688
 9820W        W23234   4.313   5.614  12.968 -0.1683 -0.3341 -0.1154
 9821W        W23235  12.938  12.815  15.351  0.0716  0.2228 -0.2414
 9822W        W23236   2.047  13.280   5.300 -0.0422  0.2098 -0.2508
 9823W        W23237   0.258  13.813   2.248  0.3188 -0.0605 -0.2503
 9824W        W23238   7.059   5.695  11.137  0.1614  0.1484 -0.2376
 9825W        W23239   1.835  10.652   2.671  0.3868 -0.0305  0.0309
 9826W        W23240  16.254   1.922  10.552  0.1182  0.1749  0.0163
 9827W        W23241   6.456  12.288  16.036  0.2807  0.3420  0.0553
 9828W        W23242   0.442   5.616   0.706 -0.1991  0.3197 -0.0636
 9829W        W23243   6.656  12.559   0.908 -0.0313 -0.1007  0.1131
 9830W        W23244  11.988   0.469   2.926 -0.1966 -0.1359 -0.1461
 9831W        W23245  12.823   0.970  15.692  0.0448 -0.0693  0.0090
 9832W        W23246   3.487   6.666   5.887 -0.0181  0.1721 -0.0690
 9833W        W23247  10.173   9.200   3.130 -0.0653  0.1237  0.2618
 9834W        W23248  11.775  17.372   5.023 -0.2832 -0.0379  0.2941
 9835W        W23249   0.124  17.033  12.747 -0.3316 -0.1767 -0.0270
 9836W        W23250   1.491  10.628   3.498  0.4121  0.2049  0.0788
 9837W        W23251   0.397  16.125  14.242 -0.0450 -0.4406  0.1536
 9838W        W23252  14.463   0.297  12.357 -0.2876  0.0362 -0.0097
 9839W        W23253  16.537  10.995   1.239  0.2574 -0.1396 -0.0546
 9840W        W23254  16.763  15.040   5.522  0.0463  0.1264 -0.1431
 9841W        W23255   8.595   9.594  14.371  0.1119 -0.2367 -0.1970
 9842W        W23256  14.365   9.276   6.199 -0.3088 -0.0113 -0.0600
 9843W        W23257   1.691  10.844  14.757 -0.1854 -0.0976 -0.0832
 9844W        W23258   9.612   8.894   1.346  0.0556  0.2362  0.1083
 9845W        W23259   8.927   5.276   3.619 -0.0123  0.1443 -0.0559
 9846W        W23260   2.129  15.354  15.150  0.0365  0.0499  0.0153
 9847W        W23261   4.744  16.888   3.154 -0.2376 -0.2207  0.0772
 9848W        W23262  17.644  11.683   1.843 -0.2842  0.1461  0.0448
 9849W        W23263   8.766  16.534  14.980 -0.0356 -0.0701  0.1715
 9850W        W23264  16.078  11.585   4.118 -0.1236  0.3656 -0.0268
 9851W        W23265  11.332   1.847  11.747 -0.1405  0.0862 -0.3280
 9852W        W23266   0.235   7.478  12.455  0.0875 -0.1754  0.2559
 9853W        W23267   1.475  10.713  13.757  0.0162  0.0541 -0.0595
 9854W        W23268  14.181  17.115   1.532  0.1896 -0.1647  0.3622
 9855W        W23269   6.452  17.357  15.221  0.2920 -0.0870  0.2177
 9856W        W23270   0.297   7.447  12.912 -0.0267 -0.0028  0.3159
 9857W        W23271   0.374   6.882   3.125 -0.1241  0.2439  0.0828
 9858W        W23272  17.901   0.263  11.670  0.3322  0.3074 -0.1851
 9859W        W23273  14.512   6.163  12.702 -0.0501  0.1553  0.0164
 9860W        W23274   4.129   5.715   3.170 -0.1261  0.2373 -0.2769
 9861W        W23275   9.603   3.557  10.906 -0.1621 -0.1273  0.1756
 9862W        W23276  11.790   5.188  13.355 -0.3383  0.3511  0.1597
 9863W        W23277  13.131   0.879  12.454 -0.0101 -0.1866  0.0252
 9864W        W23278  17.132  12.062  16.432  0.1921 -0.0147  0.1782
 9865W        W23279   8.081  13.931  15.912 -0.2109 -0.1876 -0.2899
 9866W        W23280  13.109   4.902   5.782  0.2663 -0.1297 -0.2032
 9867W        W23281   1.675  14.845   1.015  0.0866 -0.0261  0.0648
 9868W        W23282   8.682   6.351  16.071 -0.0964  0.1157 -0.1383
 9869W        W23283   9.334  17.310  14.820 -0.0266  0.3538 -0.0573
 9870W        W23284  18.082   9.451   0.702 -0.1687  0.4184 -0.1785
 9871W        W23285   3.111  14.050   4.156 -0.0880 -0.3500  0.1492
 9872W        W23286  10.245  10.517  16.163  0.1043  0.3035 -0.2224
 9873W        W23287  17.066   4.726  14.390  0.1929  0.1534 -0.0812
 9874W        W23288   8.080   2.144  13.617  0.0255  0.2427  0.2896
 9875W        W23289   8.952   1.630  13.043  0.3187  0.2221  0.0356
 9876W        W23290   5.574  16.833   2.045 -0.0945  0.3565  0.1900
 9877W        W23291  11.782   2.236  15.470 -0.0870  0.4035 -0.2833
 9878W        W23292  12.139  17.142   6.005 -0.1740 -0.2212  0.1017
 9879W        W23293   8.289  10.186   3.792 -0.2722  0.1532 -0.3448
 9880W        W23294  10.907  11.037  16.002  0.1829  0.0662  0.1459
 9881W        W23295   2.014  10.193   5.299 -0.2601  0.0622  0.2036
 9882W        W23296  17.748  10.000  13.268 -0.1036 -0.0438 -0.2385
 9883W        W23297  10.682   2.057   4.457 -0.2581 -0.1141 -0.1303
 9884W        W23298  11.089   6.009   4.839  0.0046  0.2767  0.5361
 9885W        W23299   6.982   1.078  14.386 -0.0470  0.3214 -0.0930
 9886W        W23300  12.218   7.508  15.528 -0.1185 -0.1935 -0.1388
 9887W        W23301   4.887   2.131  12.515  0.3295  0.0312 -0.0567
 9888W        W23302  11.851  13.774   5.398  0.1491  0.0187  0.0132
 9889W        W23303   5.939   3.860  16.028 -0.0872  0.0701 -0.1737
 9890W        W23304  15.428  16.332  10.642 -0.0849 -0.0397 -0.1960
 9891W        W23305   0.852  15.749  16.112  0.1555  0.2175  0.3856
 9892W        W23306  17.178   8.794   2.244  0.2771 -0.3493  0.0618
 9893W        W23307   2.969  18.200   0.257 -0.0979 -0.1477  0.1052
 9894W        W23308  13.847   2.495  12.744 -0.2911 -0.2788 -0.0232
 9895W        W23309   3.604  16.695   3.235  0.2292  0.1501  0.3044
 9896W        W23310   4.641   8.457   0.043  0.2225 -0.0621  0.1088
 9897W        W23311   3.088   1.486  12.183 -0.0254 -0.4602  0.2707
 9898W        W23312  14.068  13.042  13.094 -0.1775  0.0003  0.0975
 9899W        W23313  14.189  14.270  15.863 -0.2031  0.0552 -0.1141
 9900W        W23314  11.627  10.562   1.040 -0.3970 -0.2774 -0.2485
 9901W        W23315   3.847   3.874   5.342  0.0488 -0.0107 -0.1384
 9902W        W23316   5.644  10.761  11.651  0.1515 -0.0152 -0.0564
 9903W        W23317   9.108  12.624   5.310 -0.1562  0.1862  0.3935
 9904W        W23318   9.255   4.896   0.540 -0.1506 -0.0382 -0.1333
 9905W        W23319   7.799  12.570   6.567  0.1562 -0.0004  0.1713
 9906W        W23320   2.412   3.265   4.141 -0.1614 -0.0560 -0.0372
 9907W        W23321  13.750  10.067   3.602  0.0749 -0.2691  0.0593
 9908W        W23322   5.635  16.102  14.511  0.0934  0.2294 -0.1824
 9909W        W23323   0.161   0.528  15.333 -0.2242  0.1871 -0.0367
 9910W        W23324  14.647   5.761  15.058 -0.2322  0.1072  0.3544
 9911W        W23325  12.552  16.982   0.439  0.0436  0.2054  0.0700
 9912W        W23326   8.608  16.581  13.648  0.1565  0.0779  0.4715
 9913W        W23327  17.789   5.323  14.743 -0.0586  0.0883 -0.1197
 9914W        W23328  12.264  16.147  12.826  0.0302 -0.0607  0.2022
 9915W        W23329  14.845   3.274  10.820  0.0906 -0.1571 -0.0470
 9916W        W23330  17.418  10.157  14.074 -0.1726  0.2143 -0.0621
 9917W        W23331  14.885  16.658  13.533 -0.2174  0.3076  0.0738
 9918W        W23332   6.908  15.741   2.999 -0.1911  0.1469  0.0742
 9919W        W23333  13.403   7.041  15.644 -0.2039  0.1500  0.0497
 9920W        W23334  11.629  14.958  15.712 -0.1653 -0.2679  0.1064
 9921W        W23335   3.137  12.250   2.369  0.3744 -0.2377  0.0608
 9922W        W23336  11.923  14.350  10.903 -0.2051 -0.1251  0.0207
 9923W        W23337   2.765   0.104   1.451 -0.0258 -0.1614 -0.1103
 9924W        W23338   5.202  13.977   0.863 -0.1740 -0.0889  0.1258
 9925W        W23339   7.077   4.177   3.261  0.0492  0.1176 -0.1272
 9926W        W23340   2.641  10.257   1.301 -0.2561  0.0484  0.1493
 9927W        W23341   2.570   0.605   5.291 -0.1108  0.2331 -0.3820
 9928W        W23342   0.648  16.896   2.226 -0.1042  0.0679 -0.0378
 9929W        W23343  16.103  14.889  15.229  0.0810 -0.1728 -0.0544
 9930W        W23344   8.211  13.424   0.109 -0.0538 -0.0919 -0.1569
 9931W        W23345  10.647   9.866   0.476  0.1369 -0.0713  0.2697
 9932W        W23346   0.294  11.473  12.671 -0.1450 -0.1437  0.2423
 9933W        W23347  11.030  12.473  13.031 -0.1418 -0.3585 -0.0486
 9934W        W23348   7.513  14.576  10.517 -0.2292  0.0372 -0.0885
 9935W        W23349  17.350  17.115  12.719 -0.0031  0.0526 -0.1469
 9936W        W23350   3.971   2.731   4.137  0.1056 -0.1124  0.3107
 9937W        W23351  12.167   6.713   5.724  0.2338  0.1355 -0.2523
 9938W        W23352  11.867   1.690  11.877  0.3069 -0.1633  0.3380
 9939W        W23353   6.994   2.772  10.646 -0.3126  0.0890 -0.0323
 9940W        W23354  10.814   4.579   1.201 -0.4126  0.1815 -0.1382
 9941W        W23355  12.031  17.347   1.547  0.2962  0.0693  0.0797
 9942W        W23356   3.981  13.638   5.606 -0.3059  0.1225 -0.0002
 9943W        W23357  17.753   3.629  15.501  0.0659 -0.1503  0.1415
 9944W        W23358  13.205  16.446  13.532  0.1240 -0.3642  0.1249
 9945W        W23359   0.709  14.271   4.794  0.1125 -0.0281 -0.0239
 9946W        W23360  16.986   7.173   0.769  0.2721 -0.1208  0.1268
 9947W        W23361  13.836  13.839  11.978 -0.1731 -0.0443 -0.4552
 9948W        W23362   1.910  10.786   4.852  0.1346  0.0805  0.0589
 9949W        W23363   2.258   5.051   5.981  0.0080  0.3930  0.1079
 9950W        W23364  13.338  14.185  11.091  0.0979 -0.1915 -0.1504
 9951W        W23365   1.208  14.622   6.168 -0.2255  0.0444  0.2227
 9952W        W23366  12.952   5.257   1.756 -0.1399 -0.3987 -0.5089
 9953W        W23367  18.219  13.661   5.583 -0.0907 -0.3529 -0.0163
 9954W        W23368  10.462   5.161   5.194 -0.0656 -0.0501  0.0644
 9955W        W23369   9.570  16.803   1.462 -0.1564 -0.1551  0.0037
 9956W        W23370   7.948  17.474   0.210 -0.3367 -0.0804  0.2466
 9957W        W23371   4.889  11.334   5.109 -0.1165 -0.1041  0.3931
 9958W        W23372   2.398   2.441   2.059  0.2700 -0.1110  0.0835
 9959W        W23373  11.580  14.542   3.123 -0.0532 -0.2160  0.3915
 9960W        W23374   4.165  12.983  13.466  0.1438  0.0857  0.0549
 9961W        W23375  17.129   7.774   3.824  0.0940 -0.4810  0.0513
 9962W        W23376   0.697  16.578  16.313  0.1883 -0.0699 -0.0792
 9963W        W23377  13.252  17.340   0.269  0.0500 -0.0591  0.1500
 9964W        W23378   4.873   5.172   1.608 -0.3317  0.1566 -0.3025
 9965W        W23379   8.664   7.153   5.985 -0.4382  0.1533  0.0908
 9966W        W23380   3.392  16.153   0.398 -0.0792  0.0851 -0.2414
 9967W        W23381   4.029   1.148  11.373  0.0752  0.0365  0.2599
 9968W        W23382  15.767  13.445  10.618 -0.2081 -0.1106  0.0498
 9969W        W23383   6.054   6.380  15.367  0.1668 -0.2896  0.0000
 9970W        W23384  12.898   5.327   0.464 -0.3415  0.0184  0.3029
 9971W        W23385   3.792   3.744   0.401  0.3667 -0.1962 -0.1465
 9972W        W23386   0.909   9.155   1.967 -0.2768 -0.1201 -0.2627
 9973W        W23387  16.928  12.733  14.717  0.0594 -0.2734  0.2728
 9974W        W23388  14.489  14.274  14.861 -0.0764 -0.1151 -0.1484
 9975W        W23389  12.952  17.451  11.552  0.0316 -0.2534 -0.1898
 9976W        W23390   8.674   4.513  10.808 -0.0734 -0.0510 -0.1914
 9977W        W23391  11.502   2.853  12.366 -0.2298  0.1570  0.2370
 9978W        W23392   6.150  10.098   1.367  0.0701  0.0035 -0.1798
 9979W        W23393   5.880  17.794   3.027 -0.5179 -0.0356  0.0680
 9980W        W23394   8.524   3.778  15.368  0.1054 -0.0689 -0.0762
 9981W        W23395  15.296  17.369   0.169  0.0758  0.2444  0.2675
 9982W        W23396   9.014  10.669   3.316 -0.1036  0.0116  0.0407
 9983W        W23397   8.095  14.924   1.132 -0.0415 -0.2464 -0.0387
 9984W        W23398   7.609   4.941   1.669  0.0921  0.1963 -0.0806
 9985W        W23399   0.988   3.174  14.490 -0.1703  0.1481  0.0353
 9986W        W23400  17.552   5.234  14.295  0.2203 -0.1799  0.0029
 9987W        W23401  15.501   4.371  12.675 -0.0158 -0.3950  0.0231
 9988W        W23402  11.666   1.433   5.118 -0.1544  0.4027  0.2604
 9989W        W23403   9.094  15.416  12.392 -0.0657 -0.1706  0.1775
 9990W        W23404  10.257  16.724  12.155  0.0959 -0.0691  0.0606
 9991W        W23405   5.659  12.619   4.453 -0.2353 -0.1650 -0.0474
 9992W        W23406   5.565  10.053  15.403  0.4489 -0.1398  0.1604
 9993W        W23407   1.425   1.017  15.748 -0.2396 -0.0947 -0.0913
 9994W        W23408  13.730   5.116   3.260  0.2572  0.3145 -0.2344
 9995W        W23409  14.305   5.800   0.408  0.1250 -0.1065 -0.2356
 9996W        W23410  18.145   4.454   0.408  0.0650  0.0084 -0.3803
 9997W        W23411  12.685   2.604   3.262  0.1064 -0.0372 -0.3316
 9998W        W23412  10.667  12.288  14.294 -0.0821 -0.0232 -0.1296
 9999W        W23413   4.615  13.800  11.213  0.2167 -0.3246 -0.0341
10000W        W23414   2.373   5.294  10.991  0.0244  0.4521  0.1456
10001W        W23415   3.354  10.472  14.216  0.0388 -0.0032 -0.2816
10002W        W23416   4.478   9.399   0.039  0.1918 -0.0591  0.0512
10003W        W23417   1.267   0.053   0.570  0.1466 -0.2355  0.1326
10004W        W23418   9.906   0.585  13.511 -0.0620  0.3450  0.2597
10005W        W23419  17.879   8.363   2.454  0.0950  0.0148 -0.0668
10006W        W23420   9.867   8.658   6.453  0.0773  0.0594 -0.1502
10007W        W23421  15.646   7.732   3.404 -0.0884 -0.3136 -0.0208
10008W        W23422   3.758   7.538  11.386  0.2137 -0.1235  0.2453
10009W        W23423   4.949  12.590   3.359  0.0495 -0.4265 -0.1552
10010W        W23424  17.713   6.705  11.024 -0.2104  0.1453 -0.1466
10011W        W23425  12.590   5.714   0.422 -0.2527 -0.2120  0.1279
10012W        W23426  13.012  15.377   9.684  0.0555  0.0112  0.3724
10013W        W23427   2.722  16.845  13.070  0.1055 -0.3016  0.1362
10014W        W23428  17.600   3.570   2.065  0.0819 -0.4090 -0.1804
10015W        W23429   0.528  12.390   2.496  0.0827 -0.1349  0.2038
10016W        W23430  16.489  13.165   1.859 -0.2260  0.3744 -0.2215
10017W        W23431   6.136   2.362  11.697  0.1526 -0.3595 -0.1093
10018W        W23432  11.463  10.072  11.536  0.2589 -0.1390  0.0849
10019W        W23433   0.929  15.644   3.289  0.0744 -0.0681  0.0016
10020W        W23434   9.357  13.128  11.949 -0.0407 -0.1076 -0.0432
10021W        W23435  10.414  16.303  11.574  0.1438 -0.0555  0.2031
10022W        W23436   2.273  10.293  11.332 -0.0723 -0.0556 -0.0418
10023W        W23437   1.334   6.241  15.887 -0.2280 -0.1312 -0.0349
10024W        W23438   3.565  10.372  15.021 -0.1067  0.1324  0.2965
10025W        W23439   3.773   1.038  16.367 -0.2122 -0.0689 -0.0813
10026W        W23440   4.277   0.089   2.092 -0.0615  0.2895 -0.1960
10027W        W23441  14.024  11.049   1.884 -0.1675 -0.2561  0.0160
10028W        W23442   5.902   3.431   1.203  0.0202 -0.3000 -0.1015
10029W        W23443   5.053   0.572  12.873 -0.0448 -0.1225  0.2800
10030W        W23444   0.115   3.812  13.871  0.1983 -0.0513 -0.0263
10031W        W23445   1.128  17.641   1.215 -0.1576 -0.0270  0.1479
10032W        W23446   1.559  12.582  13.235 -0.1041  0.0789  0.2184
10033W        W23447   0.526  11.922  10.608  0.2310 -0.1048 -0.0945
10034W        W23448   3.700  15.854   3.383  0.0941  0.3304  0.0410
10035W        W23449  12.230   3.215  10.834  0.0918 -0.0712 -0.1691
10036W        W23450   3.804  12.037   1.974 -0.2678 -0.1373  0.0878
10037W        W23451   0.450  13.287   5.772  0.0154  0.0406  0.1568
10038W        W23452  17.443   3.677   3.385  0.1080  0.0176  0.0621
10039W        W23453   3.102  13.194  14.894  0.1803 -0.0961 -0.3791
10040W        W23454   1.467   9.369  16.041  0.1395  0.0153  0.0121
10041W        W23455   3.108  14.609   4.511 -0.0280  0.1691  0.1443
10042W        W23456  10.757   2.119  16.072 -0.1772 -0.2180  0.1398
10043W        W23457   5.719   1.320   2.588 -0.1831  0.2389 -0.2259
10044W        W23458   7.119  17.976  10.449 -0.0296 -0.0586  0.2100
10045W        W23459  10.360  13.098  14.923  0.1806  0.4127 -0.0400
10046W        W23460  17.912   8.317  14.541 -0.0252 -0.2043  0.2699
10047W        W23461   5.780   6.861  11.710  0.1952 -0.1632  0.0308
10048W        W23462   8.754   1.043  14.073 -0.0335  0.1698 -0.0304
10049W        W23463  13.121   1.350  14.139 -0.3633 -0.2128 -0.2767
10050W        W23464  17.528  11.917   5.730  0.0994 -0.2660 -0.0597
10051W        W23465  17.503  14.925  12.291 -0.1437  0.1788 -0.0450
10052W        W23466   9.366   7.022  13.956  0.0269  0.0612  0.0210
10053W        W23467   1.608  10.923  16.028 -0.2399  0.2143 -0.0089
10054W        W23468   4.278  13.856   2.624 -0.3215  0.0122  0.1643
10055W        W23469   3.934  14.090   0.740  0.0318 -0.5639  0.2338
10056W        W23470  12.123   5.181  11.295 -0.1486 -0.1669 -0.0930
10057W        W23471   1.809  13.218   1.066  0.2219  0.0361 -0.1634
10058W        W23472   7.655  15.879  15.870 -0.1067 -0.0598  0.1530
10059W        W23473  13.700  12.864  15.962  0.0707  0.1741 -0.1261
10060W        W23474  10.687   6.487  14.103  0.2662 -0.0433 -0.0608
10061W        W23475   9.245   9.877   0.161 -0.1620  0.2139 -0.0190
10062W        W23476   3.184  16.385   3.196 -0.0982  0.1217 -0.3091
10063W        W23477   4.439  12.646   2.301 -0.1141 -0.0102  0.1142
10064W        W23478  13.259  11.652  11.475  0.3979  0.0391  0.0959
10065W        W23479   5.692   0.912  14.119  0.2015 -0.2072  0.1347
10066W        W23480   5.117   0.889  15.258 -0.2176 -0.0589 -0.2582
10067W        W23481  10.713   6.678   0.374  0.0989 -0.0144  0.0609
10068W        W23482   2.797  12.796  16.495  0.0823  0.2531 -0.2913
10069W        W23483  14.903   4.823  15.266 -0.0546 -0.0882 -0.1787
10070W        W23484   2.027  15.806   2.348  0.0746 -0.0071  0.2173
10071W        W23485   7.493   7.346  12.164  0.1470 -0.2014  0.0306
10072W        W23486   8.607   1.713   9.475 -0.0975  0.1088  0.0738
10073W        W23487  16.684   3.756   1.019 -0.1563 -0.1522 -0.2360
10074W        W23488   6.892   8.014  13.622  0.1986  0.3052  0.0996
10075W        W23489   2.886  14.471   4.048 -0.3969 -0.1713  0.3724
10076W        W23490   1.595  10.423   5.206 -0.0971  0.0062 -0.0453
10077W        W23491  12.866   3.486  14.201  0.1838  0.0354 -0.2890
10078W        W23492   9.014   8.475   0.456  0.1082  0.1285 -0.1604
10079W        W23493   7.330  10.807  11.711 -0.0675 -0.0820 -0.1372
10080W        W23494  17.468  14.950   2.580 -0.0994 -0.0687  0.0796
10081W        W23495  12.704   8.218  16.377 -0.1152  0.1018  0.1056
10082W        W23496  14.811  12.744  13.085  0.1904 -0.3057 -0.1318
10083W        W23497  16.252  15.408   2.104  0.1660 -0.2449  0.1089
10084W        W23498  10.929   1.250   2.292  0.0596 -0.0262 -0.1255
10085W        W23499   4.037   0.385   2.521 -0.4252  0.1196  0.2784
10086W        W23500   9.950   1.188  16.357  0.1459 -0.1968  0.1125
10087W        W23501  12.907  14.623  15.320 -0.0972  0.1200  0.0911
10088W        W23502  13.639  13.229   5.959 -0.1298 -0.0352 -0.1582
10089W        W23503  14.088  16.317  16.333 -0.4723  0.1516 -0.1677
10090W        W23504   2.468  12.483   4.982 -0.4281 -0.0851 -0.0350
10091W        W23505   5.391  10.041  12.389 -0.1604 -0.0211 -0.0370
10092W        W23506   5.711   4.227   5.608 -0.1111 -0.2202 -0.1135
10093W        W23507   6.629   8.947   1.701 -0.2111 -0.1784 -0.1380
10094W        W23508  17.670  13.542   2.494 -0.1564  0.1682 -0.0981
10095W        W23509  12.756   3.257  12.407  0.5158 -0.0594  0.2296
10096W        W23510   0.772   2.245  13.366 -0.2993  0.0449  0.0419
10097W        W23511  17.038  14.752   3.988 -0.1816 -0.1541 -0.1406
10098W        W23512   8.628   7.167  15.564 -0.0850  0.4234 -0.1292
10099W        W23513   4.650  14.086  16.026 -0.1167 -0.0670 -0.3198
10100W        W23514   9.843   3.186  11.862  0.0024  0.0541  0.0509
10101W        W23515  16.847  17.995  12.747  0.2908 -0.0759 -0.0663
10102W        W23516   0.235  10.637  13.078 -0.1865  0.1215  0.1133
10103W        W23517   1.276  14.885  13.349  0.0235 -0.0955 -0.1771
10104W        W23518  17.231  16.171  12.088 -0.1095 -0.0149  0.3541
10105W        W23519  10.374   0.230  12.791  0.0023  0.2238  0.3669
10106W        W23520  10.880   5.320  13.942 -0.0656  0.1655 -0.3751
10107W        W23521   8.395  13.343   2.410 -0.3771  0.2905 -0.1096
10108W        W23522   1.641   1.536  14.542 -0.0911  0.3826 -0.3075
10109W        W23523   5.335  15.024  15.712  0.1636 -0.2971  0.1877
10110W        W23524   5.835   3.796   3.271  0.0102 -0.0035  0.0644
10111W        W23525  11.379  15.883  14.335  0.3498  0.0131  0.4484
10112W        W23526   7.513   3.312   4.748 -0.4006  0.0247 -0.1736
10113W        W23527   3.173  16.022  15.450 -0.0927  0.1647 -0.0773
10114W        W23528   6.097   7.831  14.215  0.1417  0.2770  0.0463
10115W        W23529   0.040  10.040  11.408 -0.0717 -0.0549  0.1634
10116W        W23530  17.512   8.475  15.298 -0.0828 -0.1139  0.1389
10117W        W23531  12.706  14.687  12.147  0.0173 -0.0359 -0.0903
10118W        W23532  14.781  11.569   1.716  0.2054 -0.0660 -0.0351
10119W        W23533  11.795   9.676   1.952 -0.1319  0.1705 -0.1791
10120W        W23534   1.153   0.640  11.274 -0.0836 -0.0241  0.1045
10121W        W23535  16.246   4.321  11.364 -0.1204  0.0426  0.2375
10122W        W23536   5.863   6.580   3.844 -0.0784  0.3948  0.1188
10123W        W23537  10.316   4.243   4.433  0.0851  0.1290  0.0759
10124W        W23538  13.265   2.328  12.235 -0.0280  0.0278 -0.2258
10125W        W23539  11.376  11.055   4.274 -0.0381 -0.0168 -0.2836
10126W        W23540   6.163  10.336   4.485 -0.2797  0.2020  0.0771
10127W        W23541   0.139   7.328  16.332  0.2398 -0.0665 -0.2026
10128W        W23542  16.572   3.247   3.319 -0.1924  0.3659 -0.2765
10129W        W23543   2.767   4.422   5.667  0.2629  0.1589  0.0927
10130W        W23544   6.376   9.061  12.987 -0.1851  0.5137  0.0213
10131W        W23545   5.849  15.886   5.597  0.2755  0.1278 -0.2608
10132W        W23546   3.531   3.590  12.489 -0.0048  0.0616  0.0005
10133W        W23547   9.770  17.620  10.584 -0.0102 -0.0604 -0.0485
10134W        W23548  13.312   2.548   0.569  0.3982 -0.1315 -0.1207
10135W        W23549   8.704  15.588  15.194  0.0867  0.2230  0.2678
10136W        W23550   1.142   4.146   5.792  0.1225 -0.1861 -0.1442
10137W        W23551  13.918   0.195   0.329  0.1595 -0.0941  0.2273
10138W        W23552   4.392   2.995   5.468  0.1434 -0.0512  0.1709
10139W        W23553   5.493  10.593   2.553 -0.0340  0.0105  0.0504
10140W        W23554  17.138   1.116   2.323  0.1417 -0.0347 -0.1377
10141W        W23555   8.303   2.726  10.449 -0.1212  0.1007 -0.2377
10142W        W23556  16.585  13.032  11.489  0.1660  0.0314 -0.2986
10143W        W23557   8.683   8.883  12.684 -0.1215 -0.0518 -0.1082
10144W        W23558  14.984   5.510   2.658  0.3611 -0.0023  0.0591
10145W        W23559  14.079   3.870   1.101 -0.3101  0.0998  0.1368
10146W        W23560   3.525   6.019  11.953  0.0822 -0.0969 -0.3737
10147W        W23561  16.337  17.443   4.811  0.1102  0.0444  0.0756
10148W        W23562   0.154  12.044  13.903  0.2854 -0.2905  0.1326
10149W        W23563  17.770  15.164   5.122  0.0874 -0.1619 -0.4046
10150W        W23564   5.510   6.827   3.600 -0.0034  0.0817 -0.3476
10151W        W23565  10.597   9.744   6.133 -0.0132  0.0719  0.0524
10152W        W23566   3.812   7.709   5.283 -0.2490  0.0442  0.0235
10153W        W23567  10.740  17.650  16.274 -0.1127  0.2878  0.2481
10154W        W23568  11.953   6.957  13.213  0.2870  0.4202 -0.2376
10155W        W23569   0.848   7.369   0.419  0.0049 -0.0634 -0.1625
10156W        W23570   2.825  17.977   2.765 -0.3214  0.3257 -0.3110
10157W        W23571   3.066   7.192   0.240  0.0654  0.0080  0.0803
10158W        W23572  12.957  12.774   0.840  0.1699 -0.0321  0.0263
10159W        W23573   1.226   9.326   0.512  0.0929 -0.1593 -0.0669
10160W        W23574   0.824  11.758  10.268  0.3892 -0.0073  0.1223
10161W        W23575  11.155   7.228  12.975 -0.1381 -0.0859  0.0130
10162W        W23576  11.952  12.211  12.468  0.0227 -0.0410 -0.1660
10163W        W23577   0.849   7.027   6.302  0.1053 -0.2669  0.0063
10164W        W23578   5.073   8.454  15.760 -0.2652 -0.1061  0.0684
10165W        W23579   9.071  10.987  16.453  0.1705 -0.1791 -0.1646
10166W        W23580   7.464   6.639  16.372 -0.1127 -0.1185 -0.0652
10167W        W23581   3.739  10.217   2.627  0.0981 -0.0283 -0.1786
10168W        W23582   1.099  17.157  15.696  0.1403 -0.1115  0.2292
10169W        W23583   2.313  14.125  16.086 -0.0382 -0.0568  0.0247
10170W        W23584   8.984   1.409   4.828  0.2896 -0.2495  0.1801
10171W        W23585   8.869  13.295   2.618  0.0082  0.1204  0.3199
10172W        W23586   9.724  17.663   0.977  0.1254  0.0640  0.0045
10173W        W23587   1.040   9.048  13.343  0.1160  0.0375  0.1225
10174W        W23588  17.317   4.594   5.515  0.1373  0.3376 -0.0154
10175W        W23589  11.389   1.071   3.716  0.0705 -0.2912 -0.0741
10176W        W23590  16.985  11.067  12.379 -0.1811  0.3847  0.0384
10177W        W23591   7.246  11.096  12.515  0.2455  0.0869 -0.1720
10178W        W23592  14.160  11.135  15.636 -0.1567  0.1387  0.2174
10179W        W23593  17.543  17.769   6.035 -0.0501 -0.1919 -0.0233
10180W        W23594   8.330   6.057  11.685  0.3092  0.0057  0.2241
10181W        W23595  13.089   8.264   3.883  0.2293  0.0663  0.2784
10182W        W23596  15.344   3.100  14.433 -0.1369 -0.0461  0.0940
10183W        W23597  14.957   1.664  10.509  0.3991  0.1653  0.2170
10184W        W23598   1.421  13.552  11.411 -0.2115  0.2763  0.1250
10185W        W23599  12.145  10.952   2.317 -0.2867 -0.2751  0.2477
10186W        W23600  17.636  15.254   4.001 -0.2242 -0.0892 -0.0213
10187W        W23601  10.088  11.294  15.833 -0.1351  0.0092  0.1016
10188W        W23602   0.898   9.112  12.507 -0.0623 -0.1700  0.0534
10189W        W23603   8.662   1.372  16.290  0.2731 -0.0468  0.2007
10190W        W23604   9.857   9.831  16.071 -0.0934  0.0181 -0.0190
10191W        W23605   2.634   0.929  13.095 -0.0404  0.2126  0.2555
10192W        W23606   1.904   0.032  12.508  0.0684  0.4717 -0.0168
10193W        W23607  16.019  15.518  13.434  0.1432 -0.1879 -0.0127
10194W        W23608   8.804   9.361  12.621 -0.2044  0.0252  0.0070
10195W        W23609   0.597   1.174   0.730 -0.0094  0.1232 -0.2971
10196W        W23610   4.473   0.826  11.541 -0.0439  0.1338 -0.1580
10197W        W23611   9.917   1.625   3.912 -0.0203  0.3037  0.0525
10198W        W23612   3.835   5.647  12.866  0.3284  0.0852  0.1243
10199W        W23613  10.258  13.411   5.936  0.1507  0.1681  0.1653
10200W        W23614  17.279   3.905  13.242  0.0485  0.0950 -0.1233
10201W        W23615   2.051  15.631  14.243  0.1969 -0.1955  0.2294
10202W        W23616  17.494   7.960  11.701  0.0932  0.1479 -0.1675
10203W        W23617   8.967  16.975   0.878  0.3071  0.0011 -0.2376
10204W        W23618  15.441   3.335   1.469 -0.0586 -0.0360 -0.0089
10205W        W23619   1.287   7.407  16.191 -0.0912 -0.1582 -0.0752
10206W        W23620  11.488  15.883  15.480  0.1842  0.0296 -0.0955
10207W        W23621  14.254   6.232   0.286 -0.2371  0.2383  0.2844
10208W        W23622   9.428  14.982  15.244  0.1307 -0.2178 -0.0543
10209W        W23623   0.519  14.395  12.909  0.3543 -0.0823 -0.0395
10210W        W23624  15.946   9.251   0.381 -0.2931 -0.1550 -0.1052
10211W        W23625   0.167   6.010  13.060  0.0102  0.0406 -0.4276
10212W        W23626   6.399   6.365  15.767 -0.0177 -0.1453 -0.1110
10213W        W23627  12.342  15.806  12.306  0.0257  0.2194 -0.0574
10214W        W23628   5.517   8.996  14.751 -0.1090  0.2497  0.1562
10215W        W23629  12.161   0.118  15.539  0.1011  0.0437  0.1816
10216W        W23630  10.622  12.223   4.533  0.1365 -0.2646 -0.1568
10217W        W23631  12.300  16.908  16.446 -0.2783  0.0418  0.1413
10218W        W23632   8.619  11.414   4.061 -0.1306 -0.1787  0.0492
10219W        W23633   3.349   9.783  12.169  0.2723 -0.2706  0.0132
10220W        W23634  11.241  15.888   4.764  0.1820  0.1224  0.0761
10221W        W23635   5.310   4.110   5.127  0.3296  0.1160 -0.0759
10222W        W23636   2.350   0.803  10.824  0.4126  0.1341 -0.0159
10223W        W23637   4.378   4.458  14.310 -0.0332 -0.0153  0.0278
10224W        W23638  16.172  11.251   0.984  0.2180  0.1974  0.0023
10225W        W23639  15.837  10.137  15.943 -0.3457 -0.0568  0.4010
10226W        W23640   8.254   4.312  14.577  0.0020 -0.0104  0.0752
10227W        W23641  13.321  13.467   0.431  0.0301  0.3867 -0.0035
10228W        W23642  11.784   8.924  15.475  0.2018  0.2740  0.0420
10229W        W23643  10.381   7.954  14.012  0.1376 -0.0139 -0.0846
10230W        W23644   4.972   5.654   0.453  0.1092  0.1930 -0.0531
10231W        W23645  17.825  17.814   0.700 -0.1731  0.3992 -0.0380
10232W        W23646  18.138   1.057   1.070  0.1187 -0.2938 -0.0605
10233W        W23647   0.460  17.714  13.164 -0.1110 -0.1176 -0.0529
10234W        W23648  15.563   6.098  15.344  0.0561  0.2625  0.0283
10235W        W23649  16.155  13.381  15.686 -0.0833  0.0849 -0.0737
10236W        W23650   7.546   3.910  15.065 -0.0710  0.1188  0.1382
10237W        W23651  14.981  15.984  13.686  0.1878 -0.0716 -0.1271
10238W        W23652  11.706   5.790   0.617 -0.1321 -0.0660 -0.0006
10239W        W23653   3.444  11.197  11.623  0.0461  0.0259  0.1478
10240W        W23654   5.141  17.107   1.997  0.0128 -0.0654 -0.0133
10241W        W23655   3.630  15.727   0.339  0.0265 -0.0839 -0.0703
10242W        W23656  16.614   6.467  11.644  0.0201  0.0132 -0.2657
10243W        W23657   4.384   6.230   5.492 -0.0652  0.2964  0.3832
10244W        W23658  12.717   5.101   2.247  0.3526  0.0412  0.4235
10245W        W23659   5.305   7.455   1.649  0.0136 -0.2724  0.2412
10246W        W23660  10.501  12.508   5.553 -0.1896  0.0466  0.1338
10247W        W23661   9.285   1.104   4.582 -0.0986  0.0801  0.3527
10248W        W23662  15.775   4.457  15.578  0.1393 -0.3503 -0.1486
10249W        W23663   7.561  17.738   1.074 -0.5387 -0.1429 -0.2203
10250W        W23664  12.667   3.991  13.899 -0.2781  0.0508  0.0178
10251W        W23665   5.441   0.955  10.336  0.2638  0.0812 -0.3270
10252W        W23666   2.402  17.875  11.484 -0.2713  0.2240  0.1765
10253W        W23667  13.609   9.467   2.091 -0.3469  0.1621 -0.2721
10254W        W23668   4.056   4.833  13.150  0.0798 -0.0705  0.4269
10255W        W23669   4.204   5.418  14.367 -0.1405  0.1596 -0.0033
10256W        W23670  14.322   1.164  14.919 -0.3126  0.1785  0.2167
10257W        W23671   9.281  16.259   4.896 -0.0235  0.0114 -0.1837
10258W        W23672   4.608   6.680  14.871  0.2792  0.1408 -0.2658
10259W        W23673   1.663  16.712   0.623  0.3201 -0.0358 -0.0669
10260W        W23674  11.933  12.544   4.201 -0.0110 -0.0795  0.0040
10261W        W23675  12.158   4.510   1.077  0.0903 -0.0251  0.0993
10262W        W23676   8.521  13.865   4.385  0.2030  0.1579  0.1133
10263W        W23677   5.996   5.758   1.373  0.0542  0.2559 -0.0529
10264W        W23678   4.084  15.093   0.461  0.0147 -0.3880 -0.0416
10265W        W23679  12.114  17.915   5.621  0.0786  0.1573  0.2232
10266W        W23680   6.081  13.600   2.571  0.0108 -0.0230 -0.0298
10267W        W23681  16.696   6.632  14.273  0.2633 -0.1547  0.0130
10268W        W23682   7.281   6.966   2.605 -0.2067 -0.0424 -0.1799
10269W        W23683  18.194   3.548   1.422  0.2544  0.3457 -0.3138
10270W        W23684   0.720  10.903   2.395  0.3305  0.0506 -0.1840
10271W        W23685   6.547  13.749   1.270  0.0199 -0.2447  0.0215
10272W        W23686  12.319  13.565   5.087  0.1031  0.0276  0.2302
10273W        W23687  17.029   7.418   5.867 -0.1688 -0.0551 -0.3262
10274W        W23688   4.602   1.019   4.432 -0.1631  0.1606  0.1689
10275W        W23689  17.652   5.459   3.111 -0.0025 -0.1404 -0.3186
10276W        W23690  10.259  14.740  11.748  0.1620  0.0166  0.2762
10277W        W23691   9.751  16.325  10.894  0.0697  0.0147 -0.1062
10278W        W23692   4.510   6.942  13.437  0.0108  0.0868  0.1648
10279W        W23693  13.156  16.102  14.336  0.0113 -0.1810 -0.1556
10280W        W23694  11.361   2.297  15.162 -0.0258 -0.0844 -0.1124
10281W        W23695   1.966   0.774   4.949  0.1269  0.0388 -0.2791
10282W        W23696   7.733  14.998  11.392 -0.1242  0.0508 -0.4383
10283W        W23697   4.845   7.164   0.374  0.1867  0.2667 -0.4510
10284W        W23698  11.856  13.076   4.109  0.3083 -0.2023  0.1603
10285W        W23699  11.982  10.909   6.079  0.0861 -0.2095  0.0894
10286W        W23700   2.065  11.579  11.673 -0.2003 -0.0961  0.4676
10287W        W23701   9.220  11.698  11.711  0.0921  0.2849 -0.0510
10288W        W23702  13.895  17.648  11.596 -0.1142 -0.2344  0.2292
10289W        W23703   2.367  10.423   6.632 -0.0501  0.1504 -0.1464
10290W        W23704  16.929  16.514  11.760  0.0211  0.0038  0.2166
10291W        W23705   6.985   5.131  12.335  0.0020 -0.0162  0.0050
10292W        W23706   3.032   9.447  13.066 -0.1131 -0.0894  0.0427
10293W        W23707   1.474   6.578  14.932 -0.3002  0.0616  0.3558
10294W        W23708   1.207  17.132   1.364  0.0957  0.0455 -0.0505
10295W        W23709   1.204   7.290   0.863  0.3175  0.0641 -0.0290
10296W        W23710   4.806   2.621   3.049 -0.1410 -0.0845  0.0336
10297W        W23711  13.699  15.943  12.823 -0.3449 -0.0326 -0.3456
10298W        W23712   1.720   1.119   4.690 -0.1855 -0.2492 -0.0994
10299W        W23713  10.436  10.941  15.930  0.1141  0.1074 -0.0078
10300W        W23714  15.239  12.343  14.500  0.2824 -0.1272 -0.1546
10301W        W23715  12.901   4.849  12.444 -0.0460  0.0082 -0.3877
10302W        W23716   1.141   6.129  12.804 -0.0340 -0.0825 -0.2466
10303W        W23717   0.505   3.596   3.367 -0.1785  0.1407 -0.2973
10304W        W23718  13.576   2.229  14.139 -0.1355  0.0359  0.2203
10305W        W23719   8.703   5.938  14.579  0.3193  0.0003  0.0313
10306W        W23720  11.648  13.213   3.173  0.0470  0.1402 -0.2861
10307W        W23721   3.232   2.648   4.599  0.0327 -0.1877  0.2330
10308W        W23722  12.320  16.953   1.698 -0.1439  0.0529 -0.1145
10309W        W23723  17.339  12.649   0.933  0.0413 -0.0928 -0.3488
10310W        W23724   9.292   0.411   1.800 -0.0244 -0.0261 -0.2065
10311W        W23725   6.959  10.075   3.480 -0.1223 -0.0941  0.1957
10312W        W23726   7.060   9.584   5.079  0.3325  0.0644  0.2242
10313W        W23727   4.850   4.274   3.415  0.0655  0.2212  0.0756
10314W        W23728   3.236   6.055   0.606 -0.3693  0.1408  0.5273
10315W        W23729  10.034  16.311  13.215  0.2790 -0.0258 -0.0126
10316W        W23730  14.496  17.748  15.471 -0.2140  0.2825 -0.2815
10317W        W23731   3.619  13.222   4.131  0.5144  0.2043 -0.0661
10318W        W23732   4.701   9.873  15.272 -0.1645  0.2226 -0.2258
10319W        W23733   4.107  11.010   4.587 -0.1650 -0.0679  0.1295
10320W        W23734  15.429  16.979  13.521 -0.0840  0.0660 -0.0061
10321W        W23735   3.035  10.893  10.973 -0.1166 -0.1107  0.0826
10322W        W23736  17.619  13.445  12.901 -0.0306  0.0476  0.0464
10323W        W23737  13.645   6.731  14.945  0.1887  0.1129 -0.0929
10324W        W23738  14.640   5.367  14.124  0.1426  0.1376  0.1831
10325W        W23739  13.144   0.723   1.985 -0.2526  0.1256 -0.2387
10326W        W23740  12.876  13.771   1.936  0.1560 -0.0655 -0.0034
10327W        W23741  10.134   4.631  13.471 -0.1230 -0.0916 -0.4330
10328W        W23742  11.305   2.436  13.602  0.1628  0.2045  0.0963
10329W        W23743  12.647  14.373  14.963 -0.0441 -0.1440  0.0597
10330W        W23744   7.625   4.201   5.250 -0.0307  0.0200  0.4455
10331W        W23745  13.841   4.229  13.978  0.4283  0.5115  0.0016
10332W        W23746   7.294  14.556   4.602  0.0670  0.1916 -0.0528
10333W        W23747  10.861  10.808   4.094  0.1396 -0.3247 -0.0921
10334W        W23748  16.447   3.479   4.483 -0.0003  0.0680 -0.1137
10335W        W23749  15.628   5.691   1.971 -0.2233 -0.4134 -0.0350
10336W        W23750  16.842  17.548  13.856  0.1354 -0.2275 -0.0977
10337W        W23751   6.006   9.317   1.005  0.1086 -0.3455 -0.0438
10338W        W23752   0.126   3.327   5.923  0.0473 -0.0574 -0.1667
10339W        W23753   4.946  10.788  14.766  0.1313 -0.3432 -0.2626
10340W        W23754   0.687   1.558  13.617 -0.0216 -0.2232 -0.3188
10341W        W23755  12.618  12.308  15.380 -0.1828  0.0588 -0.2081
10342W        W23756   0.698  10.079  15.070  0.3243 -0.1508 -0.3430
10343W        W23757  17.305   1.565  14.210  0.1417 -0.0296 -0.2032
10344W        W23758  17.159   4.683   0.193 -0.2953 -0.2520  0.1149
10345W        W23759   5.683  16.808   3.901 -0.3955 -0.0923  0.0074
10346W        W23760   8.279  14.988   0.042  0.0247  0.2273 -0.1092
10347W        W23761   8.541   0.183  13.180 -0.1470  0.2746 -0.1242
10348W        W23762   2.562   1.319  13.453 -0.0111  0.1146 -0.2930
10349W        W23763   5.230  16.012   4.594  0.1142 -0.0560 -0.0376
10350W        W23764   7.791  15.828  12.548  0.2103  0.2056  0.1549
10351W        W23765  14.487   6.435  11.278  0.2177  0.3013  0.3065
10352W        W23766  10.277  10.928  12.574  0.0591 -0.1094  0.0469
10353W        W23767   8.602   3.013   3.566 -0.0353  0.1160 -0.2826
10354W        W23768   4.483  10.534  14.736 -0.0017 -0.1863 -0.1386
10355W        W23769  11.737   9.837   3.259 -0.0921  0.0064  0.1980
10356W        W23770   6.248   2.371  10.360  0.1658  0.7202  0.3865
10357W        W23771   0.565   7.890   2.361  0.3573  0.0701 -0.0990
10358W        W23772  14.036  17.587   3.698  0.2533 -0.1344  0.3329
10359W        W23773   3.299  11.318   3.530 -0.0786 -0.0820  0.1587
10360W        W23774  16.279  16.121   5.140  0.3637  0.2001 -0.3410
10361W        W23775  11.719   4.339   3.886  0.0844  0.0094  0.1894
10362W        W23776   0.492   2.284   2.533  0.0122  0.1311 -0.2721
10363W        W23777  17.527   6.210  14.566 -0.2821 -0.2029  0.1009
10364W        W23778   7.560   2.240  14.999  0.0360  0.0760  0.0918
10365W        W23779   1.879  13.404   3.018 -0.4284  0.0193  0.0410
10366W        W23780   9.362   3.024   0.758 -0.0520  0.0591  0.0499
10367W        W23781   4.177  14.688   5.534  0.0037  0.0448  0.2820
10368W        W23782   2.978  16.068   2.294 -0.0806  0.1729  0.1624
10369W        W23783   6.734  14.652   0.107  0.0170 -0.0058  0.0777
10370W        W23784  14.188  10.925   0.319  0.1165 -0.0527 -0.4000
10371W        W23785  14.059  14.466  12.632 -0.0742  0.1247  0.0763
10372W        W23786   1.528   4.122  11.396 -0.0449 -0.2373  0.0067
10373W        W23787   0.331   1.810  11.482 -0.0857 -0.1031  0.1769
10374W        W23788   9.818   6.754  14.228 -0.2253 -0.1147 -0.0303
10375W        W23789   8.537  10.077   0.681 -0.1020 -0.0081 -0.0893
10376W        W23790  13.940  14.106   0.826 -0.1010 -0.0826  0.1496
10377W        W23791   9.258   7.293  15.189 -0.0330 -0.0523 -0.1881
10378W        W23792   8.000  13.114   5.771  0.4192 -0.2095  0.1839
10379W        W23793   0.926   1.149  13.955  0.3526 -0.0360  0.1812
10380W        W23794  11.472  15.233  14.310 -0.2417  0.3271 -0.1199
10381W        W23795  17.478  14.146  15.666 -0.0464 -0.1426  0.0269
10382W        W23796  15.233   6.954  14.747 -0.1445 -0.0559 -0.1942
10383W        W23797   9.896  12.726  12.470 -0.1491 -0.1773 -0.1112
10384W        W23798  15.756   8.086  11.250 -0.1856 -0.3417  0.0086
10385W        W23799  12.397  10.883   4.692  0.4017  0.2840 -0.2476
10386W        W23800  10.798  17.451  15.768  0.0227 -0.1458  0.0204
10387W        W23801   8.534  15.461   3.426 -0.0137 -0.1034 -0.0456
10388W        W23802   3.485   9.510   1.583 -0.1533 -0.0380  0.3958
10389W        W23803   8.211   8.855  15.753  0.1836 -0.1714  0.2110
10390W        W23804  14.128  10.175   2.779 -0.0282  0.2371 -0.1851
10391W        W23805  17.258  10.305  13.627  0.0929  0.1794  0.0301
10392W        W23806  14.354  15.024  10.794  0.1646 -0.2504 -0.2834
10393W        W23807   6.740   7.223  15.480 -0.0641 -0.4864 -0.1377
10394W        W23808  11.366   5.452  13.022  0.1814  0.0023 -0.1643
10395W        W23809  13.212   4.803   1.518 -0.0623  0.1793  0.0992
10396W        W23810   1.305   1.776   3.404 -0.0701 -0.0481 -0.0680
10397W        W23811   3.434   7.109  14.002 -0.2423 -0.0331 -0.2150
10398W        W23812  10.295  15.303  14.979  0.1745 -0.2315 -0.0207
10399W        W23813  17.777   1.791  11.997 -0.0220 -0.3481 -0.1880
10400W        W23814   9.853  12.184   3.487  0.0767  0.0204  0.1797
10401W        W23815  11.371  13.623   5.234 -0.0901 -0.2272  0.0599
10402W        W23816  15.560  16.602  14.550 -0.3099 -0.0371  0.0251
10403W        W23817   3.117  17.503  13.527  0.1905  0.4099  0.0765
10404W        W23818  16.174   5.884   5.663 -0.1172  0.1424 -0.2969
10405W        W23819   6.001   2.697   1.976 -0.2210  0.0578 -0.2351
10406W        W23820   6.026   4.791  12.289 -0.2506  0.0307 -0.2578
10407W        W23821   1.911   5.223  10.809 -0.2216 -0.1056 -0.4012
10408W        W23822   4.551   8.630  12.952  0.1446  0.1959  0.0834
10409W        W23823   6.473   1.104  13.093  0.0430  0.2323 -0.1670
10410W        W23824  11.085  11.127  12.179 -0.0284 -0.1846  0.0572
10411W        W23825   9.552   8.426   6.760 -0.1044 -0.1464  0.1259
10412W        W23826  16.873  10.735   1.843  0.1848 -0.2073  0.0668
10413W        W23827  10.053   5.544  13.394  0.1666 -0.1378 -0.0064
10414W        W23828   7.039  17.073  15.165 -0.0498 -0.0155 -0.0805
10415W        W23829   9.325   3.571   2.546 -0.0120  0.0242  0.2671
10416W        W23830  17.126  13.798   2.196  0.2853  0.0808  0.0157
10417W        W23831   0.084  11.783  12.295  0.1748  0.1936 -0.2052
10418W        W23832   4.108   3.226   2.952  0.1482  0.3972 -0.1700
10419W        W23833   3.101   9.893  13.528 -0.0809  0.0811  0.1621
10420W        W23834  12.713  10.209   5.097 -0.2359  0.1264  0.2443
10421W        W23835  12.272   3.910  11.388  0.1664 -0.0283 -0.1047
10422W        W23836   5.088  13.959  11.213 -0.3026  0.0462 -0.3358
10423W        W23837   1.291   1.927   3.925  0.1265 -0.0659 -0.1037
10424W        W23838   9.570  17.065   3.316 -0.1734  0.0416  0.0579
10425W        W23839   3.108   2.285  13.969 -0.1408 -0.2243  0.0047
10426W        W23840  16.617  16.918   5.145 -0.1042 -0.0317 -0.1403
10427W        W23841   4.162  14.950   3.605 -0.2146  0.0353  0.0488
10428W        W23842   0.067  18.035   2.450 -0.0851  0.1052 -0.1235
10429W        W23843  10.833   2.295  14.490 -0.0587  0.1253 -0.2140
10430W        W23844  15.464   6.911   5.522  0.2710  0.2785 -0.2246
10431W        W23845   0.811   5.643   5.582  0.1413 -0.1113 -0.1474
10432W        W23846   8.123   7.601  12.998  0.2501 -0.0498  0.2584
10433W        W23847   7.657   9.363  16.363 -0.2514 -0.2575 -0.0476
10434W        W23848  17.282   0.660  14.152 -0.2599  0.2303 -0.3196
10435W        W23849  13.682   9.462  15.450  0.0284  0.0681  0.2762
10436W        W23850  14.958  15.415  14.311 -0.1892  0.0140  0.1674
10437W        W23851  10.974   2.140   1.056 -0.1900  0.4347  0.1103
10438W        W23852  15.283   7.187   1.576 -0.0844 -0.2073  0.2118
10439W        W23853   5.283   8.001  15.003  0.2073  0.4699  0.2843
10440W        W23854   2.197   2.606   3.046 -0.0682 -0.1754  0.1457
10441W        W23855   0.364   1.531   1.001 -0.3557 -0.0796  0.0631
10442W        W23856  15.467   5.334   2.832 -0.3024  0.1524  0.2234
10443W        W23857  15.435  15.131   2.708 -0.0351  0.0952 -0.0914
10444W        W23858   1.572  12.785   0.930 -0.0438 -0.4794  0.3000
10445W        W23859  14.659   4.675   2.996  0.2436 -0.0983  0.0286
10446W        W23860   8.527  15.567  13.931  0.0967  0.1784  0.0873
10447W        W23861  16.284  13.558  11.341 -0.1484  0.2748 -0.0293
10448W        W23862  10.264   7.095  13.478  0.1094 -0.1933 -0.0214
10449W        W23863   2.173   9.708  13.438  0.0186  0.1785  0.0940
10450W        W23864   7.148  12.783   4.709 -0.0882  0.0328 -0.1701
10451W        W23865   5.719  17.858  14.671 -0.2415 -0.1767 -0.1908
10452W        W23866   2.815   6.937  16.382  0.1936 -0.2462 -0.0611
10453W        W23867  13.682  12.394  15.087  0.1353 -0.1554  0.0746
10454W        W23868   4.396  16.789  11.450  0.2119 -0.1818  0.3783
10455W        W23869  17.515  18.115  12.059 -0.1317  0.1122 -0.1081
10456W        W23870   6.155  12.394  14.821  0.0386  0.0216  0.0609
10457W        W23871  17.775  15.566   2.235  0.2391  0.1709  0.1046
10458W        W23872  16.288  15.424  12.590  0.0905 -0.3040  0.0543
10459W        W23873  10.994   3.474  15.713 -0.0243 -0.2183  0.1373
10460W        W23874   9.702   5.168   0.387 -0.0664 -0.0779 -0.1434
10461W        W23875   9.968   3.469   1.488  0.0434 -0.0196 -0.2607
10462W        W23876  16.884  12.559   3.630 -0.1283  0.0377  0.2309
10463W        W23877  16.185  14.327   6.229 -0.1627 -0.1105 -0.3608
10464W        W23878   6.582   2.922  13.917 -0.2208  0.0073 -0.2037
10465W        W23879   9.226   5.210   1.321 -0.1530 -0.1125  0.2951
10466W        W23880  10.433  14.534   1.765 -0.1780 -0.2229 -0.2142
10467W        W23881   5.405   0.166  11.510  0.1161  0.2657  0.2685
10468W        W23882   9.515  15.709  14.038  0.1146  0.0224  0.2889
10469W        W23883  11.927   2.913   5.546 -0.0211 -0.0694 -0.1072
10470W        W23884   9.473   6.167   2.597 -0.0461 -0.1373 -0.1221
10471W        W23885   0.777   3.528   1.947  0.1929  0.1466 -0.2910
10472W        W23886  16.727   6.909  15.191  0.0416 -0.0496  0.0438
10473W        W23887   2.227   8.509  13.754  0.1600  0.0025  0.4591
10474W        W23888  16.758   9.154   3.475 -0.4634 -0.0022  0.4055
10475W        W23889  10.444   6.085   2.642  0.0633  0.1860 -0.0671
10476W        W23890  10.734  15.247   5.109 -0.1018  0.0831 -0.0470
10477W        W23891   3.372  12.363   0.353 -0.1156 -0.4314  0.0083
10478W        W23892   1.113   8.746  12.850 -0.0733  0.5108  0.2474
10479W        W23893   8.679  15.075   3.254 -0.0946  0.0222 -0.1577
10480W        W23894   1.012  10.926  13.183 -0.0838  0.0656  0.1693
10481W        W23895   5.281  17.358   1.039 -0.1809 -0.1989 -0.2398
10482W        W23896   1.124   3.663   1.136  0.1746 -0.2251 -0.0771
10483W        W23897   6.389  12.958  11.491  0.0225  0.1137 -0.0254
10484W        W23898   6.623  16.773  15.160 -0.2475 -0.3221 -0.1098
10485W        W23899   1.486  14.806  14.684  0.0125  0.1157 -0.1739
10486W        W23900   3.850   6.226   3.873  0.0201 -0.0765 -0.0475
10487W        W23901   7.013   0.397  12.402  0.0676 -0.2189  0.2830
10488W        W23902   7.036   7.631  12.095 -0.0422  0.0449 -0.2906
10489W        W23903   2.216   8.266  13.167 -0.0816 -0.2776  0.1917
10490W        W23904  11.256   1.000  13.783 -0.0647  0.2444  0.0422
10491W        W23905   2.163  15.220  10.459 -0.3113 -0.0651  0.0753
10492W        W23906   2.151   7.703  12.792 -0.2133  0.0506  0.0563
10493W        W23907  17.050   7.982  16.252 -0.1861  0.1077 -0.0259
10494W        W23908  10.385   2.871  15.259  0.3538 -0.2122  0.0574
10495W        W23909   2.023   4.201  12.311 -0.2881  0.2025 -0.1745
10496W        W23910   7.661   7.403   3.269 -0.1403  0.0956 -0.1453
10497W        W23911  14.916   9.196  14.171 -0.0573  0.0036 -0.1678
10498W        W23912   8.491   1.581  15.761 -0.2003  0.0621 -0.2308
10499W        W23913   0.805   2.551   2.238 -0.1484 -0.3234 -0.0618
10500W        W23914  12.796  15.177  12.999 -0.0629 -0.0606  0.0280
10501W        W23915   0.898  13.264   1.230  0.1116  0.0769 -0.0100
10502W        W23916   5.055   7.884  11.215 -0.2424 -0.2536  0.2773
10503W        W23917  17.185  12.743   1.722  0.0582 -0.1172  0.1418
10504W        W23918   1.630   5.131  14.118  0.2677 -0.2258 -0.1099
10505W        W23919  10.326  15.070  15.439 -0.0145  0.1951 -0.1925
10506W        W23920  12.000   2.204  10.182 -0.3192  0.1236  0.0199
10507W        W23921   4.354  16.370  14.086 -0.0042 -0.1843  0.0461
10508W        W23922  13.747  14.787  13.558  0.3110 -0.1630 -0.1080
10509W        W23923   6.174  10.384  16.128  0.0353  0.3562  0.0985
10510W        W23924   9.590  12.603  13.943 -0.0847 -0.0967 -0.3235
10511W        W23925  17.116   0.931   1.825 -0.4241 -0.1729  0.0234
10512W        W23926   0.734   1.344   5.084 -0.0750  0.0458 -0.1012
10513W        W23927  11.603  16.021   0.791  0.2824  0.1463  0.0835
10514W        W23928   8.269  16.379   1.938  0.1566 -0.2178  0.4456
10515W        W23929   3.234   0.357   1.281 -0.1107  0.1080  0.2261
10516W        W23930  16.252   9.993   5.515  0.3135 -0.2956  0.0841
10517W        W23931  15.316   5.211  16.085  0.1994 -0.1277  0.0232
10518W        W23932  12.997   0.673  11.432 -0.1183 -0.0599  0.0056
10519W        W23933   4.813   3.308  15.617  0.3296 -0.3523 -0.1584
10520W        W23934  17.930  15.463  11.672 -0.3094  0.0533 -0.2200
10521W        W23935   0.148   7.644   2.727  0.2877 -0.2298  0.1072
10522W        W23936   0.102   8.052  14.353 -0.5014  0.1738  0.0387
10523W        W23937  12.693  12.596  12.363  0.2027 -0.2228 -0.3258
10524W        W23938   6.615   0.769   3.341  0.0554 -0.0489 -0.1197
10525W        W23939  11.300   4.549   0.303 -0.1317 -0.2211  0.0379
10526W        W23940  14.509   6.682  12.630  0.0159  0.0198 -0.0866
10527W        W23941  14.285  10.218   0.262  0.0650 -0.3340  0.1249
10528W        W23942   2.432  14.576  15.659 -0.1848 -0.3347  0.2994
10529W        W23943  17.560  15.316   5.805 -0.1551 -0.1003 -0.0542
10530W        W23944   6.468  12.976   0.219 -0.0139  0.0907  0.2113
10531W        W23945   8.542   0.132   3.082 -0.0260  0.2529  0.2181
10532W        W23946  17.790  11.424   3.955  0.0348  0.4304  0.1319
10533W        W23947   1.601  14.396  10.841  0.0151  0.0396 -0.2956
10534W        W23948  13.071   6.027   0.525 -0.1794  0.3940  0.2936
10535W        W23949   6.806   1.877  10.239 -0.0231 -0.1785  0.0080
10536W        W23950   5.500  15.176  12.055 -0.0237  0.0726  0.1460
10537W        W23951   8.637   3.292   5.410  0.2035 -0.1255  0.2521
10538W        W23952   8.637   8.072   3.966 -0.2375  0.0791  0.1812
10539W        W23953  16.689  14.832  13.434  0.0384  0.0969  0.0183
10540W        W23954   3.729   2.660   0.556  0.0761  0.1751  0.0186
10541W        W23955  16.423   1.355   5.370  0.1843  0.1119 -0.0650
10542W        W23956   3.220   7.333   1.911  0.0037  0.0502  0.3050
10543W        W23957  13.462   3.970  16.153  0.1660  0.1319  0.1302
10544W        W23958  13.718  13.919   1.572 -0.0476 -0.1844  0.2173
10545W        W23959   7.676   0.833   9.830  0.2256  0.0945 -0.0856
10546W        W23960   1.561   0.106  11.779  0.0303 -0.1079 -0.1774
10547W        W23961   3.641   4.551  15.356 -0.3439  0.2099  0.0749
10548W        W23962  13.812   6.071  16.105  0.4888  0.2160 -0.0985
10549W        W23963  10.682  16.624  15.723 -0.0175 -0.2765 -0.0059
10550W        W23964  16.758  10.479  11.387 -0.0326  0.1307  0.1635
10551W        W23965  14.125  15.984  12.020 -0.0159 -0.3782  0.3262
10552W        W23966   0.711   6.455   1.184 -0.0358 -0.1753 -0.0615
10553W        W23967   0.785  14.174  11.604  0.0084  0.2003 -0.0116
10554W        W23968   2.235  17.494   3.301  0.0868 -0.2773  0.0019
10555W        W23969   8.028   2.723  11.889  0.1271 -0.0013  0.0653
10556W        W23970  16.994  13.372  15.387 -0.2293  0.1065 -0.2166
10557W        W23971   1.975  14.197  11.136  0.0140 -0.2186 -0.2616
10558W        W23972   2.337   3.711   2.105 -0.0779  0.2122  0.2209
10559W        W23973   0.777   7.634   0.004  0.2033 -0.1615 -0.1081
10560W        W23974  12.434   0.809  12.556 -0.1407  0.1290  0.3163
10561W        W23975   5.897   7.253   0.518  0.2553 -0.1653  0.2650
10562W        W23976  14.855   6.149   5.369 -0.1930 -0.2063 -0.1864
10563W        W23977  10.735   9.598   5.638 -0.1207  0.1419 -0.1069
10564W        W23978   5.085  10.785   3.203  0.0264 -0.0917 -0.0541
10565W        W23979   3.814   2.218  14.473 -0.3673  0.0677  0.0156
10566W        W23980  14.172   0.499  12.870  0.3572 -0.2977  0.3626
10567W        W23981  10.014  10.316   0.146  0.1450  0.2446  0.0019
10568W        W23982   8.139  11.631  12.263 -0.2089  0.0639 -0.2818
10569W        W23983  16.897   5.452   5.772  0.1240 -0.2552  0.0769
10570W        W23984  16.072   2.247   2.561 -0.1809 -0.1512  0.1102
10571W        W23985  17.573   8.462  10.994  0.2246 -0.1729  0.2077
10572W        W23986   1.010  14.359   3.266 -0.0791 -0.0041  0.0313
10573W        W23987   2.927   8.260   4.367  0.0381  0.3482  0.0918
10574W        W23988   0.814  12.054  15.231  0.3398  0.0555  0.0884
10575W        W23989   2.186   0.700   3.479 -0.1962  0.1662  0.0779
10576W        W23990   1.113  10.738  16.378  0.2374 -0.1421  0.0546
10577W        W23991   3.878  13.714   2.922  0.2434 -0.0675 -0.1244
10578W        W23992   2.660   5.490  15.428 -0.1797  0.2006 -0.1795
10579W        W23993   1.233  13.824  14.503 -0.1922 -0.1189 -0.1690
10580W        W23994  12.698  13.812  12.593  0.1019  0.1573 -0.0146
10581W        W23995   4.923  10.417  15.997 -0.0756  0.2759 -0.1763
10582W        W23996   9.743   3.361  14.998 -0.1098 -0.1868  0.1227
10583W        W23997  11.409   5.956   2.454  0.1541  0.0951 -0.0320
10584W        W23998   4.105   7.064  10.800 -0.5344  0.3640 -0.0298
10585W        W23999  18.215   3.246   4.514 -0.1617 -0.1742  0.3724
10586W        W24000  10.738  11.411  11.393 -0.0811 -0.0387  0.1009
10587W        W24001  12.832  14.206  13.211 -0.0894  0.1765  0.1816
10588W        W24002  15.944  12.955  14.490  0.2700 -0.0765 -0.0392
10589W        W24003   1.450   5.904  16.264  0.1274 -0.2733 -0.3817
10590W        W24004   5.758   9.654   4.525 -0.3613 -0.2867 -0.2033
10591W        W24005   8.311   5.783  12.273 -0.2312  0.1030 -0.0046
10592W        W24006  12.633  14.367  10.404  0.0918 -0.1219  0.2787
10593W        W24007  16.481   2.082  11.908 -0.2314 -0.2838  0.0706
10594W        W24008   5.557   9.192   4.660 -0.2444  0.0541 -0.1423
10595W        W24009   3.652   4.029   4.919  0.2118  0.2636 -0.1806
10596W        W24010   6.804  15.059   0.414  0.0680 -0.2517 -0.1638
10597W        W24011   4.943  14.686   0.244  0.1395  0.0164 -0.2613
10598W        W24012   9.483   7.039  14.555 -0.1964  0.0522 -0.1445
10599W        W24013  10.316  17.107   1.251  0.0688  0.0982  0.3159
10600W        W24014   2.317   2.515   4.648 -0.1935 -0.3434  0.2697
10601W        W24015  18.125   9.144   3.016 -0.1282  0.1174  0.4381
10602W        W24016  13.242  15.367  15.657  0.1580  0.1054 -0.1681
10603W        W24017  13.916   4.859   4.948  0.0794  0.1944 -0.2489
10604W        W24018  12.302   7.469   1.610 -0.2278  0.2829 -0.0675
10605W        W24019   7.385   1.832  10.452 -0.2194 -0.2270 -0.2969
10606W        W24020   8.835   4.175  12.897  0.0790  0.1252  0.0227
10607W        W24021  15.426   1.562  14.066  0.1342 -0.0214  0.0790
10608W        W24022   3.881   2.187   4.887 -0.4644  0.0129  0.0107
10609W        W24023  10.054   3.679   2.430  0.0406 -0.3264 -0.1018
10610W        W24024  15.971   3.923   2.933  0.0430 -0.2649  0.2059
10611W        W24025   8.890   8.888  12.218 -0.0862 -0.1308  0.3113
10612W        W24026  11.689   0.098   2.160 -0.2814  0.3241 -0.0581
10613W        W24027   5.932   1.382  14.358 -0.0470 -0.0735 -0.2177
10614W        W24028   3.166   3.260   0.717 -0.1397  0.1947  0.1306
10615W        W24029   6.901   8.483  13.230 -0.0596 -0.1445 -0.0144
10616W        W24030  11.149  16.448   4.619 -0.2210 -0.0923 -0.1444
10617W        W24031   6.281  14.595  15.797 -0.2954 -0.0206 -0.1435
10618W        W24032   9.548  10.334  14.795 -0.2596 -0.3313 -0.0329
10619W        W24033   3.533  16.386  11.195  0.0583  0.1970  0.0943
10620W        W24034   1.202  17.007   4.473  0.4681  0.2101  0.0483
10621W        W24035   7.585   8.435  12.876  0.2502 -0.2359 -0.5435
10622W        W24036   3.604  10.919   3.117 -0.0077  0.3456  0.1790
10623W        W24037  10.070   0.425   3.096 -0.1831 -0.0589  0.3522
10624W        W24038   3.555  16.857  14.457 -0.0036  0.0358 -0.3371
10625W        W24039  12.154  11.408  15.712  0.1886  0.0961 -0.3818
10626W        W24040  11.399   3.824  15.902 -0.0227  0.0164  0.2569
10627W        W24041   4.510   5.637   0.144  0.0706  0.0726  0.3240
10628W        W24042  10.886   4.135   1.669  0.1461 -0.1503  0.2106
10629W        W24043  12.096   2.060  13.889 -0.4301  0.1306 -0.0729
10630W        W24044  17.239  11.489  11.584  0.1941  0.0985  0.0130
10631W        W24045  16.152   9.665   3.391  0.3057  0.2593  0.0983
10632W        W24046  10.065  14.564  10.282  0.1077  0.1176 -0.2106
10633W        W24047  18.075  11.327   0.216 -0.2732 -0.4004  0.1971
10634W        W24048   8.547   8.754   5.210  0.1670  0.0997  0.1955
10635W        W24049   1.515  14.727  14.087 -0.1336  0.2169  0.1282
10636W        W24050  16.220  17.640  14.601  0.2044  0.0261  0.0275
10637W        W24051   3.146  14.584   1.556 -0.1444 -0.1057 -0.2729
10638W        W24052   7.965   6.035  12.025  0.2371 -0.1059  0.1318
10639W        W24053  15.359  12.768  15.884 -0.0226  0.0608  0.1096
10640W        W24054  12.956   0.083   5.804  0.0912  0.1060  0.0462
10641W        W24055  17.898   4.185   4.840  0.0724 -0.2905 -0.1220
10642W        W24056  16.070  15.746   1.728  0.2591  0.1559  0.0091
10643W        W24057  17.043   2.630  14.989  0.0679  0.1660 -0.0180
10644W        W24058   2.430   0.105   5.515 -0.3011  0.0182 -0.2222
10645W        W24059   0.556   9.545   5.496 -0.0290  0.0033 -0.1103
10646W        W24060  11.331   6.116  13.833 -0.2543  0.1033 -0.1815
10647W        W24061   4.879   7.985   2.815  0.2547 -0.1313 -0.1734
10648W        W24062   3.313   0.583  12.162 -0.2600  0.1046  0.0243
10649W        W24063  16.853  11.509   3.801  0.3537  0.0201 -0.0781
10650W        W24064  10.901  14.814   1.955  0.1512 -0.1102 -0.2588
10651W        W24065  11.157   5.859  15.996  0.3435  0.0585 -0.1068
10652W        W24066  15.192  17.160  16.041  0.1860  0.2942 -0.0901
10653W        W24067  11.504  13.549   5.655 -0.2497  0.2378  0.2643
10654W        W24068   7.061   6.675  13.257 -0.0918  0.0479  0.0076
10655W        W24069   9.651   8.933  11.364 -0.0906 -0.2329 -0.0483
10656W        W24070  16.515   4.157   1.518  0.0320 -0.0926 -0.1274
10657W        W24071  17.584   5.052   5.621  0.0606  0.0878  0.1702
10658W        W24072   8.571   4.141   3.082 -0.1647  0.1362  0.0746
10659W        W24073  15.416  11.991  13.125 -0.2258 -0.1396 -0.2888
10660W        W24074   4.065  11.084  16.026 -0.1826 -0.1607 -0.0228
10661W        W24075   1.323   1.729   2.889 -0.1052 -0.0952 -0.0952
10662W        W24076  15.929   5.149  14.279 -0.0249  0.3049  0.0090
10663W        W24077  13.570   7.283  12.669  0.0759  0.0186 -0.2048
10664W        W24078   5.901   7.351  11.040 -0.0573  0.0657  0.0403
10665W        W24079  16.503   6.302  11.116 -0.0181 -0.2821  0.0177
10666W        W24080  16.444   5.158   0.633 -0.0515 -0.0906 -0.0391
10667W        W24081  12.306  13.562   0.175 -0.0993  0.0209 -0.1640
10668W        W24082   9.098  15.031  10.859 -0.1081  0.0672  0.2675
10669W        W24083   8.335   1.965   4.040 -0.1277  0.0119  0.0584
10670W        W24084  16.009  16.303  14.412 -0.0816  0.0922 -0.3417
10671W        W24085   6.473  16.957  16.375 -0.1930 -0.2945 -0.1591
10672W        W24086  15.852  16.137   2.779 -0.0545 -0.0398  0.1385
10673W        W24087  10.065  11.790   5.105 -0.0724  0.0191  0.3317
10674W        W24088   4.733   8.827  11.483  0.0497 -0.4212  0.2313
10675W        W24089   8.385   7.269   3.846 -0.0264 -0.2335  0.3606
10676W        W24090  16.753   3.642  12.250  0.1940 -0.0516 -0.1346
10677W        W24091   9.000  13.682  15.659 -0.1968  0.0611 -0.0585
10678W        W24092  10.222  16.359  10.796 -0.0583 -0.2739 -0.1168
10679W        W24093   5.239   5.788  11.366  0.2442 -0.1171  0.0017
10680W        W24094   7.481   3.950  12.656 -0.0847  0.0969 -0.0247
10681W        W24095  12.495   7.675  13.368 -0.1709  0.1594 -0.2098
10682W        W24096  15.991  15.129  10.158 -0.0257 -0.0378 -0.1340
10683W        W24097   2.390   7.606  11.925  0.2606 -0.0476 -0.0828
10684W        W24098  13.189   0.895  14.359  0.2557  0.1382 -0.1768
10685W        W24099   4.489   1.136   0.347 -0.1583  0.1254 -0.2389
10686W        W24100   6.212   9.072  12.330 -0.3437 -0.1223 -0.0703
10687W        W24101   3.154  14.890   5.664 -0.1533  0.1795 -0.0866
10688W        W24102   1.705   1.823  15.347  0.2141  0.2091 -0.1583
10689W        W24103  14.700   9.567  12.940  0.0500 -0.2951  0.0648
10690W        W24104  11.602  12.847  11.648 -0.2956  0.1759  0.0929
10691W        W24105   9.652   2.234  12.309  0.0680 -0.0554 -0.0344
10692W        W24106  16.548   0.184   4.673  0.1013 -0.0365 -0.0335
10693W        W24107  15.152   9.375  15.456 -0.1705 -0.1357  0.1770
10694W        W24108   1.440   0.583  14.935 -0.0448 -0.3505 -0.0028
10695W        W24109  16.506   6.735   5.307 -0.2447  0.0053 -0.1460
10696W        W24110  11.867   5.551   5.053  0.0002  0.0714  0.1019
10697W        W24111   8.814   7.541   3.163 -0.0635  0.1582 -0.1068
10698W        W24112  16.971  16.350  12.782  0.0562  0.4300  0.1513
10699W        W24113  12.582   2.912  12.671 -0.0208  0.2437  0.0985
10700W        W24114  17.377   3.141   3.488  0.2778  0.0928 -0.3198
10701W        W24115  12.305  13.061  10.761  0.0912  0.1606  0.3618
10702W        W24116   5.059   8.187   0.701 -0.1312  0.0368 -0.3124
10703W        W24117   2.725   4.423   6.815  0.0261 -0.0441 -0.2292
10704W        W24118   8.839   0.268   3.658 -0.0166 -0.1283  0.1778
10705W        W24119   4.492   9.046   3.731 -0.0501  0.1012  0.4005
10706W        W24120   7.405  13.537   4.150  0.0102  0.0086  0.2801
10707W        W24121   5.253  15.462   4.795 -0.1617  0.0151  0.0291
10708W        W24122   9.023  10.074  10.292 -0.3010 -0.1713 -0.0333
10709W        W24123  15.396  15.777  12.116 -0.2057 -0.1345 -0.0436
10710W        W24124   6.072   5.590  11.558 -0.2287 -0.1782 -0.0516
10711W        W24125  14.992  11.740  12.240  0.0160 -0.0620 -0.0471
10712W        W24126   1.637  18.148   3.728 -0.4180  0.1833  0.2164
10713W        W24127   7.117  15.194  15.619 -0.0808 -0.2666 -0.1136
10714W        W24128  10.215   4.473  12.515  0.2903  0.2176 -0.1343
10715W        W24129   2.794  11.572  12.544  0.0554  0.1993 -0.4164
10716W        W24130   5.610   9.024   3.781 -0.0263 -0.2378  0.2135
10717W        W24131  12.897   4.987  10.718  0.2035 -0.0441 -0.0746
10718W        W24132  14.256  10.264   2.174 -0.1363  0.0802 -0.1119
10719W        W24133  15.408   8.878   3.096 -0.1099  0.0651 -0.0544
10720W        W24134   1.318   8.282  13.573 -0.3270  0.0133 -0.6162
10721W        W24135   3.209  14.543  11.723  0.0478 -0.1873 -0.0688
10722W        W24136   8.972  10.382  15.894  0.1204  0.1526  0.0720
10723W        W24137   9.843  11.686   3.609  0.0382  0.2624  0.0988
10724W        W24138   5.721   4.274   3.221 -0.0404  0.0382 -0.1271
10725W        W24139  13.639   7.079   0.232 -0.2204  0.1113  0.2237
10726W        W24140   7.276   9.033  16.279 -0.0544 -0.0715  0.2699
10727W        W24141  11.175   9.235  16.036  0.1422 -0.0412 -0.1026
10728W        W24142   2.301   7.318   4.416  0.1154  0.1829  0.1217
10729W        W24143   8.751   6.350  10.781  0.0315 -0.0906 -0.1304
10730W        W24144   8.889  14.116  16.136 -0.1435  0.0296 -0.2642
10731W        W24145   6.887   0.807   2.868  0.1882  0.1318  0.1582
10732W        W24146   6.344   9.824   0.739  0.0540 -0.0292  0.1618
10733W        W24147  16.443   7.502  12.112  0.0517 -0.0039  0.3589
10734W        W24148   1.638   1.024   0.533 -0.2082  0.1011  0.3925
10735W        W24149   0.341  12.990  12.331 -0.1201  0.1763  0.0654
10736W        W24150   3.128  13.537  11.870  0.2035  0.1490 -0.1903
10737W        W24151   2.774  14.480   0.039 -0.4649 -0.0401  0.2148
10738W        W24152  11.893  13.682  12.825  0.1657 -0.2774 -0.0051
10739W        W24153  11.034  10.144   2.927 -0.0037  0.1580  0.3503
10740W        W24154   4.916  14.722   4.530 -0.2728 -0.0211 -0.3535
10741W        W24155   1.309   1.168   5.343  0.0807  0.0628  0.3861
10742W        W24156  16.896  11.994   4.895 -0.0173 -0.4240 -0.0789
10743W        W24157   8.558   9.121  14.069  0.0149 -0.2031  0.2414
10744W        W24158   2.903  11.726  10.819 -0.0403 -0.1391 -0.1310
10745W        W24159   2.067   2.806  14.295 -0.0249  0.4250  0.1057
10746W        W24160   3.301   1.042   1.924  0.0465  0.0404  0.2091
10747W        W24161  13.358  11.213  12.721  0.0602 -0.3479 -0.0090
10748W        W24162  12.399   8.025  15.539  0.0410  0.1199 -0.0278
10749W        W24163   7.335   7.869   2.006 -0.3164 -0.0626  0.1807
10750W        W24164   1.140  15.772   4.864  0.0512  0.1263  0.1929
10751W        W24165   2.758  16.154   0.236  0.1078  0.1336 -0.0097
10752W        W24166   7.534   9.853   3.497 -0.1370 -0.2235 -0.1840
10753W        W24167  14.702  14.692  14.371  0.3033  0.0087  0.0008
10754W        W24168  16.244   8.128   2.854 -0.1085  0.0923  0.0059
10755W        W24169  12.234  16.241  16.496 -0.0914 -0.1275  0.2603
10756W        W24170  14.365   9.439   0.088  0.0152  0.1145 -0.1929
10757W        W24171  13.855   9.872  10.360  0.2449 -0.2318 -0.1894
10758W        W24172   7.418  14.211   5.575 -0.0078 -0.1947  0.0959
10759W        W24173  12.860  14.092  15.433  0.0165  0.1056  0.0273
10760W        W24174  15.007   2.489   5.392  0.0409 -0.0107  0.1530
10761W        W24175   1.958  16.950   5.664 -0.1080 -0.1382 -0.0607
10762W        W24176  12.617   9.317   6.069  0.0148  0.0557  0.0887
10763W        W24177   0.133  14.202   0.255  0.0699  0.0578  0.2456
10764W        W24178  17.450  14.393  13.629  0.0067 -0.0107 -0.0682
10765W        W24179   9.555  12.344  14.451 -0.1905  0.0323 -0.1876
10766W        W24180   0.333   9.107   2.545  0.0648  0.2023 -0.1763
10767W        W24181   3.790  14.756   4.455  0.2209  0.0344  0.4709
10768W        W24182   6.959   9.341   1.954  0.1239 -0.0363  0.2340
10769W        W24183  18.146   6.431  11.012  0.1408 -0.1549 -0.0239
10770W        W24184  16.303   8.643   1.487 -0.4660 -0.0554 -0.1968
10771W        W24185   2.705  14.551   0.590  0.0583 -0.0983 -0.0869
10772W        W24186  18.107  13.239  12.597  0.2520  0.1281  0.0172
10773W        W24187  17.663   2.151  16.190 -0.1987 -0.0776 -0.0530
10774W        W24188   9.097  17.961   3.521  0.1174 -0.1010 -0.0039
10775W        W24189  12.518   9.065  14.472  0.0156  0.2568  0.0362
10776W        W24190  10.045   7.071  11.235  0.0167 -0.0251 -0.1634
10777W        W24191  12.489   0.015   9.747 -0.1495 -0.0981  0.0730
10778W        W24192   4.140   3.521   0.802 -0.1700  0.0200  0.1402
10779W        W24193   7.413   9.372   2.253 -0.1696  0.1058  0.0356
10780W        W24194  10.526   2.463   4.194  0.0236  0.2018 -0.3145
10781W        W24195   2.275  17.212  16.141  0.0566 -0.0428  0.1433
10782W        W24196  14.352  16.722   2.682 -0.2592  0.0819  0.0249
10783W        W24197   9.827   6.120   3.448 -0.0209  0.0526 -0.0649
10784W        W24198  17.827   8.398  14.067  0.0094 -0.0955 -0.0160
10785W        W24199   2.081  16.532   4.471  0.0307  0.1670  0.1180
10786W        W24200  16.322  10.090   0.960  0.3810 -0.1552  0.1385
10787W        W24201   8.448   1.026  10.029  0.0582 -0.0519 -0.3846
10788W        W24202  14.599   7.786   0.885  0.1371 -0.0110 -0.1634
10789W        W24203  16.617   7.261   4.378  0.1465 -0.1935 -0.1601
10790W        W24204   9.082  11.184   0.772  0.0766  0.2309  0.1864
10791W        W24205   1.947   6.296   3.076 -0.1063  0.0974 -0.0013
10792W        W24206   1.542  17.965   4.305  0.0233  0.1554  0.1477
10793W        W24207  11.273   2.355  11.807 -0.1527  0.1546  0.2793
10794W        W24208  13.559   2.330   2.250 -0.0223  0.1620  0.3046
10795W        W24209   0.166   5.464   4.955  0.1072  0.1071  0.0806
10796W        W24210  10.465  17.015   5.012  0.3688 -0.3005 -0.0859
10797W        W24211   3.783   2.510   2.270  0.3329  0.1854  0.0450
10798W        W24212   0.459   3.138   3.723  0.0270  0.0282  0.3606
10799W        W24213   3.455  13.442  13.043 -0.0104  0.3850  0.2246
10800W        W24214  12.868  10.928   4.633  0.0727  0.2141  0.0800
10801W        W24215  14.114  12.118  12.406  0.3390  0.1638 -0.1911
10802W        W24216   4.199  11.012  12.358  0.0548 -0.2967 -0.1092
10803W        W24217   4.711  11.704  15.603  0.2125 -0.1839 -0.3573
10804W        W24218  16.784   3.765  11.715  0.1017  0.3548  0.1903
10805W        W24219  11.988   8.138   0.164  0.1138 -0.3113  0.2195
10806W        W24220  16.657  18.035  15.963 -0.1230 -0.1753  0.1009
10807W        W24221  15.489  17.736   2.706  0.1697 -0.0744  0.1108
10808W        W24222  15.739   5.221  13.764  0.2646  0.0896  0.1624
10809W        W24223   6.909   1.973   9.697  0.0739  0.0317  0.0264
10810W        W24224   5.379   8.122  13.067  0.0173 -0.1238  0.1289
10811W        W24225   5.109   6.464   4.020 -0.0324 -0.1279  0.2492
10812W        W24226   8.962   3.882  15.605 -0.1736  0.0277  0.1093
10813W        W24227   8.542  17.238  10.021 -0.0919  0.2214  0.1542
10814W        W24228   1.514   6.123  13.156 -0.2197  0.1406 -0.0284
10815W        W24229  13.273   7.371  14.835  0.3176 -0.0887 -0.0845
10816W        W24230   7.435  11.573   2.354 -0.0082  0.3986 -0.0295
10817W        W24231   9.362  11.565   0.978 -0.0349  0.2846  0.1502
10818W        W24232   2.392  10.598   0.514  0.1692 -0.0124  0.1968
10819W        W24233   9.909   7.083  15.435 -0.0931  0.0881  0.1445
10820W        W24234  17.624  13.416   5.980  0.3217 -0.1921 -0.1036
10821W        W24235   7.811  13.346   4.358  0.1467 -0.0701 -0.2377
10822W        W24236   6.761   6.302   4.761 -0.0548  0.0091 -0.0880
10823W        W24237   3.878   2.158  15.526  0.1163  0.1764 -0.0432
10824W        W24238  14.947   0.115  10.596  0.0132  0.4085 -0.1703
10825W        W24239  17.058  16.651   1.427  0.0716  0.0167  0.0632
10826W        W24240   7.188   5.000  11.385 -0.1432 -0.0547 -0.0674
10827W        W24241   1.754   5.044   2.718 -0.1095 -0.0488  0.0686
10828W        W24242  13.454  10.094   4.451  0.0763  0.1737  0.0017
10829W        W24243   0.432   5.954  15.312  0.0769 -0.1173  0.3694
10830W        W24244   2.757   6.374   4.455  0.0987 -0.0269  0.0018
10831W        W24245  11.143  16.962  11.346 -0.3284  0.1392  0.3527
10832W        W24246   6.884   4.756  15.967  0.2508  0.1343 -0.1318
10833W        W24247   7.623   2.184   1.417 -0.1897  0.1068 -0.0415
10834W        W24248  10.488  18.104  11.435 -0.0112 -0.0215 -0.0197
10835W        W24249   1.262  11.554   5.889  0.1655  0.1893 -0.0924
10836W        W24250  12.749   0.536   3.437 -0.1547  0.1422  0.2861
10837W        W24251   5.481   6.214   4.186  0.0816 -0.3501  0.0954
10838W        W24252   7.762  15.616  13.314  0.1654 -0.0423  0.1919
10839W        W24253  10.276   9.361   2.420 -0.0554  0.0232  0.0999
10840W        W24254   9.271   5.549   3.935 -0.1225  0.0806 -0.0583
10841W        W24255  10.625  13.897  15.409 -0.1060  0.2874 -0.0924
10842W        W24256  18.061  16.768  12.240 -0.1108  0.3064  0.2037
10843W        W24257  15.949   0.667  14.023  0.1440  0.0746  0.0218
10844W        W24258   6.954  16.693   1.142  0.0079  0.0702  0.1433
10845W        W24259   6.349  10.782   6.261  0.0765 -0.1286  0.2236
10846W        W24260  17.090  12.318   1.501  0.1716 -0.2271 -0.1133
10847W        W24261   1.400   1.450  15.998 -0.2052  0.0018 -0.2524
10848W        W24262   4.376   9.817   0.457 -0.3322  0.0502 -0.1231
10849W        W24263   0.222   7.624   5.807  0.0942 -0.1795  0.1999
10850W        W24264  14.384   0.411   2.659 -0.1253  0.1868 -0.2606
10851W        W24265  12.794   1.274  15.184 -0.0559  0.0793  0.0592
10852W        W24266  10.585   4.559   1.726 -0.0711 -0.2930  0.3305
10853W        W24267   9.809   9.934  12.305 -0.1029 -0.0566  0.1279
10854W        W24268  17.643   5.507   4.705 -0.0215  0.2910  0.0856
10855W        W24269   3.158  12.844   1.107  0.4853  0.1857  0.1070
10856W        W24270   2.205   7.257  14.735 -0.2462  0.1365  0.2120
10857W        W24271   9.354   7.568  13.365 -0.0008 -0.2339 -0.0305
10858W        W24272  11.835  16.873  13.077 -0.1822 -0.0815  0.2244
10859W        W24273  10.020   4.642   4.385  0.3150  0.3479  0.0990
10860W        W24274   2.082   1.625   4.537  0.1577 -0.0167  0.0844
10861W        W24275   9.877  11.815  10.842  0.2478 -0.0858 -0.1145
10862W        W24276  16.029   9.725   5.177 -0.4394  0.0057 -0.2029
10863W        W24277   6.172  13.844  14.215  0.0582 -0.0867  0.1227
10864W        W24278  17.245  15.425  14.668  0.2234  0.4173  0.0418
10865W        W24279   9.209  15.537  10.710  0.2191  0.0702  0.3163
10866W        W24280   4.865  14.236   1.105 -0.0173 -0.2131  0.0370
10867W        W24281  13.628   1.935  11.670  0.1307 -0.3255 -0.1667
10868W        W24282   6.754  11.259   0.589 -0.1980  0.1828  0.0738
10869W        W24283   4.931  13.758  15.627 -0.0879 -0.0513  0.4069
10870W        W24284  16.736   6.834  13.797  0.1763 -0.2202 -0.0251
10871W        W24285   4.340   3.437   2.244  0.1475 -0.0082 -0.1226
10872W        W24286  14.637  18.179  13.898  0.2266  0.0867 -0.3542
10873W        W24287   1.375   0.128   0.093  0.1345 -0.0422 -0.2524
10874W        W24288  16.394   3.179   1.644 -0.1410  0.1749  0.1079
10875W        W24289  18.098   2.360  12.855 -0.1180  0.3628 -0.2753
10876W        W24290  17.052   3.617   4.762 -0.0791  0.0065  0.0821
10877W        W24291   3.716   8.127  13.088  0.0182  0.3383 -0.5292
10878W        W24292  14.472   7.628   3.337  0.1612 -0.0922  0.2756
10879W        W24293   9.632   1.740   5.192  0.0130 -0.0717 -0.2900
10880W        W24294  10.626  12.319   4.013 -0.0028 -0.0497  0.1882
10881W        W24295   9.533   8.606   0.380 -0.0326 -0.1011 -0.0719
10882W        W24296  11.272   1.897  13.469 -0.1406  0.1391  0.2544
10883W        W24297   5.620   7.286  12.960 -0.1713  0.0675  0.0783
10884W        W24298  12.340   2.187   3.101 -0.0155 -0.0538  0.2018
10885W        W24299  12.691  15.463   1.967  0.1635  0.1334 -0.2127
10886W        W24300   3.695  18.116   3.258  0.0596 -0.0603 -0.1689
10887W        W24301   4.533  18.033  13.193 -0.0668  0.1743  0.2556
10888W        W24302  13.273  13.783  10.217 -0.1437  0.2462 -0.0481
10889W        W24303  14.940   5.319  12.451  0.1515  0.2455  0.2170
10890W        W24304   4.689  12.562   3.793  0.0306 -0.0590 -0.0710
10891W        W24305  15.005   9.764   2.001  0.1439 -0.0952 -0.4467
10892W        W24306  16.131  10.863  16.221 -0.2831  0.0222  0.3298
10893W        W24307  16.582   5.602   9.948  0.0244  0.2723  0.2770
10894W        W24308   4.530  16.349  14.754 -0.1102  0.0028 -0.1429
10895W        W24309  16.077   6.952   1.059  0.0954  0.1780  0.0629
10896W        W24310  15.614  15.019  15.152  0.0718 -0.1289 -0.1115
10897W        W24311  14.695   1.694   4.931 -0.1859  0.2494 -0.0423
10898W        W24312  17.086   1.464   2.751 -0.2291 -0.0703 -0.2736
10899W        W24313  13.785   4.559   2.642  0.3018 -0.1437 -0.5526
10900W        W24314  16.016   3.689   3.461 -0.0782 -0.0309  0.2024
10901W        W24315   2.679   6.469  10.773 -0.1028  0.1753 -0.0138
10902W        W24316  10.826  12.839  14.967 -0.1818 -0.0013  0.0335
10903W        W24317   0.511  12.440   0.410  0.1113 -0.1377  0.2073
10904W        W24318  15.819   0.220  10.210 -0.0042 -0.1791 -0.1582
10905W        W24319  11.291   1.981   3.205  0.1921 -0.0064 -0.0284
10906W        W24320   5.485  10.949  12.099  0.0931  0.2245  0.1602
10907W        W24321  13.748  15.736   3.787 -0.0308 -0.0858  0.1206
10908W        W24322   0.449   0.830   3.348  0.1225 -0.3571  0.1333
10909W        W24323   9.155  11.381  11.064  0.0204  0.0103 -0.0061
10910W        W24324   1.355  17.874  13.131 -0.0317  0.1214 -0.0181
10911W        W24325   6.041   7.514   3.213 -0.0046  0.0348  0.1034
10912W        W24326   9.468  13.236  12.905  0.0867 -0.2507  0.5524
10913W        W24327  10.215   7.683   1.490 -0.3707 -0.0862  0.2265
10914W        W24328   5.902   3.777   6.744 -0.2608  0.0648  0.1366
10915W        W24329   1.099   9.715  16.121 -0.1684  0.1887  0.2457
10916W        W24330   3.204  17.099  16.132  0.1711 -0.1226  0.0972
10917W        W24331  10.544  13.305  13.244 -0.1661 -0.1727 -0.1709
10918W        W24332  11.342  16.091  10.878 -0.0869 -0.1441 -0.2883
10919W        W24333  11.956  15.864  10.851 -0.0051 -0.1371  0.3156
10920W        W24334   4.907   2.898   0.786 -0.2770  0.0339  0.0122
10921W        W24335  13.706  14.431  16.407 -0.2281  0.1252 -0.0472
10922W        W24336  17.032   7.770  13.713  0.0655  0.0951  0.0085
10923W        W24337   9.387   7.106   6.365 -0.2548  0.0491  0.2712
10924W        W24338  17.766  12.594   2.853  0.0247  0.0469  0.2493
10925W        W24339   4.329   5.771   1.067  0.0908  0.0036 -0.0149
10926W        W24340   6.863   6.277   5.431  0.0494 -0.1510 -0.2679
10927W        W24341   1.646   4.094   3.901 -0.0259  0.1423  0.0437
10928W        W24342   3.417  13.284  16.026  0.1699  0.1571  0.1518
10929W        W24343   6.456   0.387   4.678  0.3461  0.1509  0.0771
10930W        W24344   7.210   5.078   3.393 -0.1534 -0.1726  0.2030
10931W        W24345   8.638  15.251   0.377 -0.0321  0.1276  0.2481
10932W        W24346  13.142  17.831  14.336 -0.2379  0.0021  0.0936
10933W        W24347   7.050   7.699   5.944  0.0391 -0.1509 -0.0602
10934W        W24348  16.434  11.684   6.699  0.1144  0.1805 -0.0036
10935W        W24349  14.030  15.975   5.391 -0.2270 -0.0087  0.0614
10936W        W24350   3.898   7.953   1.491 -0.4480 -0.2726  0.0014
10937W        W24351   9.091   4.571   6.337  0.1921  0.2112  0.0945
10938W        W24352   2.262  11.896   0.679  0.1662  0.0510 -0.2236
10939W        W24353  17.251  12.266  15.939 -0.0788  0.0580  0.0985
10940W        W24354  11.507  10.198   2.915  0.0626 -0.0442  0.0063
10941W        W24355   8.368  16.317   1.191 -0.1787  0.0330 -0.1383
10942W        W24356   3.230   5.239  13.925 -0.1718 -0.2270 -0.1374
10943W        W24357  17.688  16.869   1.968 -0.1188  0.0072  0.4261
10944W        W24358  17.532  11.022  14.467 -0.1806  0.0982 -0.0115
10945W        W24359  16.939   8.296  12.127 -0.1270  0.1296 -0.1179
10946W        W24360   7.192   8.280   0.362  0.2873 -0.1867  0.1525
10947W        W24361   4.132   7.670   4.933 -0.0632  0.1102 -0.1879
10948W        W24362  12.307  14.946   5.881 -0.0373 -0.1241 -0.2463
10949W        W24363   4.859   9.596  12.744  0.2599  0.1520  0.0137
10950W        W24364   1.486  15.927   2.026  0.4395  0.3018 -0.2740
10951W        W24365   4.880   2.977  15.213  0.0560  0.2906 -0.0827
10952W        W24366   5.971  11.295  13.401  0.4990 -0.2412 -0.0955
10953W        W24367   5.982   1.829  16.148 -0.0808 -0.0378  0.1653
10954W        W24368   5.386   2.659  11.423  0.4026  0.4102 -0.6294
10955W        W24369   4.655   4.411  14.750 -0.3275  0.3085 -0.2119
10956W        W24370  15.068   1.255   4.986  0.0016  0.1211 -0.0226
10957W        W24371  17.788  10.024  11.226 -0.0356  0.0166  0.0812
10958W        W24372  15.895  14.026  11.223 -0.2345 -0.4189 -0.2050
10959W        W24373  11.886  16.669  11.316 -0.3096 -0.2925  0.1795
10960W        W24374   3.669   6.876   3.477 -0.0303 -0.0749  0.2904
10961W        W24375   9.320  10.477  10.521 -0.3829 -0.1093  0.3013
10962W        W24376   3.628   7.016  15.784  0.0066 -0.3145 -0.2146
10963W        W24377   3.445   5.908   3.806  0.0815  0.1262  0.1838
10964W        W24378   8.135   9.513   6.532 -0.2434 -0.3273  0.2654
10965W        W24379   1.396  16.953  11.121 -0.1108  0.0524 -0.5220
10966W        W24380  17.044  11.471  10.328 -0.0418  0.0669  0.1251
10967W        W24381   2.878  18.047   4.599 -0.2752  0.0197 -0.0453
10968W        W24382   0.945  16.799   1.037 -0.1250 -0.1289 -0.1235
10969W        W24383   8.657  15.100  14.936 -0.0866  0.3383 -0.1365
10970W        W24384   8.335   3.039  13.517 -0.2639 -0.0751 -0.2362
10971W        W24385  17.514  13.537  11.781  0.6061  0.0390  0.1878
10972W        W24386  16.011  14.088   3.372 -0.1332  0.2721 -0.2370
10973W        W24387  14.465   6.211   5.780 -0.4221  0.1786 -0.3072
10974W        W24388  14.539  15.856  10.657  0.3827 -0.2329  0.2228
10975W        W24389  12.566  17.514  10.929 -0.0947 -0.0679 -0.0242
10976W        W24390   9.950   8.917  13.196  0.0425  0.0137 -0.1218
10977W        W24391  12.640   9.889  13.704  0.1845  0.1975 -0.1516
10978W        W24392   0.457   4.967   4.106  0.0527 -0.2540 -0.1961
10979W        W24393   2.529  13.314   4.400  0.0726 -0.0412  0.1934
10980W        W24394  13.488   6.401   3.672 -0.2530 -0.1828  0.0181
10981W        W24395  13.089   3.147   0.612 -0.1146 -0.2650 -0.0555
10982W        W24396  15.624   9.614   0.496 -0.0190  0.0955 -0.2952
10983W        W24397  11.837   6.773  10.983 -0.2394  0.0253  0.1222
10984W        W24398   6.577  14.612   4.372  0.0180  0.2404  0.0763
10985W        W24399  14.706  14.186   3.642 -0.1769  0.2680 -0.2305
10986W        W24400   4.507   7.857  11.294  0.0099  0.3027 -0.0158
10987W        W24401   0.531  10.259  11.598 -0.0517 -0.1604  0.1222
10988W        W24402   1.903  12.590   1.363 -0.2125 -0.2362 -0.1066
10989W        W24403   2.626  10.897  16.143  0.1272 -0.1739  0.1174
10990W        W24404  10.566  11.365  14.002  0.1354  0.1938 -0.0307
10991W        W24405   2.754   3.260   6.388  0.0549 -0.2339 -0.2188
10992W        W24406   8.497  16.006  14.915  0.0155  0.2325 -0.0024
10993W        W24407   0.189   4.379   5.996  0.2367 -0.1937  0.2467
10994W        W24408   5.495  14.223  13.419  0.1865  0.0313 -0.1120
10995W        W24409   7.002   5.062   2.782  0.0732 -0.2931 -0.0164
10996W        W24410   9.623  17.656   1.809 -0.1321 -0.1935 -0.0080
10997W        W24411  13.509  11.921  14.392  0.1937 -0.2635  0.0308
10998W        W24412  14.611   2.523   4.750 -0.0322  0.0154  0.1227
10999W        W24413   0.305   5.104  12.487 -0.2285 -0.1484  0.0928
11000W        W24414  11.847   8.507  15.060 -0.3070 -0.0603 -0.1167
11001W        W24415  14.517   0.226   3.121 -0.0666  0.0080  0.1467
11002W        W24416  10.920  16.017  14.623 -0.1198  0.0146  0.1643
11003W        W24417   4.969  11.842  10.844  0.1228 -0.3146 -0.0013
11004W        W24418   6.824  14.348  15.322 -0.1195  0.1958 -0.0915
11005W        W24419  15.747   4.974  15.584  0.0875 -0.0589 -0.0532
11006W        W24420   6.412  13.049   3.112 -0.0233 -0.1898 -0.0490
11007W        W24421  13.154   3.655   5.752  0.2218  0.1537 -0.2293
11008W        W24422  10.562   8.954   1.824 -0.1692 -0.0982 -0.2672
11009W        W24423   8.503  13.751  16.165 -0.0488  0.1652 -0.3209
11010W        W24424  17.008   7.563  14.467 -0.1035  0.0303  0.0933
11011W        W24425   2.537  17.974   9.623  0.1213  0.0470 -0.4070
11012W        W24426   2.094   4.253  16.012  0.0612  0.1014 -0.0396
11013W        W24427   4.822  13.603  13.078 -0.0767  0.2489 -0.2000
11014W        W24428  13.710   7.936   5.634 -0.1485  0.2068  0.3427
11015W        W24429   8.682   2.298   4.178 -0.0227  0.2160  0.0832
11016W        W24430   5.082   5.638   1.576 -0.1024  0.1865 -0.1754
11017W        W24431  10.675   6.650  15.066 -0.0349  0.0341 -0.0058
11018W        W24432   2.622  13.587   5.320  0.1307 -0.0072  0.3921
11019W        W24433  16.826   8.694   1.127 -0.1940 -0.0231 -0.1690
11020W        W24434   4.573  17.915  10.479  0.2732  0.0557  0.1758
11021W        W24435  10.132   2.776  11.979 -0.0464  0.2644  0.0456
11022W        W24436   1.319   0.567  11.863 -0.0314 -0.0811  0.2103
11023W        W24437   8.091   3.581  11.748 -0.3259  0.0828 -0.1810
11024W        W24438  15.643  16.428  12.769  0.1482  0.0010  0.0068
11025W        W24439   9.406   0.126  12.838 -0.1169 -0.0116  0.2012
11026W        W24440   7.697   2.233  11.153  0.0307 -0.0956  0.1008
11027W        W24441   7.629   9.087   4.584  0.0883 -0.3283 -0.0942
11028W        W24442  12.920   5.062   4.005  0.1139 -0.0780  0.4325
11029W        W24443   7.362   9.623   1.825  0.3006 -0.1103  0.0332
11030W        W24444  11.738  17.513  13.804  0.2117 -0.0172 -0.4017
11031W        W24445   0.608  18.046  10.756 -0.0430  0.2203 -0.0355
11032W        W24446  17.984   5.744  13.428 -0.0119 -0.1276  0.2294
11033W        W24447  15.996  17.506   1.261 -0.0115  0.0730  0.2261
11034W        W24448  12.349   9.121   1.569 -0.0383  0.2418  0.0287
11035W        W24449   4.441   7.280   5.527  0.0151  0.1744 -0.0741
11036W        W24450   5.155   0.996   1.591 -0.1034 -0.1293 -0.3661
11037W        W24451  17.940   5.638  10.821 -0.1456  0.1286  0.2936
11038W        W24452  10.798   7.493  15.753 -0.4364 -0.0978 -0.1163
11039W        W24453   7.191   1.166   2.712  0.0373  0.0197  0.1610
11040W        W24454  15.170  15.301   2.281  0.1050 -0.2149 -0.0377
11041W        W24455   8.220   5.872   4.404 -0.2572  0.1208  0.3297
11042W        W24456   8.333  13.150   1.949  0.1334  0.0026  0.1020
11043W        W24457  10.164   0.714  13.084 -0.0086  0.0792  0.2504
11044W        W24458   5.490   8.070   2.062 -0.1637 -0.1208  0.1342
11045W        W24459   2.816  11.511   6.199 -0.2143  0.1036 -0.1013
11046W        W24460  16.303  10.409   1.844  0.1934  0.0668 -0.2913
11047W        W24461  16.193   7.795   5.849 -0.0903  0.1680 -0.0328
11048W        W24462   9.368   9.194   2.700  0.3328  0.0071 -0.4508
11049W        W24463   1.039  13.768  16.069  0.0161  0.1927 -0.3934
11050W        W24464  11.695   6.441   5.526  0.1926 -0.0243  0.1276
11051W        W24465  10.197  13.697   2.071 -0.1938 -0.0074 -0.1696
11052W        W24466  18.145  11.672   6.482 -0.0297 -0.2597 -0.0373
11053W        W24467  15.655   7.375  10.782  0.0191  0.1827 -0.1690
11054W        W24468  16.347  15.728  15.571 -0.0694  0.1670 -0.0957
11055W        W24469  11.267   9.832   5.523  0.0950  0.3084 -0.0424
11056W        W24470  10.673   5.601   5.040 -0.1346 -0.0615  0.0236
11057W        W24471   8.950   1.085  10.317 -0.0546 -0.0543  0.1685
11058W        W24472   1.622  17.825  11.100  0.1537  0.0368  0.0729
11059W        W24473   2.593   3.408   5.410  0.4017  0.1857 -0.3840
11060W        W24474   1.570  16.853  12.321 -0.0526  0.0291 -0.2110
11061W        W24475   3.332  12.477   4.916 -0.0121  0.2312 -0.0966
11062W        W24476   6.839   3.800  15.610  0.0113 -0.0577  0.1131
11063W        W24477   3.059  13.919  13.132  0.1865  0.2372 -0.2020
11064W        W24478  14.457  16.386  10.803  0.3046 -0.0256 -0.1655
11065W        W24479   8.171  10.945  14.867  0.1047  0.2121  0.0815
11066W        W24480   3.708  12.102  13.563 -0.3740  0.0730  0.0443
11067W        W24481   0.009  12.452  11.989 -0.0276  0.1393  0.0088
11068W        W24482   0.291  17.043  13.636 -0.0787  0.1263  0.1916
11069W        W24483   6.071   9.014   3.556 -0.0412  0.0823  0.1349
11070W        W24484   4.528  11.647   0.814 -0.0651  0.1111 -0.0892
11071W        W24485  17.401   8.542   5.907 -0.0425 -0.0639 -0.0312
11072W        W24486   4.806   1.627   0.452 -0.0123 -0.1965  0.0383
11073W        W24487   8.022   4.700   2.337 -0.0448 -0.0480 -0.0737
11074W        W24488  14.326   5.592  12.975  0.1189  0.0970  0.0645
11075W        W24489  14.192  12.975  14.769  0.0756  0.2670  0.0713
11076W        W24490  15.553   0.421  13.111  0.1572  0.0100 -0.0155
11077W        W24491   2.431   8.212   5.678 -0.5109  0.0356  0.1831
11078W        W24492   1.493  12.086   5.814  0.2441 -0.2862 -0.0721
11079W        W24493   1.851  13.283   5.795  0.2380  0.1749  0.2860
11080W        W24494   0.789   5.338  13.869  0.0406  0.1589 -0.1363
11081W        W24495   3.538   9.556   5.215  0.0235 -0.0954 -0.1495
11082W        W24496   7.396   8.728   6.111 -0.5123  0.2656 -0.2566
11083W        W24497  13.454   3.942   4.037 -0.2533 -0.2129  0.2205
11084W        W24498   4.881  17.528  14.128 -0.0860 -0.0370  0.2132
11085W        W24499   1.849   6.279   1.980 -0.0256 -0.0221  0.1671
11086W        W24500  16.650   9.884   6.396  0.3110 -0.1679  0.3488
11087W        W24501  11.426   8.605   3.190  0.2153 -0.1119  0.0646
11088W        W24502  10.924  17.788  13.268 -0.0501 -0.1216  0.1209
11089W        W24503  15.692   8.992  14.381 -0.2101  0.2683  0.1884
11090W        W24504  15.946   2.242  10.784 -0.0303  0.1023 -0.1300
11091W        W24505  11.817   5.066   4.995 -0.0260 -0.1656 -0.1369
11092W        W24506   6.029  13.197   5.180  0.0826 -0.2385 -0.0641
11093W        W24507   3.337  14.569  10.835 -0.0171  0.1464 -0.0654
11094W        W24508  15.769  12.964   3.972  0.2895 -0.1675  0.0405
11095W        W24509   9.032  17.106  10.096  0.1831  0.3141  0.0519
11096W        W24510   1.216   3.987   2.647 -0.0615 -0.1711 -0.0021
11097W        W24511  17.989  13.750   5.155 -0.1967 -0.0340  0.0227
11098W        W24512   8.501   2.865   4.128 -0.0163  0.0783  0.1510
11099W        W24513  12.717  16.862   2.036  0.0946  0.0439  0.1575
11100W        W24514   3.869   8.997  15.974  0.1683  0.0982 -0.0553
11101W        W24515   0.638   8.943  15.253 -0.0409 -0.3053 -0.1306
11102W        W24516   1.601   6.698   1.922 -0.0963  0.0410 -0.1414
11103W        W24517   2.689  12.571   6.335  0.0726 -0.0105  0.1498
11104W        W24518   5.086   7.901   3.243  0.1577  0.3113 -0.0388
11105W        W24519  10.872   4.911  10.869 -0.0549  0.0871  0.0682
11106W        W24520  11.578  10.250   1.450 -0.0922  0.2539  0.1141
11107W        W24521   8.147  10.629  12.863 -0.0918  0.0421 -0.1993
11108W        W24522  14.243  17.742  10.455 -0.0395  0.1126  0.2702
11109W        W24523   0.464   6.660   6.211 -0.1142  0.0715 -0.1183
11110W        W24524   5.420  13.524   5.290 -0.5214 -0.2720 -0.0318
11111W        W24525  12.132   4.059  12.614 -0.0434 -0.0672  0.1670
11112W        W24526  16.213   1.094  14.220  0.4694  0.1592 -0.1436
11113W        W24527  15.676   3.172   3.379 -0.0266 -0.0041 -0.0551
11114W        W24528   0.369   9.574  11.207  0.2041 -0.2677  0.1564
11115W        W24529  15.351  18.140   2.043  0.3223  0.1034 -0.0579
11116W        W24530   2.710  12.567   2.417 -0.1724  0.1384  0.0924
11117W        W24531   3.182   7.518  14.937  0.1357  0.0741  0.1716
11118W        W24532   0.736  16.605  12.739 -0.0268 -0.2127 -0.1494
11119W        W24533   0.366  11.594   5.623 -0.1528  0.0744  0.0648
11120W        W24534  12.344  14.069   3.394 -0.1877  0.0968 -0.2699
11121W        W24535  13.043   6.977  11.200 -0.0995  0.1164 -0.1212
11122W        W24536   6.886   6.531  15.572  0.0664 -0.3980  0.0433
11123W        W24537  14.065   4.417  13.019  0.1491  0.2237 -0.1997
11124W        W24538  11.173   6.521  14.839  0.0318  0.2389  0.0174
11125W        W24539  18.069  17.585   1.549 -0.0394  0.0318 -0.0822
11126W        W24540  13.405   3.969   1.689 -0.2648  0.3023  0.1882
11127W        W24541   5.218  11.521  14.146 -0.0032 -0.3717  0.1052
11128W        W24542   4.231   1.931   0.465 -0.1134 -0.2473 -0.0793
11129W        W24543   2.215   9.468  13.882  0.1020  0.1101 -0.1788
11130W        W24544  10.635  14.556  12.547 -0.0433  0.3236 -0.0799
11131W        W24545   7.210   6.910   0.614  0.0751 -0.2866  0.0305
11132W        W24546  13.021  16.799  15.672  0.1341 -0.1498 -0.0637
11133W        W24547  15.070  11.520   6.756  0.0725 -0.1674 -0.1720
11134W        W24548   2.177  10.303   1.316  0.0646  0.2606 -0.1344
11135W        W24549   2.503  14.841   2.740  0.2303  0.3885  0.1707
11136W        W24550   8.956   6.671  13.371  0.1643  0.0980  0.2205
11137W        W24551  10.306   1.409   9.300  0.2250  0.1638  0.0050
11138W        W24552   7.760   8.044   4.897 -0.0582  0.0091  0.0678
11139W        W24553   3.314   0.618  15.661 -0.1613 -0.1525 -0.3268
11140W        W24554   8.106  15.204   0.470 -0.1119  0.2688  0.0487
11141W        W24555   1.932  11.552  14.176  0.2337 -0.0361  0.4081
11142W        W24556   1.918   4.736  15.255 -0.1932  0.1422 -0.1010
11143W        W24557   6.887   4.423   4.543  0.1471  0.0626  0.0235
11144W        W24558   6.621   7.864   0.538 -0.2554 -0.1083 -0.0062
11145W        W24559   3.934   5.955   5.753  0.1052  0.0957  0.0939
11146W        W24560   3.988  10.213   5.102 -0.2540 -0.3151  0.0435
11147W        W24561   7.331   4.250   2.706  0.0592 -0.2579 -0.1069
11148W        W24562  14.751   4.855  12.879 -0.1012 -0.3378  0.1907
11149W        W24563  13.191   6.568  15.805  0.1367 -0.0211  0.1796
11150W        W24564  11.836  15.052   5.887  0.0610 -0.3694 -0.0895
11151W        W24565   3.401  16.979   0.360 -0.2353  0.1620 -0.2612
11152W        W24566  10.308  12.000  15.067  0.1894  0.2216  0.1927
11153W        W24567  11.451   5.257   3.726  0.5829 -0.1228 -0.1046
11154W        W24568   6.939  12.843   0.036 -0.4952  0.0330 -0.1934
11155W        W24569  12.370  14.213  14.594 -0.0839  0.2561 -0.1900
11156W        W24570  17.751   9.178  12.438  0.0383  0.0513 -0.5644
11157W        W24571  13.884  15.947  11.547 -0.4094 -0.2094 -0.0250
11158W        W24572  16.901   2.093   0.201 -0.1490 -0.0685  0.0808
11159W        W24573  15.906   0.232   3.376  0.0901  0.2516 -0.0955
11160W        W24574   7.657  10.350   6.074 -0.1048  0.1548  0.3312
11161W        W24575   0.962  16.358  11.561 -0.2690 -0.1840  0.1864
11162W        W24576   2.325  10.178  14.551  0.0305  0.3239 -0.2276
11163W        W24577   4.083  13.445  15.173  0.1106  0.2471  0.1402
11164W        W24578  11.048  10.193   5.813 -0.0892  0.1106 -0.1214
11165W        W24579  17.193  13.127  14.457  0.3194  0.1816  0.2703
11166W        W24580   7.171   4.332   5.020  0.1685  0.1625 -0.4016
11167W        W24581  16.976   4.908  12.190 -0.2014 -0.4645 -0.0901
11168W        W24582  12.043   1.014  12.216  0.2611  0.0460 -0.0821
11169W        W24583   5.520   0.784  12.290  0.0993  0.1779 -0.2766
11170W        W24584  13.948   8.952   5.689  0.1385  0.1089  0.1257
11171W        W24585   0.281   7.409   3.982 -0.1456  0.1539 -0.0677
11172W        W24586  11.576  14.161   0.363  0.1334 -0.0440  0.0141
11173W        W24587  10.938   3.258  13.047  0.0775  0.1777  0.0686
11174W        W24588   0.650  11.075   4.922 -0.0688  0.3375  0.1345
11175W        W24589  10.072   3.851  11.152  0.0615  0.0675  0.1653
11176W        W24590   9.514   9.950   6.874  0.0188 -0.1218  0.0566
11177W        W24591   3.205  17.289  15.636 -0.1437 -0.1781  0.3246
11178W        W24592  17.074   0.755  12.157 -0.0944 -0.1571 -0.1926
11179W        W24593   7.705  13.308  13.480 -0.0794  0.0062 -0.0600
11180W        W24594   1.684  12.965   5.369 -0.0284  0.1228  0.0649
11181W        W24595   9.477  17.701   3.274  0.1313  0.2181 -0.0641
11182W        W24596   7.408  10.753   3.781 -0.2472  0.0741 -0.2201
11183W        W24597   9.948  13.417  13.203 -0.0198  0.1352  0.1934
11184W        W24598  13.750  13.798  13.291  0.0804  0.2137 -0.4008
11185W        W24599  17.324  15.628  12.871  0.0355  0.1520 -0.2287
11186W        W24600   2.785   5.006   4.694 -0.1881 -0.2864 -0.2268
11187W        W24601  10.537   9.998   3.065 -0.1066  0.2235 -0.2577
11188W        W24602   8.550   8.499   0.111 -0.0007  0.2574  0.1239
11189W        W24603  14.670  13.301  13.367 -0.0543 -0.0859 -0.1294
11190W        W24604  13.894   2.052  15.107  0.1306  0.0475  0.2284
11191W        W24605   5.411   7.034  15.939 -0.0604  0.0605 -0.1008
11192W        W24606  10.151   6.118  11.441  0.1100  0.2331  0.2690
11193W        W24607   5.759   6.824  13.176 -0.0724  0.2907 -0.3267
11194W        W24608  17.761   2.659   4.526  0.0015 -0.1782 -0.0734
11195W        W24609   6.337  15.236   4.105  0.3712  0.0662  0.0210
11196W        W24610   4.144  15.464   4.257  0.0363 -0.0834  0.0583
11197W        W24611   8.024  12.682   5.136 -0.2258  0.2130  0.0302
11198W        W24612  18.021  13.508   1.276  0.1700 -0.1748  0.1773
11199W        W24613  17.340   3.034  14.247 -0.0039 -0.2908  0.1723
11200W        W24614   6.540  11.555   2.438 -0.3551  0.1272 -0.1231
11201W        W24615   6.500   0.232   3.388 -0.0242  0.0933 -0.3582
11202W        W24616  11.113  16.869   0.339 -0.3934 -0.3484 -0.1362
11203W        W24617  16.280  10.308  12.369  0.0140 -0.2151 -0.0105
11204W        W24618   4.314  14.607   3.308 -0.0058  0.1582  0.1712
11205W        W24619   0.028   9.812  10.946 -0.0026 -0.2521  0.3694
11206W        W24620  11.964  13.224  11.515 -0.3531  0.1478  0.1630
11207W        W24621   7.859  17.766   2.529 -0.1088 -0.1241  0.0716
11208W        W24622   2.677  14.620  13.978 -0.1905  0.2362 -0.1878
11209W        W24623  15.962  15.802   5.910 -0.1070 -0.1690 -0.0243
11210W        W24624   6.677   5.238   4.943  0.2196  0.0615  0.2322
11211W        W24625  11.741  11.934   3.245  0.0086 -0.1596  0.1383
11212W        W24626  18.208   5.066   1.319 -0.0295  0.3149  0.1664
11213W        W24627   2.029   7.343   2.170  0.5634 -0.5481  0.0881
11214W        W24628  15.903  13.506  14.605  0.0846  0.1025  0.0337
11215W        W24629   9.361  13.574   4.536  0.0166 -0.0145  0.3272
11216W        W24630   0.342   8.800   0.213 -0.0647  0.1523  0.2643
11217W        W24631  15.994  12.608  13.185  0.0434 -0.0005 -0.1710
11218W        W24632   1.963  16.202  11.984  0.2299  0.1738 -0.1330
11219W        W24633   1.809  10.203   4.838 -0.0595  0.1365 -0.0338
11220W        W24634  17.072   8.560  15.434 -0.1343  0.0859  0.0061
11221W        W24635  15.597  15.917  15.008 -0.0225 -0.0392  0.2333
11222W        W24636  14.400  16.102   1.781  0.2691  0.1746 -0.0531
11223W        W24637  17.171   8.538   1.761  0.1132  0.0996  0.0868
11224W        W24638   0.911   2.710  14.008 -0.0348  0.0149  0.1612
11225W        W24639   5.715  16.422   1.708  0.1553 -0.0481  0.2654
11226W        W24640  16.192  11.477   4.599 -0.0105  0.1204 -0.0468
11227W        W24641  12.100  13.637   4.652 -0.2066 -0.5192 -0.0125
11228W        W24642   6.591   7.762   4.092  0.0998  0.4117  0.2617
11229W        W24643  15.967  14.669   2.115 -0.0080 -0.2576  0.1235
11230W        W24644  13.611   4.321  15.414  0.0539 -0.0764  0.4139
11231W        W24645   8.104   6.094   2.224 -0.0943 -0.1685  0.1343
11232W        W24646  17.342   9.240  14.083 -0.2124  0.2488  0.0113
11233W        W24647  12.459  17.627   2.585  0.0838  0.3974 -0.0025
11234W        W24648  15.975  10.559  14.090 -0.4016  0.2609 -0.0166
11235W        W24649   5.526   7.090   5.521  0.0277  0.2832 -0.1832
11236W        W24650   9.427  17.682  12.464  0.1825  0.2294 -0.3175
11237W        W24651  10.245  18.021  12.985 -0.1773 -0.0919 -0.3823
11238W        W24652   5.212   3.813   4.024  0.1326  0.1502 -0.4017
11239W        W24653  11.164   1.499   9.702  0.1656 -0.0770  0.1671
11240W        W24654  11.397  16.879  13.420  0.0477 -0.1422  0.0810
11241W        W24655   2.701   3.743  12.916 -0.2045 -0.0509  0.3275
11242W        W24656  12.355  14.185  12.214 -0.1681 -0.1411 -0.0545
11243W        W24657   7.551   3.982  16.329  0.2346  0.0117 -0.2013
11244W        W24658  16.416  14.813   1.833 -0.1006  0.1985 -0.0738
11245W        W24659  11.722   1.893  12.529  0.2115 -0.3065  0.0476
11246W        W24660   4.099   1.888  14.689 -0.0131 -0.3162 -0.0173
11247W        W24661   4.381  13.303   5.623 -0.2054  0.1643 -0.1440
11248W        W24662   9.459   0.179   4.367  0.0711 -0.1611  0.1330
11249W        W24663   0.275  10.727   2.158 -0.0799  0.2834 -0.0057
11250W        W24664   1.603   4.331  13.429 -0.0225 -0.1840 -0.2401
11251W        W24665   0.764   8.522   0.167  0.0749 -0.2592  0.1180
11252W        W24666  11.149  11.442  15.882  0.1521  0.1398 -0.0582
11253W        W24667   1.709  13.596  14.684 -0.1693 -0.2126 -0.1833
11254W        W24668   5.814   2.866   1.224  0.1958  0.3510 -0.1016
11255W        W24669  10.146   8.340   5.124 -0.0202  0.0485  0.2905
11256W        W24670   4.889   9.198   0.633 -0.1568  0.0803  0.1196
11257W        W24671   9.420   6.364  15.990 -0.0048  0.2054 -0.2880
11258W        W24672   7.219  16.662  11.024  0.1227  0.0144  0.1659
11259W        W24673  17.535  11.404  13.480  0.1918  0.0732 -0.0912
11260W        W24674   3.503   9.727   5.920  0.1951  0.0526  0.1675
11261W        W24675  16.430  16.781   0.031  0.0905 -0.0720  0.0008
11262W        W24676   9.387  14.295   1.111  0.1899  0.1822  0.2760
11263W        W24677   7.125   6.011   5.070  0.2939  0.2812 -0.1414
11264W        W24678   8.024   2.569  14.312  0.1929 -0.1739 -0.2046
11265W        W24679  13.343  11.535   5.492  0.1026 -0.0229  0.1326
11266W        W24680   1.269   9.244   2.489  0.4148 -0.1499  0.3995
11267W        W24681   9.590   5.887   6.218 -0.0464  0.2565 -0.0322
11268W        W24682   1.006   3.909   0.269 -0.1342  0.0806 -0.1065
11269W        W24683   3.913  12.958  15.989 -0.0028  0.1096 -0.0197
11270W        W24684  11.085   0.320  10.909  0.0373 -0.0734 -0.0676
11271W        W24685   2.990  16.228  12.287 -0.2023 -0.2978  0.1535
11272W        W24686  13.948   3.361  14.574 -0.2012  0.1814  0.0905
11273W        W24687  16.208  15.033  13.421  0.3150  0.2744  0.0455
11274W        W24688   3.534   6.724  11.298 -0.1122  0.2688  0.0379
11275W        W24689   0.833  11.607   0.483  0.0433 -0.1550 -0.1343
11276W        W24690   4.478   9.463  13.861  0.0389  0.0187 -0.0927
11277W        W24691  14.939  11.730   0.195  0.0940 -0.1569  0.0674
11278W        W24692  12.284  13.696   2.920 -0.0082 -0.0131 -0.1905
11279W        W24693  17.964   3.064  14.834 -0.1288  0.0456  0.1569
11280W        W24694   4.150   5.460  14.882 -0.1686 -0.0287  0.1494
11281W        W24695   8.261   0.762   4.552  0.2288 -0.1452 -0.0588
11282W        W24696   3.375   1.777   2.407  0.0924 -0.2482 -0.3656
11283W        W24697  14.393  12.361  16.126  0.2001 -0.1039 -0.0132
11284W        W24698   1.714   2.716   1.644  0.2899 -0.1212 -0.1341
11285W        W24699   8.015  11.414   2.376 -0.2640 -0.2575 -0.3369
11286W        W24700   2.063   8.986  12.869  0.1962  0.1411 -0.0723
11287W        W24701   3.648   5.938   0.373  0.0993 -0.0466  0.2223
11288W        W24702  18.120  11.911  11.825  0.3420 -0.0612 -0.1783
11289W        W24703  11.815   4.165  15.025 -0.0262 -0.1687 -0.0349
11290W        W24704  10.348   5.860  10.939 -0.3391 -0.0287 -0.0926
11291W        W24705  17.803  16.526  15.268 -0.3242  0.3287 -0.0450
11292W        W24706   5.054  16.297   2.601  0.1817 -0.0693 -0.1415
11293W        W24707   1.164   4.090   3.111  0.0830 -0.1381  0.0486
11294W        W24708   2.249  13.635   0.390 -0.0731 -0.2408 -0.0510
11295W        W24709   3.400  10.974   2.117  0.0034 -0.1169  0.0311
11296W        W24710   6.521   7.046  13.866 -0.1630 -0.3377 -0.2187
11297W        W24711   6.974   3.518   5.532  0.1665 -0.1781 -0.1168
11298W        W24712   0.433   8.494  14.483 -0.1105  0.0715  0.3556
11299W        W24713   2.952   3.365  12.137  0.0976  0.2468 -0.1296
11300W        W24714  13.156   0.152  11.532 -0.1038 -0.1362  0.0329
11301W        W24715   6.497   0.608   5.203  0.0575 -0.1053  0.1935
11302W        W24716   4.690  18.089  14.146 -0.0907 -0.0092 -0.0427
11303W        W24717   7.789   7.962   1.468 -0.2730  0.0985 -0.0567
11304W        W24718   1.278   4.895  15.831 -0.2819  0.1467  0.0074
11305W        W24719  15.407   3.305  11.966  0.0451 -0.0796  0.3957
11306W        W24720  12.325   1.361  12.488  0.0712 -0.0463 -0.1321
11307W        W24721   5.149  10.251  14.128  0.3582  0.1935 -0.1744
11308W        W24722   8.447   2.629   1.263 -0.0803 -0.2002 -0.0685
11309W        W24723  16.068  12.173   4.854  0.4719 -0.2122 -0.0371
11310W        W24724   4.142  13.931  15.158 -0.4648 -0.2812  0.0232
11311W        W24725   8.250  10.624   3.568  0.1320  0.0820 -0.1469
11312W        W24726   4.566   5.454  15.543 -0.0793 -0.4313  0.1542
11313W        W24727   6.282   6.873  16.294 -0.0378 -0.2510  0.1212
11314W        W24728  15.227   4.625   1.201 -0.0725  0.3334  0.0758
11315W        W24729  10.831  12.874   5.470 -0.0742  0.0939 -0.2147
11316W        W24730   4.160  12.058  11.906  0.0399  0.3248 -0.2032
11317W        W24731   8.865   0.800   4.400  0.0167  0.1061  0.0491
11318W        W24732  14.900  18.036  16.236 -0.0503  0.1383 -0.0855
11319W        W24733   0.297  10.879   3.603 -0.3678 -0.1536  0.0770
11320W        W24734  15.922  15.684   3.805  0.2881 -0.2279  0.2723
11321W        W24735  11.071  18.133  13.704 -0.1796 -0.0261 -0.2000
11322W        W24736  15.122   5.609  11.532  0.1764 -0.2172  0.0589
11323W        W24737  17.544  15.757   0.115 -0.0948 -0.0522  0.0639
11324W        W24738  10.628   7.985  12.666 -0.0544  0.2653  0.1490
11325W        W24739  10.551  16.383  12.418  0.3064  0.2864  0.0923
11326W        W24740   9.376   3.690  15.327  0.0891  0.1568 -0.1417
11327W        W24741   5.907   2.046  12.580  0.0430 -0.2813 -0.1611
11328W        W24742   2.279  17.442   0.425  0.3346  0.0214 -0.0457
11329W        W24743  15.216  13.387  15.556 -0.1403 -0.0024  0.2123
11330W        W24744  15.052   4.712   4.393 -0.3323  0.2451  0.4314
11331W        W24745   8.378   1.318   5.666  0.0242 -0.1949 -0.0280
11332W        W24746   5.906   3.080  12.665  0.0077 -0.1017  0.3326
11333W        W24747   9.372  14.848   2.374 -0.3987 -0.1082 -0.0004
11334W        W24748   7.960   9.991   0.483  0.3799  0.0458 -0.0672
11335W        W24749   3.865   0.679  13.460  0.0496 -0.0577 -0.0568
11336W        W24750   0.186   1.598  10.673  0.1298  0.1467  0.1150
11337W        W24751   9.222  15.965  13.716  0.1923  0.1716  0.3069
11338W        W24752  11.635   4.623  11.463 -0.0471  0.0817  0.3083
11339W        W24753   7.858  12.107   1.780 -0.1097  0.0861  0.2728
11340W        W24754   1.358  12.946  10.990  0.1814 -0.2769  0.0241
11341W        W24755   6.709   1.394  10.072 -0.1603 -0.1024 -0.0417
11342W        W24756   8.890  16.462   1.022 -0.2885 -0.0300  0.0499
11343W        W24757   4.911   6.726   4.931  0.2370 -0.0794  0.0566
11344W        W24758  13.030   9.975  11.520  0.1539 -0.0314 -0.0379
11345W        W24759   5.816   1.008  15.478  0.2838 -0.0084  0.1527
11346W        W24760   1.814   1.966  12.608 -0.0030  0.0664 -0.0579
11347W        W24761   9.204  15.931   3.894 -0.0562  0.0039  0.1271
11348W        W24762   5.118  11.523   1.630  0.0162  0.1211  0.1044
11349W        W24763   9.540  10.528  13.999 -0.1138 -0.0803 -0.0588
11350W        W24764   3.141   1.854   0.279  0.0140  0.2149  0.0520
11351W        W24765   5.563  16.595   4.794  0.1616  0.3085  0.1075
11352W        W24766   9.131   1.385  11.294  0.0450 -0.4108  0.0476
11353W        W24767   5.192  12.954  14.118 -0.1497 -0.2683  0.2724
11354W        W24768  17.760  13.868  15.380  0.1148  0.1714  0.1959
11355W        W24769  17.830  17.532  15.380 -0.0202  0.0036 -0.0034
11356W        W24770   4.787   2.585  16.203 -0.0378  0.1004 -0.0044
11357W        W24771   3.728  16.232  12.354  0.0827  0.1273 -0.0404
11358W        W24772   2.284   3.112   0.990  0.2043 -0.1526  0.1114
11359W        W24773   4.676  14.664  16.346  0.1008 -0.1005 -0.0504
11360W        W24774  11.449  16.512   0.090 -0.1048 -0.0444  0.3195
11361W        W24775   8.851   2.945   2.120  0.1445  0.0030  0.0351
11362W        W24776   2.592  14.077   3.213  0.2042 -0.0958 -0.0267
11363W        W24777  13.239  12.597   5.278 -0.0980  0.1447 -0.3668
11364W        W24778   9.445   5.722  15.087  0.4452 -0.0892  0.0140
11365W        W24779   1.590   7.498   1.844  0.1703 -0.1069 -0.2356
11366W        W24780   3.762   1.559  12.892  0.0317 -0.1233 -0.2059
11367W        W24781  12.227   4.970  15.275 -0.0816 -0.1527  0.1233
11368W        W24782  11.147   0.912   1.377 -0.0452  0.2032  0.0757
11369W        W24783   4.891   4.578   1.397 -0.0869  0.1327  0.3081
11370W        W24784  16.094   9.579  11.826  0.1364 -0.1252 -0.0098
11371W        W24785  17.852   9.450  14.911 -0.0774  0.0621  0.0476
11372W        W24786   9.678  15.968  13.454 -0.2556 -0.1814  0.2316
11373W        W24787  13.249  10.441  13.241  0.2352  0.1006  0.1053
11374W        W24788   1.391   5.728   3.570 -0.0625 -0.0136 -0.1104
11375W        W24789   0.841  17.460   0.066  0.1748  0.0955  0.4718
11376W        W24790  11.511  17.808   0.511 -0.1409 -0.0043 -0.0143
11377W        W24791   2.144   0.932  12.958  0.1149  0.0243  0.1091
11378W        W24792   9.708  16.873   5.971  0.1047 -0.2386  0.0306
11379W        W24793   1.186  15.405   5.764 -0.1696  0.0333 -0.0350
11380W        W24794   8.680  10.480  16.343  0.5438  0.0351  0.3142
11381W        W24795  15.995   8.012  16.127 -0.0488 -0.0822  0.0309
11382W        W24796   8.894  16.167  15.701  0.1157 -0.2291 -0.0487
11383W        W24797  14.058  18.085  14.042  0.0487  0.2134 -0.3096
11384W        W24798   1.975  10.742  15.226 -0.3124 -0.3641 -0.2636
11385W        W24799  13.578   5.562  13.365  0.2610  0.0094 -0.0935
11386W        W24800   2.378   8.648  15.161  0.1252  0.0801  0.0026
11387W        W24801  17.733   2.946  10.336  0.1296 -0.1535  0.0257
11388W        W24802  12.682   8.721  15.373  0.1799 -0.1210  0.2147
11389W        W24803  11.379   3.476   4.160 -0.0615  0.0860  0.3603
11390W        W24804  10.192   0.518   3.635 -0.0137  0.1167  0.1770
11391W        W24805   7.088   9.594   3.463  0.0500  0.0563  0.0422
11392W        W24806  15.200   2.704  14.696 -0.1060 -0.1581 -0.1238
11393W        W24807  15.837  11.174   4.848  0.0104 -0.0691 -0.0814
11394W        W24808   6.834   5.579   4.009 -0.0994 -0.2506 -0.2251
11395W        W24809   8.683   2.768  16.507  0.0618  0.1296  0.0379
11396W        W24810   0.104   2.845   2.834 -0.0010  0.0228  0.0231
11397W        W24811   3.538  10.496   5.064  0.1649  0.1094 -0.0277
11398W        W24812   2.942  13.869   0.968  0.0216  0.1307  0.0819
11399W        W24813   4.435   1.394  14.111 -0.0945  0.0479  0.0031
11400W        W24814  14.023   9.673  11.788 -0.0868 -0.1677  0.0020
11401W        W24815  16.401   9.397   5.321 -0.0890 -0.2933  0.1347
11402W        W24816   4.749  16.215   4.723 -0.2041 -0.2040  0.1428
11403W        W24817   5.572  13.951  12.535 -0.1940 -0.1813  0.1903
11404W        W24818   5.749  14.765  13.650 -0.1614 -0.0313  0.0462
11405W        W24819   8.113   9.865   2.582 -0.2024 -0.0025  0.3760
11406W        W24820  17.177  16.486   3.697  0.1795 -0.0911 -0.4019
11407W        W24821   5.099   3.345   3.892 -0.2176 -0.1329 -0.1369
11408W        W24822   5.185   8.192  11.669  0.0097  0.1415  0.3258
11409W        W24823  15.768   3.885  16.239  0.1953 -0.2094 -0.2413
11410W        W24824   8.401   0.492   1.497 -0.2825  0.0158 -0.0821
11411W        W24825  17.975  17.890   3.451  0.0133  0.1528 -0.0940
11412W        W24826   4.383   6.820  12.876 -0.0560  0.1878 -0.0328
11413W        W24827  12.340  13.229   2.579 -0.0613  0.0105 -0.2848
11414W        W24828   6.487   2.104  15.025  0.0062 -0.2538 -0.0146
11415W        W24829   5.633   0.744   5.097 -0.4119  0.1931 -0.1086
11416W        W24830   8.600   9.034   0.086 -0.3246  0.1928  0.0328
11417W        W24831   7.256  12.092   1.456  0.0248 -0.3295 -0.2703
11418W        W24832   7.213   2.897  15.451  0.2455  0.0829 -0.4212
11419W        W24833  18.170   6.142   4.143 -0.3136  0.1583  0.0938
11420W        W24834   6.499  13.493   6.375  0.3386  0.3021  0.3896
11421W        W24835  17.369  12.903  11.138 -0.1572 -0.0673 -0.2251
11422W        W24836   8.085   9.372  14.290  0.0733 -0.2246 -0.1976
11423W        W24837  14.612  15.560   0.796 -0.2463 -0.0257 -0.2808
11424W        W24838  12.726   1.989  11.666 -0.0064 -0.3222 -0.0330
11425W        W24839   1.120  18.018  11.022  0.1713 -0.2885  0.3282
11426W        W24840  13.588  16.513  16.465  0.5247 -0.1971  0.0869
11427W        W24841   0.647   2.712   2.777  0.2089 -0.1497 -0.0219
11428W        W24842  13.957   4.219   0.235  0.0933  0.1107  0.1598
11429W        W24843   8.470   3.743   2.301 -0.2740 -0.1899  0.1573
11430W        W24844   5.223  13.996  13.058  0.2796 -0.0735 -0.0901
11431W        W24845   0.628  13.002   0.464  0.2490 -0.1971  0.0370
11432W        W24846   8.912  12.836  16.351 -0.0369  0.1060 -0.1030
11433W        W24847  10.038   8.539   1.194 -0.2783 -0.0815  0.0439
11434W        W24848   9.680   2.142  10.191  0.0477  0.0063 -0.0154
11435W        W24849  13.346   9.263   4.055 -0.1437 -0.2035  0.1175
11436W        W24850  15.354   3.787   1.700 -0.2082 -0.0016  0.1059
11437W        W24851  15.505   9.830  16.079  0.0891 -0.0193 -0.1627
11438W        W24852   3.504  16.197  15.135  0.1526  0.0914  0.0306
11439W        W24853   6.142   5.100  14.069 -0.0533 -0.0312 -0.0517
11440W        W24854  15.656   9.845  12.687 -0.1116 -0.0540  0.0222
11441W        W24855  16.509   7.781   0.915  0.0150 -0.1748 -0.1254
11442W        W24856   2.163   1.531   2.932  0.3237  0.0948 -0.1431
11443W        W24857  12.719  11.333  10.876 -0.2173 -0.0485 -0.0225
11444W        W24858   6.802   6.698   3.378  0.0566 -0.2778  0.1113
11445W        W24859  15.905   8.741  15.664  0.0750 -0.2588  0.0658
11446W        W24860  10.893  15.803   4.216  0.1214 -0.0736 -0.1259
11447W        W24861   8.571  17.995  11.683  0.1968  0.0280  0.0045
11448W        W24862   8.760   1.671   0.157 -0.3175 -0.0732  0.1907
11449W        W24863   9.619  13.042  14.897 -0.4991 -0.1675 -0.0147
11450W        W24864  10.441  12.081   5.858 -0.2420  0.1907 -0.0654
11451W        W24865   7.913  10.990   3.719  0.0008  0.2103  0.2674
11452W        W24866   5.341  12.742  11.068  0.3055  0.0177  0.0831
11453W        W24867  15.405   5.241  11.707 -0.0782  0.0183  0.0302
11454W        W24868  10.481  18.182   2.134  0.4234  0.0307 -0.4655
11455W        W24869  14.930  12.902   0.435 -0.0497 -0.3502  0.2972
11456W        W24870   7.213   3.996   0.831 -0.0162  0.2039  0.0502
11457W        W24871   2.757  16.849  15.428 -0.3816 -0.1193 -0.1745
11458W        W24872   5.988  16.171   4.434 -0.2525  0.0009  0.3103
11459W        W24873   0.707   8.377  12.696 -0.0486  0.3085 -0.1300
11460W        W24874  14.732   5.068   4.364 -0.2090 -0.0001  0.0185
11461W        W24875  16.389  17.808  13.931 -0.1407  0.3947  0.2581
11462W        W24876  12.782   7.549   1.818  0.0410  0.0307 -0.0759
11463W        W24877  10.177  11.453  12.682 -0.0483 -0.1616  0.3326
11464W        W24878   9.298   6.387   4.387  0.1649  0.0429 -0.1278
11465W        W24879   6.144  11.430   1.179 -0.0437  0.0482 -0.0226
11466W        W24880  17.826   0.760  13.298 -0.2334 -0.2013 -0.2134
11467W        W24881   4.839   7.221   4.706  0.0879  0.0866  0.1237
11468W        W24882   0.567   9.408   1.305 -0.1180  0.2990  0.0498
11469W        W24883  16.444   1.719  13.082  0.0631 -0.0273 -0.1161
11470W        W24884  17.815   6.537   2.538 -0.2374  0.2757  0.0357
11471W        W24885  15.208  13.265   0.740  0.1318  0.2412  0.4174
11472W        W24886   7.630   1.403   3.008  0.4771  0.0737 -0.0892
11473W        W24887  17.476   5.554   0.227 -0.0504 -0.1117 -0.0134
11474W        W24888  12.522   3.105   3.344  0.0006  0.1070  0.2431
11475W        W24889   8.127   5.857   1.693  0.1743 -0.0575 -0.0919
11476W        W24890  11.670   2.755  13.366 -0.0158 -0.1662  0.0548
11477W        W24891  15.685   1.038   2.401  0.2222 -0.2384 -0.1328
11478W        W24892  15.529   9.624  11.105  0.1524 -0.2814  0.1769
11479W        W24893  15.235   9.264   3.397 -0.1350  0.1072 -0.1028
11480W        W24894   7.824  16.990   0.189 -0.0221  0.2655  0.1937
11481W        W24895  11.645   1.098   0.454 -0.1317  0.0263 -0.0890
11482W        W24896  18.137   0.618  11.940  0.2380  0.2121  0.0773
11483W        W24897  10.820   1.085   9.798 -0.0985 -0.3035  0.3543
11484W        W24898  12.235   2.850   0.953 -0.2857  0.0516 -0.0964
11485W        W24899   5.105  10.849   4.929  0.0723  0.0417 -0.1675
11486W        W24900  15.600  14.403   0.464  0.1900 -0.0060  0.0141
11487W        W24901   8.507   5.457  16.125  0.2009 -0.0419  0.1039
11488W        W24902   5.172   8.665   0.799  0.1108 -0.2713 -0.1282
11489W        W24903   8.988  13.107  10.653 -0.1612 -0.0704 -0.2113
11490W        W24904   1.469  13.586   4.381  0.0375  0.0454  0.0735
11491W        W24905  15.208   2.948  12.566 -0.0500 -0.1446  0.1609
11492W        W24906   9.851   7.253  12.738 -0.1796  0.0110  0.2757
11493W        W24907  16.213   9.461   6.247 -0.0386  0.4685 -0.1057
11494W        W24908   6.072   4.002   2.895 -0.0344 -0.1440  0.3918
11495W        W24909   7.122   6.124  11.454 -0.2460 -0.0416 -0.0560
11496W        W24910   5.554   2.209  14.846 -0.0796 -0.3706  0.0600
11497W        W24911   4.538   3.592   6.141 -0.0349  0.1190  0.0132
11498W        W24912   4.242  16.918  16.141  0.0259  0.0249  0.2176
11499W        W24913   1.840   4.297   5.215 -0.0686  0.1906 -0.1891
11500W        W24914  13.292   2.566  11.087 -0.0749 -0.3824  0.2231
11501W        W24915   5.868  16.315   3.334 -0.3897 -0.2711  0.1396
11502W        W24916   8.575   4.704   2.264 -0.2554 -0.1055  0.0956
11503W        W24917   7.062  16.141  12.688  0.0960 -0.2216  0.0128
11504W        W24918   2.396  17.942  10.572 -0.1074  0.2576 -0.2841
11505W        W24919   3.952  15.352   3.230  0.1256  0.0203  0.0939
11506W        W24920  15.378  13.945  13.709 -0.1459  0.1128  0.1554
11507W        W24921  14.262  10.167   6.210  0.1970 -0.3375 -0.4389
11508W        W24922   6.964   4.277  15.471 -0.0329  0.0000  0.1658
11509W        W24923   6.520  11.887  11.453  0.0096  0.0683 -0.2176
11510W        W24924   0.921   5.053  12.285  0.1445 -0.0418 -0.0353
11511W        W24925  15.836   7.814  11.669 -0.2040 -0.0698 -0.0276
11512W        W24926  11.747  15.661  13.682 -0.3169 -0.0082 -0.1825
11513W        W24927   3.173  12.426  14.312 -0.1608 -0.0935  0.0991
11514W        W24928   5.799  12.018   1.237  0.0214  0.1814  0.0644
11515W        W24929  10.038   9.936  13.745  0.0220 -0.2981 -0.1430
11516W        W24930  13.603  11.899  13.114 -0.1430  0.3831  0.1756
11517W        W24931  14.567  14.723   4.135 -0.1038 -0.3297 -0.0268
11518W        W24932  14.388  13.790  14.073  0.2945 -0.3293  0.3019
11519W        W24933   4.445   6.812   0.305 -0.1631  0.3164  0.0533
11520W        W24934  16.904   0.454   1.777 -0.4132 -0.2812 -0.0203
11521W        W24935   1.625  12.910  15.953 -0.0856  0.0240 -0.0182
11522W        W24936  12.225   8.463  11.041  0.3516  0.0319 -0.2658
11523W        W24937   5.756   0.439   1.030 -0.4083 -0.1243  0.1195
11524W        W24938   3.231   3.607   5.668 -0.0473 -0.0698  0.2693
11525W        W24939   4.725   7.924   5.701 -0.1152  0.0710  0.0611
11526W        W24940   5.598   9.488  13.555 -0.1620 -0.1462  0.1392
11527W        W24941   3.914  15.582  10.437  0.1819 -0.0928  0.3791
11528W        W24942  11.987  11.375  12.131  0.0136  0.2144  0.1189
11529W        W24943   7.887  13.496  11.824 -0.0044 -0.1075 -0.0754
11530W        W24944   8.999  17.638  14.674  0.0615  0.0671  0.1190
11531W        W24945  17.431   3.841   1.191 -0.0900  0.1056  0.0371
11532W        W24946  12.551  10.517   5.612 -0.3118 -0.2666  0.0323
11533W        W24947   4.875   6.631  15.722 -0.2744  0.0188  0.0080
11534W        W24948   6.730  16.958  12.574 -0.2119 -0.0946 -0.2946
11535W        W24949   0.219  14.000  12.675  0.2181 -0.0378 -0.2188
11536W        W24950   4.826  13.559   5.669  0.0232 -0.0481 -0.1446
11537W        W24951  11.804  10.311   3.299 -0.1935  0.0089 -0.0621
11538W        W24952   2.779   3.024   6.820 -0.0961  0.2437  0.1396
11539W        W24953   3.242  11.369   3.029 -0.0208  0.0972  0.1930
11540W        W24954  16.540   8.026  15.975  0.2826  0.2757  0.0457
11541W        W24955  16.558  12.660   0.786 -0.2653 -0.1548 -0.1387
11542W        W24956   9.400   5.190   3.289  0.0457 -0.0516  0.2431
11543W        W24957  16.362   0.682  16.513  0.0544 -0.0089  0.2584
11544W        W24958   3.020  15.111  13.336  0.2139  0.2733  0.2335
11545W        W24959   4.726   4.948  11.956 -0.0923  0.2197 -0.0980
11546W        W24960   5.233   6.166   5.471 -0.0253 -0.0845  0.3148
11547W        W24961  12.711   4.774  15.087 -0.0245 -0.2767 -0.2226
11548W        W24962   5.198  12.939   0.646  0.1243 -0.0260 -0.2405
11549W        W24963   5.192   2.510  15.060 -0.0772 -0.0731 -0.2370
11550W        W24964   7.209  16.635  15.344  0.1143 -0.1517  0.0098
11551W        W24965   0.887   9.344   5.805  0.0690  0.0150 -0.1088
11552W        W24966  11.958   6.050  10.173  0.2562 -0.1754  0.2200
11553W        W24967   4.832  10.811  12.632  0.1756 -0.1212  0.1318
11554W        W24968   6.570   3.306   9.955 -0.0144 -0.0589 -0.0749
11555W        W24969   1.226  11.277   2.263  0.0039  0.2457 -0.2193
11556W        W24970  16.596   9.160  13.289  0.3344  0.0505  0.1684
11557W        W24971  17.050   5.218  14.311 -0.2214  0.1209 -0.1088
11558W        W24972  12.786  10.804  11.984 -0.2135  0.0289  0.0052
11559W        W24973  13.042   8.753  15.936 -0.0338  0.4157 -0.1678
11560W        W24974  12.084  16.262   5.195 -0.1842 -0.0028  0.0685
11561W        W24975   0.946   8.834   2.448  0.1461  0.1989 -0.1624
11562W        W24976   0.589  11.614   0.997 -0.1586  0.1274  0.1217
11563W        W24977   0.126   7.309   1.099  0.0840 -0.0187  0.1450
11564W        W24978  14.729   9.606  14.046 -0.1663 -0.1884 -0.0031
11565W        W24979  13.147   2.462   3.440 -0.2612 -0.1043 -0.1389
11566W        W24980  15.756  10.877   2.695 -0.0854  0.0375 -0.1312
11567W        W24981  14.330   3.339   3.087  0.0872 -0.1218 -0.4821
11568W        W24982   3.085   6.085   4.211 -0.0993  0.1931  0.1385
11569W        W24983  15.066  15.950   2.530  0.0982 -0.1130 -0.0281
11570W        W24984   8.486   0.881   2.867  0.1771 -0.0316  0.1734
11571W        W24985   0.898  12.366  14.651  0.1469 -0.3756 -0.0213
11572W        W24986  10.327   6.540  11.582 -0.1626  0.0355  0.2403
11573W        W24987   6.237  13.205   4.642  0.1466  0.0199  0.2208
11574W        W24988   1.007   5.174  13.009  0.1586  0.0911 -0.0374
11575W        W24989  16.457  16.902   1.653  0.0968  0.1125 -0.0344
11576W        W24990   6.971  17.581   2.913 -0.3261 -0.3004 -0.0803
11577W        W24991  10.457  13.558   1.664  0.0549 -0.0814  0.1861
11578W        W24992  10.609  15.277  15.832  0.0832  0.0053  0.0480
11579W        W24993   0.289  15.829   5.170  0.0417 -0.1049 -0.1245
11580W        W24994  14.991  17.950  14.793 -0.3592  0.0035  0.0173
11581W        W24995  15.727   5.585  13.186  0.0424 -0.4172 -0.0496
11582W        W24996  16.924   9.888   1.754 -0.0958 -0.0152 -0.1902
11583W        W24997  12.093   4.133  14.554 -0.0329 -0.0311  0.0098
11584W        W24998  15.359  13.394  10.916 -0.1570  0.3196 -0.4772
11585W        W24999   9.028   2.355  13.291  0.5050 -0.2654  0.0458
11586W        W25000   6.956  16.649   2.765  0.0562  0.3463  0.1793
11587W        W25001   8.008  12.303   2.291 -0.2448 -0.0800  0.3712
11588W        W25002  11.312  16.991  16.403  0.0179 -0.1944 -0.0465
11589W        W25003   2.829   6.498   2.835 -0.0983 -0.0547 -0.0417
11590W        W25004   9.832   3.738  14.069  0.4012  0.0709 -0.1187
11591W        W25005  15.558   6.872   1.850 -0.2398  0.2325 -0.0389
11592W        W25006  15.816  16.507   1.467 -0.0216 -0.1152 -0.4518
11593W        W25007  13.394   3.128  13.578  0.1790  0.1668  0.0304
11594W        W25008   9.662  14.412   2.544  0.0541  0.2299 -0.0379
11595W        W25009   1.930  13.078  15.276  0.2270 -0.2408  0.3605
11596W        W25010  11.415   3.783  16.361  0.3530 -0.2858 -0.2155
11597W        W25011   5.420  16.496   3.600 -0.0234 -0.3501 -0.2648
11598W        W25012   7.316   9.398  14.225  0.3236  0.2148 -0.2087
11599W        W25013   8.301   4.725   1.105 -0.1761  0.3602  0.4206
11600W        W25014   1.325  15.136  15.471  0.2266 -0.0790  0.2372
11601W        W25015  18.049  10.558  11.512 -0.0819  0.1177  0.2258
11602W        W25016  13.116   6.253   4.917 -0.0144  0.2349  0.0563
11603W        W25017   8.031   0.811  15.239 -0.3610  0.0982 -0.1677
11604W        W25018   3.579   2.134   3.287 -0.0376  0.0543  0.3128
11605W        W25019  10.330  17.532  13.858  0.0116 -0.0399  0.0060
11606W        W25020   6.925   5.669  15.035  0.1379 -0.0437  0.0337
11607W        W25021   8.190   6.532   5.582  0.1608 -0.1870 -0.0372
11608W        W25022   1.691  10.427   1.221  0.1944 -0.0630 -0.0690
11609W        W25023  15.397   4.137  15.790  0.2112  0.0490 -0.2256
11610W        W25024   4.698   8.622   5.665  0.1911  0.0915 -0.0712
11611W        W25025   1.255  15.388  12.375  0.0244 -0.0252 -0.0912
11612W        W25026   6.108   5.378  10.273 -0.2648 -0.1353  0.2145
11613W        W25027   5.522   8.613  13.005 -0.0241 -0.4342 -0.0164
11614W        W25028   2.629   5.837   4.232  0.0845  0.0948  0.0100
11615W        W25029   4.105   3.359   1.295  0.0977  0.1372 -0.0321
11616W        W25030   4.559   1.661  14.736  0.1074  0.1615  0.0637
11617W        W25031  16.529   7.706  11.064  0.3266 -0.1499 -0.1412
11618W        W25032  13.434  14.639   1.055  0.1229 -0.1899 -0.0641
11619W        W25033   2.362   5.565  12.764  0.0216 -0.2726 -0.2228
11620W        W25034  12.498   4.303  11.215 -0.2338 -0.1319 -0.1655
11621W        W25035  13.782  12.073  11.644 -0.0370 -0.1024  0.0391
11622W        W25036  13.256  11.081   0.443 -0.1298 -0.0948  0.0407
11623W        W25037  13.510   6.171  15.628  0.4880  0.5468 -0.2380
11624W        W25038   6.667  15.445  15.612  0.0627  0.0736  0.1607
11625W        W25039   0.615  15.003   1.242 -0.0963  0.2043 -0.0491
11626W        W25040  16.796  14.639  11.209  0.2270 -0.1697  0.0237
11627W        W25041   0.150   6.398  12.752 -0.2169  0.3179 -0.4119
11628W        W25042  10.859  13.473  11.543 -0.2412  0.2370  0.2786
11629W        W25043  17.301   6.827   2.894 -0.2366 -0.4393  0.0907
11630W        W25044  11.638   6.847   0.736 -0.1998 -0.2224 -0.2093
11631W        W25045   8.656   2.552  10.824  0.0608 -0.1634 -0.0541
11632W        W25046   8.084   0.721   2.465  0.0632 -0.2913 -0.0366
11633W        W25047  12.524  10.300  12.501  0.1983  0.0304  0.1671
11634W        W25048  15.365   6.896   3.761  0.1156 -0.3619  0.1662
11635W        W25049  17.107  11.573  16.468  0.1339  0.2061 -0.0550
11636W        W25050   8.335   8.296  11.011 -0.0956  0.0127 -0.1453
11637W        W25051  16.947   7.693  11.388  0.6298  0.0715  0.2026
11638W        W25052   8.669   3.588   0.925 -0.0156 -0.0210 -0.1123
11639W        W25053  11.944   5.219   3.728 -0.2761  0.0834 -0.0618
11640W        W25054  16.179   7.315  14.407 -0.0568  0.1205 -0.1087
11641W        W25055   5.892  10.452  12.571  0.2855 -0.0909 -0.1713
11642W        W25056  15.812   8.506   0.868 -0.1766  0.0376 -0.0226
11643W        W25057  14.585   2.814  14.810  0.3632 -0.2043 -0.0410
11644W        W25058   3.820  17.680   4.518 -0.0934 -0.0133  0.1245
11645W        W25059  16.965   5.024   2.421 -0.0211  0.0318 -0.2260
11646W        W25060   0.143  14.630   0.470 -0.1635 -0.0020 -0.2899
11647W        W25061  12.134  14.873   1.627 -0.0728  0.1166  0.0098
11648W        W25062  18.027   0.679   5.403 -0.1945  0.0584 -0.3016
11649W        W25063   4.840   3.525   2.345  0.1427  0.2487 -0.2703
11650W        W25064  13.173   4.572   0.195 -0.2152 -0.0941  0.2726
11651W        W25065   4.211   8.769  15.682  0.2634 -0.1264  0.0257
11652W        W25066  16.994  10.801   0.210  0.1653  0.2279 -0.3105
11653W        W25067   4.125  14.937  15.122  0.0026  0.0247 -0.2209
11654W        W25068  10.885  10.741   5.091  0.1184  0.0989  0.2479
11655W        W25069  11.653  16.972   9.358 -0.0163 -0.2606  0.0250
11656W        W25070   0.365  14.099  13.856  0.2105  0.0518  0.0288
11657W        W25071  15.463   2.690   1.354  0.1855  0.3577  0.3357
11658W        W25072  13.591  16.134  11.211  0.0365  0.2606  0.1750
11659W        W25073  12.231   9.056  16.360  0.0959  0.1431 -0.1252
11660W        W25074  15.210   6.985  13.618  0.2518 -0.0496  0.1647
11661W        W25075   1.814  13.002  13.064 -0.1210 -0.1664  0.0283
11662W        W25076   7.859   1.120  10.779 -0.0462 -0.2263  0.4146
11663W        W25077   5.656   6.654   1.814 -0.0324 -0.0466  0.0311
11664W        W25078  14.893   7.614  15.384 -0.0691 -0.2776  0.1213
11665W        W25079  16.499   1.750  11.419 -0.2422 -0.1326 -0.2227
11666W        W25080   6.806   4.038   4.833 -0.2159  0.1838  0.1738
11667W        W25081  17.948  12.098   2.026 -0.2090 -0.1454 -0.1709
11668W        W25082   8.689   7.487   1.740 -0.1837  0.2033 -0.0520
11669W        W25083   1.936  14.483  15.379  0.0729  0.0757  0.0168
11670W        W25084  14.989   8.278  16.275 -0.1686  0.3516 -0.0365
11671W        W25085  13.353   4.934  11.047  0.2127  0.2783 -0.1890
11672W        W25086  16.489   0.265   1.973  0.0487  0.5101  0.1705
11673W        W25087  16.386   5.584  13.457  0.1940 -0.0472  0.2419
11674W        W25088  17.302   1.750   6.130 -0.2479 -0.0150  0.3129
11675W        W25089  15.571  12.106  14.932  0.0222  0.0186  0.1265
11676W        W25090   2.281   0.824   2.598  0.1543  0.3080  0.0596
11677W        W25091  11.087  11.549  10.458  0.0382  0.1251  0.2438
11678W        W25092   7.433   4.316   3.713 -0.1169  0.0493 -0.1322
11679W        W25093  16.397  15.814   3.094  0.2110  0.3849  0.3871
11680W        W25094   6.524  17.455   3.114  0.1693  0.2677  0.0916
11681W        W25095   9.779   5.227  14.427  0.0572  0.0509  0.0464
11682W        W25096   5.035  11.155  14.417  0.3922  0.2288 -0.0159
11683W        W25097  15.176  13.250  10.387  0.3699  0.0738  0.2822
11684W        W25098  13.040   4.754  13.352 -0.4486 -0.1796 -0.1184
11685W        W25099   4.064   4.332  11.898  0.1443 -0.2173 -0.0672
11686W        W25100  17.314  15.063   1.623 -0.1877 -0.1836 -0.1121
11687W        W25101   1.117   2.672  14.460  0.1378  0.0779 -0.0502
11688W        W25102   9.016   4.178   4.476 -0.2416  0.0055 -0.1888
11689W        W25103  15.720  18.093   3.037 -0.2812 -0.0606  0.1578
11690W        W25104  12.080   1.142   0.170 -0.0929 -0.1409  0.3170
11691W        W25105   8.623  16.715   0.023 -0.1722  0.1809 -0.2020
11692W        W25106  11.476  18.023   1.378 -0.1223 -0.0816  0.1840
11693W        W25107  14.157  12.087   4.951  0.0531  0.1537  0.0604
11694W        W25108   9.505   2.910  14.951 -0.1684 -0.1133 -0.1296
11695W        W25109   0.656  16.736   0.613  0.0030 -0.0328 -0.2057
11696W        W25110   4.933   5.132  10.926 -0.2192  0.0022 -0.1605
11697W        W25111  14.067  11.076   2.419 -0.0998 -0.0150 -0.0143
11698W        W25112  13.459   8.985  12.453 -0.2270 -0.0761  0.0648
11699W        W25113  13.772  10.523  14.772 -0.2575 -0.3007 -0.5994
11700W        W25114  11.264   0.750   2.989  0.2402  0.2060  0.3550
11701W        W25115   7.584  10.769   5.209 -0.3799  0.2108  0.0686
11702W        W25116  12.329  17.804   1.570  0.1981 -0.1035  0.2324
11703W        W25117   9.922  13.644  15.891 -0.2367 -0.3844  0.2062
11704W        W25118   1.648   2.339  15.109 -0.0230  0.2222  0.0328
11705W        W25119  18.036  11.744   0.511 -0.1403  0.1223 -0.3374
11706W        W25120  10.921  11.809   2.001  0.0143 -0.2026  0.1859
11707W        W25121  10.276  13.170  14.089  0.0374  0.0710  0.0934
11708W        W25122  15.271   8.849   1.473  0.0741  0.0099 -0.2523
11709W        W25123   3.991   5.794  14.075 -0.0119  0.0215 -0.2320
11710W        W25124   1.321  12.241  14.356  0.2500  0.2504  0.0696
11711W        W25125  12.518   2.426   0.116 -0.2423  0.2596  0.0224
11712W        W25126   8.634   1.559   5.303  0.0626 -0.0239  0.0300
11713W        W25127   9.036   4.664   1.961 -0.1011  0.0439 -0.0246
11714W        W25128  10.877   4.636   0.092  0.0324  0.2324 -0.4862
11715W        W25129   3.671   5.800  16.303  0.0424  0.1709 -0.0852
11716W        W25130   7.499   8.260   5.291  0.0174 -0.0514  0.0398
11717W        W25131   2.093   3.552  12.900  0.2845 -0.3584  0.1380
11718W        W25132   9.174   3.787   4.784  0.1762  0.2357 -0.1955
11719W        W25133  17.849   5.142  16.106 -0.2022  0.0177 -0.1453
11720W        W25134  13.086   6.477  13.796  0.0347 -0.0033 -0.0532
11721W        W25135   1.905  17.161  10.473 -0.1601  0.0399 -0.0949
11722W        W25136   9.188   6.773  16.393  0.0012  0.1118 -0.0314
11723W        W25137  14.372  17.504  16.091  0.2208 -0.2886 -0.2608
11724W        W25138   0.756   6.513   3.943 -0.2050  0.0644 -0.0593
11725W        W25139  12.623  15.698  13.041  0.2081  0.1208  0.0419
11726W        W25140   0.167  14.452   5.193 -0.1456 -0.1999 -0.1969
11727W        W25141   2.156   2.220  11.587 -0.3139 -0.1320 -0.1998
11728W        W25142  11.077   1.960  13.974 -0.2391  0.2926  0.1511
11729W        W25143  16.759  16.143  16.146 -0.1648  0.0928 -0.0430
11730W        W25144  14.713   0.865  11.027  0.3313 -0.1566 -0.2697
11731W        W25145   1.904  14.760   3.441  0.0411  0.0924  0.2755
11732W        W25146  17.937   2.286   2.584 -0.0149  0.1645 -0.0061
11733W        W25147  16.591   8.734  14.279  0.0256  0.1421  0.3584
11734W        W25148   8.501  12.274  14.413 -0.0062  0.3844  0.2440
11735W        W25149   8.295  13.996   2.905 -0.1007  0.0783  0.1350
11736W        W25150  11.340   6.737   2.025  0.1243 -0.3286  0.0016
11737W        W25151   7.956   8.471   1.321  0.3247  0.2508 -0.1636
11738W        W25152  12.257   9.164  14.045 -0.0910  0.1949  0.1903
11739W        W25153   2.024   1.866  13.153  0.0541  0.0582  0.1390
11740W        W25154  16.300   1.445  15.330  0.1710 -0.1312  0.3095
11741W        W25155   3.102   2.850  14.148  0.0852  0.0484  0.0831
11742W        W25156   3.111  15.416  12.045 -0.2215  0.2964  0.0911
11743W        W25157   1.818  14.180   2.747 -0.1301  0.2769 -0.1091
11744W        W25158  10.798   6.379   1.916 -0.1540  0.0350  0.1367
11745W        W25159  17.394   8.676   4.876 -0.3156  0.1170 -0.2531
11746W        W25160  14.027  17.816  13.308  0.1106  0.0094  0.1495
11747W        W25161  12.597  17.140   3.497  0.1095 -0.0167 -0.0067
11748W        W25162   5.959   0.897  10.450 -0.2846 -0.0141 -0.0814
11749W        W25163  11.794  17.121  13.482 -0.0315 -0.2193 -0.0109
11750W        W25164   4.142   3.513  10.603  0.0284 -0.0350 -0.0775
11751W        W25165  11.852  16.873  13.930  0.0484  0.0344 -0.1657
11752W        W25166   4.644   1.008   4.940 -0.1496  0.4028  0.3239
11753W        W25167  13.457   8.042   1.710 -0.1276 -0.2036 -0.1054
11754W        W25168   9.604   0.355  15.173 -0.1163  0.0265  0.1426
11755W        W25169  10.662   4.018   2.095 -0.2394  0.0846 -0.0642
11756W        W25170   9.651  13.025   1.568  0.2465 -0.0947  0.0051
11757W        W25171  10.882  15.210  13.253 -0.0425  0.0566  0.1510
11758W        W25172   5.284  16.879   9.864 -0.0781 -0.0665 -0.0084
11759W        W25173  11.398   8.625   6.283 -0.1157 -0.0998 -0.0075
11760W        W25174   3.151  14.105  10.666 -0.0504 -0.0512  0.1058
11761W        W25175   4.672   2.328   4.931 -0.0839  0.0084 -0.0033
11762W        W25176   8.960  17.299   4.204  0.0101  0.0315 -0.0842
11763W        W25177   9.272  17.015   9.657  0.0311 -0.2047  0.0117
11764W        W25178   5.863   9.766  15.168 -0.3432 -0.0169 -0.0583
11765W        W25179  16.890  15.383   1.351  0.2311 -0.0885  0.2620
11766W        W25180  10.962  12.257   2.208  0.0242  0.0590 -0.1515
11767W        W25181   4.358   1.441   2.746  0.1090  0.1595 -0.1558
11768W        W25182  16.068   3.719  15.383  0.0387 -0.1352  0.0373
11769W        W25183   3.194  10.085  12.632 -0.0569  0.1033  0.2209
11770W        W25184   3.286   5.579  12.225 -0.1815 -0.0790 -0.1099
11771W        W25185   1.182   8.373  11.921  0.2236  0.1122 -0.0520
11772W        W25186   8.347   7.970  16.055 -0.0739 -0.0710  0.0814
11773W        W25187   3.087   4.901  11.864 -0.0765 -0.0299 -0.1666
11774W        W25188  12.875   2.145  16.510  0.2566  0.0402 -0.0300
11775W        W25189  12.366   0.849  14.401 -0.0458 -0.0983  0.1548
11776W        W25190   6.214   4.763   4.152  0.0979 -0.3558  0.1616
11777W        W25191   6.477   1.997  15.989  0.1001 -0.1468  0.0901
11778W        W25192  10.447  13.203   5.433  0.2075 -0.2094 -0.0370
11779W        W25193   1.509   7.782  10.700  0.1098  0.1086 -0.0598
11780W        W25194   7.216   0.569  14.199  0.0548 -0.1942 -0.1988
11781W        W25195  17.712  15.743  12.394 -0.1248 -0.0092 -0.2400
11782W        W25196   1.352   1.987   4.441  0.0181 -0.3719 -0.0994
11783W        W25197   0.525   6.025   4.050  0.1630  0.0002 -0.3203
11784W        W25198  15.072  10.678   6.047  0.0462  0.2614 -0.0575
11785W        W25199   6.021   4.653   6.335  0.2396  0.2527  0.0037
11786W        W25200  11.488  12.147   0.131  0.0069 -0.2780 -0.1957
11787W        W25201  14.209  10.219  10.605  0.0758 -0.3170  0.0601
11788W        W25202  13.507  12.933   5.055 -0.1575  0.1375  0.0931
11789W        W25203   0.627   8.474   2.503  0.1975 -0.0254 -0.1821
11790W        W25204   3.253   8.113  14.962 -0.0951 -0.1046 -0.1371
11791W        W25205  11.566   9.757   2.434 -0.2459  0.4220 -0.0666
11792W        W25206  16.548   0.539  12.215 -0.0501 -0.0859 -0.2987
11793W        W25207   6.966  16.866  12.158 -0.3760  0.0020 -0.2147
11794W        W25208   4.974   2.842   3.458  0.0847  0.0061 -0.2372
11795W        W25209   4.741  17.629  15.018 -0.0739 -0.1537  0.0626
11796W        W25210  15.100  11.967   1.928 -0.1659 -0.1122  0.1193
11797W        W25211   8.647  12.859   0.659  0.2104 -0.0695  0.2193
11798W        W25212   5.286   7.776   5.615  0.1725  0.0238  0.1144
11799W        W25213   8.502   7.902   2.032  0.3197  0.2127  0.1234
11800W        W25214  14.871   0.710  12.314 -0.0259 -0.0607  0.1004
11801W        W25215  10.262  18.096   4.837 -0.2084  0.2132  0.0409
11802W        W25216  13.313   2.242   1.819 -0.0459  0.0232 -0.0533
11803W        W25217   0.945  10.314   0.877 -0.4866 -0.1492 -0.0294
11804W        W25218   8.174  14.907  14.106  0.1648  0.2318 -0.4988
11805W        W25219   3.328  12.626   2.045  0.0567  0.2416 -0.0539
11806W        W25220  15.933   5.969   0.686  0.0885 -0.0458 -0.2004
11807W        W25221   9.855   5.626   4.559  0.1430 -0.1133  0.0022
11808W        W25222  11.734   5.772  12.113  0.0932 -0.0645 -0.0416
11809W        W25223   9.176  16.962   3.093  0.0060  0.0604 -0.0301
11810W        W25224  11.986  14.374   0.039  0.0050  0.0202  0.1359
11811W        W25225  14.150   0.800  15.401  0.2430 -0.1897 -0.0870
11812W        W25226  11.193  12.650   1.209  0.0774  0.0418  0.1003
11813W        W25227   7.776   9.336   5.546 -0.1065 -0.1242 -0.0174
11814W        W25228   1.786   8.468   5.142  0.0876  0.1657  0.0528
11815W        W25229  12.965   9.591   6.424  0.2672 -0.0155  0.0790
11816W        W25230   9.029   9.444  14.095  0.0728  0.2120  0.0498
11817W        W25231  12.417   2.139  10.525  0.1849  0.2252 -0.2927
11818W        W25232  15.218  15.383   1.116 -0.1124  0.1346  0.0119
11819W        W25233  10.095  11.048  11.046  0.0270 -0.1787  0.2026
11820W        W25234  15.464   9.209  13.539  0.0765 -0.1739  0.2511
11821W        W25235   7.745   5.043  11.831  0.0032 -0.4027  0.0545
11822W        W25236  15.731  13.708   2.223  0.3845 -0.3149 -0.0253
11823W        W25237   2.864  14.981   3.056  0.1169 -0.4049 -0.4836
11824W        W25238  17.163  10.641   3.016  0.3309 -0.1074 -0.0163
11825W        W25239  13.402   5.311  16.186 -0.2787  0.0424 -0.0378
11826W        W25240  17.832  16.893  12.702 -0.0248 -0.0769 -0.3807
11827W        W25241  12.531  10.610   2.053  0.3016  0.0583 -0.4171
11828W        W25242   9.753   7.853   1.635 -0.1131  0.0966 -0.0690
11829W        W25243   7.369   8.645  13.310  0.0484 -0.1992 -0.0243
11830W        W25244  13.604   1.110   0.909 -0.0531 -0.2377 -0.0216
11831W        W25245  14.795   5.318   2.156  0.0802  0.3189  0.2753
11832W        W25246   4.974  17.301   2.536  0.4083  0.0617 -0.0190
11833W        W25247  17.009   3.513   0.183  0.3984  0.0547  0.1874
11834W        W25248   8.804  12.432  13.258 -0.1962 -0.3414 -0.0430
11835W        W25249   3.471   2.980   5.030 -0.1890 -0.0065 -0.1458
11836W        W25250   7.860   5.686   2.072 -0.0975  0.0408 -0.3827
11837W        W25251   8.653   8.222  13.501  0.0827  0.3379 -0.1987
11838W        W25252  11.309   0.387   1.268 -0.0102  0.0760  0.0907
11839W        W25253   3.109   6.708  12.659 -0.1306 -0.0437  0.3090
11840W        W25254  13.624   7.476   5.455  0.0147 -0.3069  0.0471
11841W        W25255   4.502  18.147  16.472 -0.2429  0.0423  0.1026
11842W        W25256   3.365   8.114   1.423  0.5957 -0.3378  0.0310
11843W        W25257   4.110  10.129   3.218  0.1682 -0.0010  0.2551
11844W        W25258  15.999   9.524  14.265  0.0486  0.2904 -0.4417
11845W        W25259  10.130  13.743  10.908 -0.3659 -0.0366  0.0795
11846W        W25260   6.322   0.192   2.915 -0.3429 -0.1898 -0.2736
11847W        W25261  16.298   5.152  10.745  0.0932  0.1788 -0.0967
11848W        W25262  11.571   8.642  12.877  0.3268 -0.1841  0.3505
11849W        W25263  10.074   4.204  14.159  0.5366  0.1756  0.2054
11850W        W25264  13.376   1.970   4.983 -0.1356  0.0903 -0.1528
11851W        W25265   9.424   1.406   0.193 -0.0019  0.2166 -0.1199
11852W        W25266  16.122  12.061  13.231 -0.1328  0.0683  0.0535
11853W        W25267  16.510  12.668   4.471  0.0753  0.1373 -0.2033
11854W        W25268   0.915  17.936  12.317 -0.0934  0.2876 -0.1980
11855W        W25269   0.049   6.459   2.360  0.3180 -0.0090  0.0892
11856W        W25270   0.147  12.927  14.604 -0.0517  0.1937  0.0188
11857W        W25271  13.888  15.351  13.700 -0.0712 -0.1280  0.1214
11858W        W25272   8.380   8.767  11.918  0.3289  0.2276  0.0881
11859W        W25273  16.256  11.525  13.197 -0.0786 -0.1624  0.0602
11860W        W25274  11.498  10.240  15.844  0.0479  0.0445  0.1147
11861W        W25275   2.943  10.510  16.146 -0.0169  0.1977  0.2633
11862W        W25276   4.824   3.450  12.994 -0.0814 -0.3312  0.3081
11863W        W25277   4.461  10.060   2.334 -0.0929 -0.0767 -0.0491
11864W        W25278   7.008  13.451  11.678  0.0147  0.1197 -0.2284
11865W        W25279   1.070  12.885   0.681 -0.1104 -0.0591 -0.1063
11866W        W25280  17.672  16.274  16.301 -0.1436 -0.1449 -0.3517
11867W        W25281   8.126   6.345   0.618  0.0825 -0.1867 -0.1204
11868W        W25282  10.931   7.907   6.106 -0.0861  0.3096  0.1917
11869W        W25283   9.492   1.791   9.294  0.3437 -0.0686  0.0191
11870W        W25284  17.340  14.909  16.208  0.0036 -0.1528 -0.1104
11871W        W25285   4.096   3.749  14.221 -0.1004  0.0150  0.0039
11872W        W25286   0.711   7.585   1.866 -0.1310  0.1666 -0.2549
11873W        W25287  13.296  10.816   6.505  0.3577 -0.1029  0.0448
11874W        W25288  15.413  11.602   5.898  0.2574  0.1390  0.0283
11875W        W25289   9.099  16.950  10.575  0.1117 -0.0017  0.2038
11876W        W25290   9.515  17.649  13.840  0.0047 -0.0039  0.2908
11877W        W25291  16.390  15.313  15.277  0.0580 -0.1052  0.1205
11878W        W25292   7.428   8.486  10.925  0.1373 -0.0364 -0.0586
11879W        W25293   3.271   2.594  13.185 -0.1137  0.0480  0.1379
11880W        W25294   2.125   1.445   0.347  0.3058 -0.0666 -0.3895
11881W        W25295  16.331   9.150  11.725 -0.2879  0.2880 -0.1402
11882W        W25296   4.055   9.755  12.944 -0.3637  0.2208 -0.3018
11883W        W25297   4.066   0.751   3.038  0.0912  0.3608  0.2822
11884W        W25298   0.393  12.113  12.038  0.1750  0.1602 -0.2113
11885W        W25299  10.526  17.546   4.217  0.0169  0.4168  0.2588
11886W        W25300   3.154   6.248   1.833 -0.0536  0.2354  0.1237
11887W        W25301  18.095  16.730  15.625 -0.2969  0.0730  0.2258
11888W        W25302  12.030   3.025  14.291  0.1365  0.0106  0.0719
11889W        W25303   3.048  13.562   2.402  0.0339 -0.1414  0.0997
11890W        W25304  11.072  12.578   5.921  0.1374 -0.3756 -0.0167
11891W        W25305  13.982   7.186   5.634  0.0836 -0.2169 -0.0245
11892W        W25306  14.630   3.588   5.532 -0.3044  0.1644 -0.0039
11893W        W25307   4.465  13.829   5.923 -0.0949  0.0178  0.3326
11894W        W25308   2.863   3.401  13.356 -0.0377 -0.3783 -0.0047
11895W        W25309   8.052   8.887  14.540  0.1002 -0.0072 -0.1944
11896W        W25310  16.900   1.536   2.147 -0.0683  0.3404  0.0084
11897W        W25311  10.167   4.929  15.586  0.0278  0.0559 -0.1263
11898W        W25312  17.363   4.734   3.769 -0.2802 -0.1276  0.0689
11899W        W25313  10.811   1.687   5.349 -0.2426  0.0819 -0.0842
11900W        W25314   3.271   0.976   5.200  0.0526 -0.1367  0.1004
11901W        W25315   1.991   5.852   0.171  0.1561  0.0611  0.3413
11902W        W25316  17.792   7.721  13.309  0.2854  0.1464  0.0609
11903W        W25317   9.865   8.459  15.734 -0.0160  0.0210 -0.1578
11904W        W25318  12.216  10.642  16.429  0.1524 -0.2250  0.0142
11905W        W25319  14.180  17.205  13.823 -0.0032 -0.0985  0.0127
11906W        W25320  11.097   0.356  13.450 -0.0852  0.0485  0.0876
11907W        W25321   4.005  11.659   2.894 -0.2659 -0.1039 -0.1516
11908W        W25322   1.450   5.527  14.698  0.3744  0.0701 -0.1632
11909W        W25323   5.618  11.733  13.133  0.0346 -0.0196  0.3076
11910W        W25324   7.278   0.564   4.073 -0.1830  0.3057 -0.1271
11911W        W25325   4.905   4.299   0.387 -0.1267  0.0119 -0.1371
11912W        W25326  14.599   7.049   5.981  0.3845  0.2086  0.0769
11913W        W25327  11.667  11.378  14.989  0.0598  0.3107 -0.1149
11914W        W25328   3.073   5.751   6.371 -0.2540  0.0667 -0.0989
11915W        W25329   8.711  10.728   1.644  0.1721 -0.2757  0.1367
11916W        W25330  18.206   4.174   3.475 -0.1927  0.1445  0.0610
11917W        W25331   2.984   1.904  11.880 -0.0924  0.2163 -0.0582
11918W        W25332   3.877   8.855  14.878 -0.0125 -0.3049  0.1802
11919W        W25333   6.762  11.680   3.343  0.2491  0.1978 -0.1213
11920W        W25334   4.394  15.092  11.846 -0.0227 -0.1374 -0.3862
11921W        W25335  16.323  11.598   0.200 -0.0275 -0.1472 -0.1093
11922W        W25336   3.891   2.328   2.898  0.1198 -0.1082 -0.1458
11923W        W25337  14.258  11.134   4.373  0.2820  0.0306 -0.1127
11924W        W25338   5.677  11.434   1.462 -0.0233 -0.1074  0.0740
11925W        W25339  10.681   8.324  15.177  0.1606 -0.0123 -0.2441
11926W        W25340   3.078   4.396  16.213  0.1449 -0.0708 -0.1067
11927W        W25341   5.662   7.797   0.492  0.1442 -0.1064 -0.2386
11928W        W25342   3.566  12.678   2.956 -0.0903 -0.2866  0.0248
11929W        W25343  10.021  17.496   2.452  0.0899  0.0539  0.0476
11930W        W25344  14.265   3.574   3.598 -0.1874 -0.0754  0.3641
11931W        W25345  13.969  10.516   0.602 -0.2370 -0.0543 -0.0499
11932W        W25346  15.661   4.862   5.823  0.1891 -0.1133  0.1480
11933W        W25347  10.967   9.702  16.513 -0.1035  0.3114 -0.4512
11934W        W25348  17.724   8.984   6.228  0.2482  0.3164 -0.0221
11935W        W25349   0.512   1.320  13.169 -0.0633  0.0707  0.0933
11936W        W25350  17.893  10.602   2.549  0.2435  0.1653 -0.1804
11937W        W25351   2.907   0.964  13.796 -0.2564 -0.0217  0.0298
11938W        W25352   3.516   0.901  10.062 -0.0851  0.0338 -0.1209
11939W        W25353  16.295  15.230  14.778 -0.2863 -0.2538 -0.0618
11940W        W25354   4.377   7.307   0.155  0.1191 -0.1706  0.1738
11941W        W25355   7.062   7.017   1.419 -0.2083 -0.3306 -0.1290
11942W        W25356   3.937  12.493  15.874 -0.1169  0.1659 -0.2505
11943W        W25357   9.883  10.172  15.750  0.1413 -0.2166 -0.0772
11944W        W25358   1.047   1.262  10.968 -0.3095 -0.1014  0.0137
11945W        W25359  11.240  13.342  16.414  0.0118  0.2298 -0.1093
11946W        W25360  13.518   3.371  11.844  0.1688  0.1987  0.0066
11947W        W25361  14.192  14.262  14.372 -0.2934 -0.1974  0.1829
11948W        W25362  14.299  15.698   1.512 -0.0923 -0.1230  0.0704
11949W        W25363   3.721   2.529   1.761  0.1616  0.1219  0.0771
11950W        W25364   9.125   8.892  15.287 -0.0560  0.1938 -0.2848
11951W        W25365  17.744   2.284  14.472  0.1100 -0.1311 -0.2957
11952W        W25366  12.060  18.143   2.918 -0.0959 -0.0518 -0.2646
11953W        W25367   4.869   0.418  11.443 -0.2379 -0.2575  0.0951
11954W        W25368   1.469   0.042  12.286 -0.0911 -0.2133  0.1234
11955W        W25369   6.607   2.652   5.218  0.1345 -0.1106  0.2311
11956W        W25370  17.681  15.764   4.254  0.0689  0.2764 -0.3451
11957W        W25371  11.006   8.746  16.004 -0.0429  0.0275  0.2998
11958W        W25372   8.819  14.196   0.152  0.0491 -0.1260 -0.4073
11959W        W25373   0.737   3.823   5.250  0.1417 -0.4639 -0.0042
11960W        W25374  10.693  17.848  12.783 -0.1154 -0.2580 -0.3010
11961W        W25375   3.031   8.719   3.490 -0.2915 -0.1124  0.0789
11962W        W25376  16.435  16.349  12.405  0.0054 -0.1598  0.0321
11963W        W25377   8.918  14.282   4.277  0.0697 -0.0791 -0.1365
11964W        W25378   8.524   8.649  13.915 -0.1114  0.2738  0.1922
11965W        W25379   9.884  13.836  11.658 -0.1957 -0.0211 -0.1499
11966W        W25380   6.051  11.660   2.646  0.1509  0.2003  0.0647
11967W        W25381   8.699   9.932   1.281 -0.1868  0.0263  0.0984
11968W        W25382  14.684  12.043   3.038  0.2298  0.3206  0.0921
11969W        W25383  12.088   9.027   2.731  0.1414  0.3399 -0.1492
11970W        W25384  16.321   9.182  12.818  0.0673  0.1449  0.0822
11971W        W25385   2.910  10.599  11.856 -0.1052  0.1940  0.2124
11972W        W25386   7.241  16.557  16.129  0.0417 -0.0603  0.0035
11973W        W25387  12.714   3.706  11.350 -0.0112  0.1954 -0.1228
11974W        W25388  14.185  12.440   0.581  0.3981 -0.1901  0.1732
11975W        W25389   4.409  11.855   4.357 -0.0216  0.0365 -0.0042
11976W        W25390  12.304   2.731  10.506  0.1266  0.0250  0.0170
11977W        W25391   5.432   8.821   4.232 -0.1791  0.0468  0.3697
11978W        W25392   4.074   2.472  12.539  0.1333  0.1027 -0.0125
11979W        W25393  10.294   3.209   2.236 -0.3055 -0.1005 -0.2093
11980W        W25394   8.970   2.533   3.346 -0.1082  0.1584  0.3917
11981W        W25395   1.365   0.446   1.985  0.0404 -0.1186  0.1124
11982W        W25396   0.504  15.943   1.393  0.0019 -0.0834 -0.0447
11983W        W25397   8.196  15.581   2.990 -0.1055 -0.0255 -0.2132
11984W        W25398  13.901  13.014   1.140  0.1992  0.1781  0.0388
11985W        W25399   7.712  13.179  15.286 -0.0927  0.1283 -0.0652
11986W        W25400   4.444   0.441  12.855 -0.0159 -0.4113 -0.0458
11987W        W25401  10.692   5.994  13.170 -0.0938 -0.0857 -0.0539
11988W        W25402   1.873   5.163  13.604 -0.0434  0.0558  0.0527
11989W        W25403   5.615  14.110  11.247 -0.1981 -0.0170 -0.1800
11990W        W25404   0.248   5.928   5.076 -0.1251 -0.0679 -0.2450
11991W        W25405   5.275   1.725   0.590 -0.2158 -0.2137 -0.0857
11992W        W25406  15.834   6.791   2.618 -0.0914  0.1710 -0.0373
11993W        W25407   9.069  14.436  10.868 -0.1031 -0.1087 -0.0443
11994W        W25408   3.609  17.205  15.945 -0.1390  0.0940 -0.1851
11995W        W25409   5.429   0.946  13.080  0.0629 -0.1118 -0.0138
11996W        W25410   0.880  10.694   2.868  0.1651 -0.1212  0.0577
11997W        W25411  10.238   3.795   2.891  0.2340  0.0495  0.1313
11998W        W25412   9.696   7.546  15.282 -0.0972 -0.0178  0.0973
11999W        W25413  11.728   7.467  15.571 -0.0320  0.1976 -0.0160
12000W        W25414  14.323  15.018   4.970 -0.0524  0.0340 -0.3180
12001W        W25415   8.101  16.160   0.623 -0.0003 -0.0500 -0.1000
12002W        W25416  15.818  14.877  14.201  0.0899 -0.2025 -0.0927
12003W        W25417   1.438  15.685   4.436 -0.0422  0.1666 -0.1257
12004W        W25418  15.412  14.357  12.748 -0.0275 -0.1843  0.0035
12005W        W25419  15.812   0.558   4.116  0.0787 -0.2108  0.1799
12006W        W25420  14.421   5.517   1.896  0.3016  0.0387  0.0238
12007W        W25421  14.871   4.348   0.988  0.1921 -0.1336 -0.1322
12008W        W25422   8.520   9.718   5.647 -0.2061 -0.3609 -0.0860
12009W        W25423   7.834   6.318   2.571  0.0888 -0.2881  0.0347
12010W        W25424  13.293   1.770   2.042 -0.0459 -0.0318  0.4188
12011W        W25425  10.135   1.888  15.338  0.0589 -0.1278  0.1349
12012W        W25426   2.294  16.901  11.638 -0.0168  0.1631 -0.0722
12013W        W25427   6.784   3.728  11.384 -0.0468 -0.1808  0.0319
12014W        W25428  13.116  12.244  14.132 -0.1650 -0.1139  0.1217
12015W        W25429  17.995  14.715   2.010 -0.1371  0.0351 -0.1528
12016W        W25430   6.560  15.139   0.874  0.0900  0.4878  0.1159
12017W        W25431  18.130  15.516   2.742  0.0160  0.0983  0.0404
12018W        W25432   4.800   7.001   1.332  0.1037  0.0624 -0.0595
12019W        W25433   4.994   7.654  15.925  0.1777  0.2187 -0.0850
12020W        W25434  11.188   2.305   9.934  0.1681 -0.0787 -0.1004
12021W        W25435  12.926  17.651  13.877  0.0147 -0.0257 -0.0817
12022W        W25436   1.555   9.764  12.297 -0.1507 -0.1085 -0.0184
12023W        W25437   4.136   4.465   1.673 -0.1851  0.1673  0.2194
12024W        W25438   3.251   5.318   2.581  0.1955 -0.1323  0.2383
12025W        W25439   4.691  17.608   1.758  0.1604 -0.1120 -0.3426
12026W        W25440   8.054  16.779  13.200  0.2200 -0.0407 -0.1398
12027W        W25441  16.079  13.056  11.399 -0.0456 -0.4246 -0.0619
12028W        W25442   7.509  12.850   5.674  0.1189  0.1677 -0.2812
12029W        W25443  13.746   4.972  10.547  0.0379  0.0048 -0.0038
12030W        W25444  11.173   2.860  13.298  0.0656  0.3338  0.1029
12031W        W25445   6.140   1.816   4.504  0.0035 -0.2494 -0.0245
12032W        W25446  17.666   2.353  13.091 -0.2838 -0.1880 -0.0603
12033W        W25447  16.928   4.071  15.831 -0.1758 -0.1448  0.4044
12034W        W25448   5.094   3.849  11.562 -0.2327 -0.0075 -0.0661
12035W        W25449  16.231   1.149  15.777  0.1506  0.0465 -0.4812
12036W        W25450   2.629  15.998   3.744 -0.1454  0.2855  0.1934
12037W        W25451   0.055   5.861  16.118 -0.1445  0.3726  0.4388
12038W        W25452   5.985   0.263  11.277  0.0743 -0.0157  0.3191
12039W        W25453   9.116  16.493   1.870  0.4590 -0.0480 -0.0166
12040W        W25454  12.916   7.170  12.198 -0.1212  0.0307 -0.0860
12041W        W25455  14.943   7.106  15.150  0.0894  0.2192  0.0216
12042W        W25456  11.613  15.146   4.635 -0.0092 -0.0197 -0.1856
12043W        W25457   3.268   4.222   4.615 -0.0399  0.1187  0.1729
12044W        W25458  17.065  12.632   4.159 -0.0204  0.2028 -0.0673
12045W        W25459  11.861  14.159  11.396  0.5282  0.0993 -0.1121
12046W        W25460   1.080  17.920   2.197  0.0101  0.1760  0.1088
12047W        W25461  10.170   1.117  13.406 -0.1099 -0.3220 -0.1423
12048W        W25462   0.575  13.431   3.117  0.2342 -0.1255 -0.0563
12049W        W25463  10.474   5.237   4.642  0.1429 -0.1062  0.1636
12050W        W25464  13.460   0.144  10.885  0.0656 -0.1471  0.1459
12051W        W25465   5.223   1.980  10.308  0.0695 -0.2952 -0.0930
12052W        W25466   8.895   7.734  12.062 -0.1110 -0.2886 -0.1601
12053W        W25467   5.197   2.832   5.466  0.0546  0.0187 -0.1183
12054W        W25468   3.126  13.286   4.263 -0.0963 -0.0220  0.1452
12055W        W25469  14.499  13.074  11.934  0.0285  0.2559  0.3952
12056W        W25470   4.989  16.712  16.079  0.0613  0.0426 -0.1806
12057W        W25471   4.622  18.200  11.406 -0.0509 -0.1629 -0.0494
12058W        W25472  18.205  13.745  14.668  0.0529  0.0934 -0.1291
12059W        W25473  17.916  14.135  14.448 -0.1094  0.3028  0.0591
12060W        W25474   4.161  11.721  16.345 -0.0813 -0.1955 -0.0075
12061W        W25475   5.133   1.275   0.879  0.0275  0.0352 -0.0919
12062W        W25476   0.949   5.398  14.749  0.2519 -0.0736  0.1946
12063W        W25477   5.256  11.647  16.248 -0.0261  0.2343 -0.0896
12064W        W25478  11.932   0.492  13.841  0.1297 -0.1260  0.0655
12065W        W25479   0.241  14.863  14.364 -0.1630  0.0464 -0.0608
12066W        W25480   3.551   7.330   0.230 -0.0504 -0.0321 -0.2496
12067W        W25481   2.009  12.709   3.001 -0.4351  0.1891 -0.3565
12068W        W25482  13.496  13.437  15.584 -0.2273 -0.1292  0.0262
12069W        W25483   3.276   6.560   3.089 -0.2393  0.1788  0.3129
12070W        W25484  11.746   5.547  15.444  0.2197 -0.3839  0.0283
12071W        W25485   6.294   9.691   1.217 -0.1487  0.4498 -0.0365
12072W        W25486   9.950   1.320   2.928  0.1345  0.3592 -0.2661
12073W        W25487   7.083  11.981  14.762 -0.2092  0.3875 -0.0242
12074W        W25488  14.502   0.899   2.588 -0.2501  0.1894 -0.0236
12075W        W25489   6.725   1.670  12.092 -0.0176 -0.0191 -0.2194
12076W        W25490  17.291   9.788   3.957 -0.0970  0.0591 -0.1112
12077W        W25491   3.415  10.620   6.845  0.1640 -0.0155 -0.2157
12078W        W25492   0.309  17.553   1.747  0.3776  0.0100 -0.3898
12079W        W25493  13.386   4.815   5.100  0.0185  0.0538 -0.0568
12080W        W25494   8.243  14.521   0.113 -0.0681 -0.0444 -0.1912
12081W        W25495   6.943  11.810  13.812 -0.1354 -0.1536  0.0937
12082W        W25496   0.347   9.211   0.561 -0.0185  0.0400  0.0582
12083W        W25497   2.375  15.252  15.582  0.2029 -0.1391 -0.1061
12084W        W25498  12.720  13.670   5.437  0.3939  0.0044 -0.0128
12085W        W25499  11.652  16.684   3.820  0.0331  0.2918 -0.3995
12086W        W25500   4.485  13.233  12.374 -0.1579 -0.1127  0.2890
12087W        W25501   7.928  14.344   2.781  0.1634 -0.4541  0.2465
12088W        W25502  10.907   6.446   4.984 -0.0270  0.0666  0.3275
12089W        W25503  14.111   0.719  14.134  0.0442  0.0379 -0.1515
12090W        W25504  15.923   6.178  13.785 -0.2096  0.3694  0.2124
12091W        W25505  12.309   8.455   6.060 -0.2713  0.0869  0.0226
12092W        W25506   2.608   8.609   2.650 -0.0463  0.0180  0.1393
12093W        W25507   6.481  11.757  10.517 -0.2153 -0.0049  0.2311
12094W        W25508  10.471  12.734   4.216 -0.0210  0.2913 -0.0012
12095W        W25509   8.864   1.128  13.119 -0.0209  0.0099 -0.0352
12096W        W25510  15.048   6.712  16.500 -0.0152 -0.1793  0.2339
12097W        W25511  12.249  11.640   5.196 -0.0061  0.2317  0.1918
12098W        W25512   2.309   9.297   1.445 -0.0431  0.3883 -0.0729
12099W        W25513  15.603   2.582  15.635 -0.2189  0.0155  0.0085
12100W        W25514  15.220  16.923   2.056  0.0508  0.3174  0.0464
12101W        W25515   6.705  10.279  11.503  0.0684 -0.0291  0.2709
12102W        W25516  15.306   0.911  11.848 -0.1192  0.0891  0.1396
12103W        W25517   6.743   2.990  14.873 -0.1822 -0.1496  0.0352
12104W        W25518   9.824  15.635  16.339  0.1822 -0.5454 -0.0973
12105W        W25519   0.870   3.906  13.165 -0.3315  0.1209 -0.2313
12106W        W25520   6.492  12.405  11.268 -0.2202 -0.0042 -0.1581
12107W        W25521   5.339   2.769   1.184  0.0301  0.2259  0.2249
12108W        W25522   9.049   2.764  10.554 -0.2063  0.1754  0.1193
12109W        W25523   5.303  10.950   1.676 -0.1090 -0.4854 -0.3662
12110W        W25524  16.040   4.249  12.520  0.1212  0.1181  0.2562
12111W        W25525   7.063  10.639   5.175  0.0356 -0.3661  0.0819
12112W        W25526   6.207  15.260  10.246 -0.0122  0.0100 -0.2185
12113W        W25527   0.481  17.072   1.780 -0.0072 -0.3975  0.1339
12114W        W25528   7.244  12.460  11.884  0.0785 -0.0193  0.0770
12115W        W25529   8.725  14.646  14.176 -0.2285  0.1389 -0.0111
12116W        W25530   5.025  16.107  10.468 -0.2120 -0.2193 -0.1090
12117W        W25531  11.393   8.922  16.337  0.1368  0.0449  0.0923
12118W        W25532  12.863   4.456   5.572 -0.0301  0.0340 -0.1889
12119W        W25533  16.756   1.827  12.249 -0.0299  0.2508 -0.0628
12120W        W25534   3.056   0.559   3.785 -0.2193 -0.0693 -0.2417
12121W        W25535   0.017  15.419   2.052  0.1523 -0.1604 -0.0597
12122W        W25536  11.608  17.117  11.245  0.1699 -0.1734 -0.0959
12123W        W25537   9.267   2.771  10.971  0.1140 -0.3659 -0.0654
12124W        W25538   5.855  11.221  11.186  0.3246  0.0462  0.1676
12125W        W25539  16.112  10.982   4.508 -0.2246  0.2667 -0.1149
12126W        W25540  13.618   5.205  13.014  0.0871 -0.0530 -0.0342
12127W        W25541   1.884   7.994   4.954 -0.0466  0.1328 -0.0335
12128W        W25542  10.051   7.650   0.918  0.0580 -0.1691 -0.0222
12129W        W25543   0.510   0.285   1.761  0.0289 -0.1968  0.0770
12130W        W25544  12.602  12.237  12.034 -0.0084 -0.2504 -0.1629
12131W        W25545   4.590  11.250  12.563 -0.1279 -0.2323 -0.0719
12132W        W25546   1.533  17.525   4.510 -0.0453 -0.3224 -0.0778
12133W        W25547  16.785  15.398  13.357  0.1481 -0.4302  0.0905
12134W        W25548  15.509   1.733  10.458 -0.1727 -0.1645 -0.3480
12135W        W25549  12.706   9.284   1.912 -0.2291 -0.0832 -0.1975
12136W        W25550  12.587   4.814  14.558  0.1979  0.0475  0.0969
12137W        W25551  13.568   3.345  14.255 -0.0660  0.0127  0.2774
12138W        W25552  16.962   7.061   1.646  0.1742 -0.2865  0.2047
12139W        W25553  17.823  17.984   4.401  0.2239  0.1153 -0.1364
12140W        W25554   5.694   3.762   4.201 -0.3627 -0.1741  0.0963
12141W        W25555   1.878  16.101   4.438 -0.0737  0.4305  0.3134
12142W        W25556  13.157   9.386   3.530  0.2024  0.0341  0.1434
12143W        W25557  17.066  12.475  12.033  0.0705 -0.0768 -0.0362
12144W        W25558   9.849  17.643   9.816  0.1587  0.2086  0.2872
12145W        W25559   2.906  10.813  13.423 -0.3115 -0.0100  0.0047
12146W        W25560   2.774  14.955   0.267  0.1302  0.1173 -0.0326
12147W        W25561   5.848   8.359  12.802 -0.0145  0.0773  0.1069
12148W        W25562   9.724   2.490   5.235  0.0031  0.2620  0.2435
12149W        W25563  10.068  10.991   1.470 -0.1404 -0.0418  0.0648
12150W        W25564   7.348   5.427  12.576  0.0216 -0.0454  0.2441
12151W        W25565   3.822   7.255  14.990 -0.0412  0.0452  0.1598
12152W        W25566  11.867  11.806  13.904  0.2351 -0.1262  0.0974
12153W        W25567  12.678  17.204  15.164 -0.0594  0.3287 -0.1519
12154W        W25568  13.366   6.376  14.731  0.3818 -0.1727  0.0958
12155W        W25569  18.087  14.181   4.870 -0.0038 -0.0299  0.2333
12156W        W25570   3.437   1.328   2.737  0.1295  0.2418  0.0191
12157W        W25571   1.255   9.381  16.488  0.6141 -0.1082  0.1738
12158W        W25572   2.441   7.686   2.293 -0.3222  0.2204  0.0541
12159W        W25573   0.320   9.790   2.470 -0.1564  0.0481  0.0909
12160W        W25574   7.253  14.720  16.489  0.1798 -0.1888 -0.0957
12161W        W25575  14.313  10.733   5.473 -0.0915  0.3609 -0.0125
12162W        W25576   6.331  12.600   3.356 -0.2736 -0.3047 -0.2583
12163W        W25577   8.183   5.175   5.455  0.2246  0.1570  0.0747
12164W        W25578  10.659   7.151  15.248 -0.0056  0.0192  0.1612
12165W        W25579   3.627  11.268   4.466  0.1339 -0.0861 -0.0539
12166W        W25580   8.373   2.531  15.773  0.0024  0.1946  0.0223
12167W        W25581   7.748  12.959   4.691 -0.0002  0.1986  0.0065
12168W        W25582   6.408   2.995   1.614 -0.0347  0.0578 -0.1547
12169W        W25583  17.477  13.989   2.622  0.1907  0.2196 -0.0203
12170W        W25584  14.787   0.691   0.326 -0.6624  0.2308 -0.0476
12171W        W25585  14.380   9.085  16.125  0.0676 -0.1678  0.2129
12172W        W25586   9.682   8.147  10.878  0.3685 -0.2162 -0.1553
12173W        W25587   5.660   4.447  12.334 -0.4952  0.0651 -0.0962
12174W        W25588   0.814   6.225  14.910 -0.1173 -0.2709  0.0935
12175W        W25589   1.520  15.416   4.855  0.0917 -0.1474 -0.3679
12176W        W25590   9.354   5.071  13.430 -0.4218 -0.0060  0.3356
12177W        W25591   5.107   4.227   1.738 -0.1375  0.0577  0.0304
12178W        W25592   2.702  15.852   1.198  0.1890 -0.2065  0.2601
12179W        W25593   6.479  15.094  11.281 -0.0889 -0.3268  0.3122
12180W        W25594   9.739   1.997  13.863 -0.3373 -0.2680  0.1481
12181W        W25595   4.297   7.779  11.914  0.0167  0.1275  0.1192
12182W        W25596   1.621  17.681   3.393 -0.0188 -0.2629 -0.0858
12183W        W25597  13.052  16.931   0.434 -0.1577 -0.1329  0.0333
12184W        W25598   7.224  17.908  13.580  0.1055  0.1567  0.0299
12185W        W25599   1.686   6.199  14.024 -0.0931  0.2963 -0.0370
12186W        W25600  15.020   3.114   1.284 -0.3623  0.1041  0.0634
12187W        W25601  12.839   9.429  12.203 -0.1157 -0.1488  0.0975
12188W        W25602  13.388  15.623  13.042  0.0175  0.3605  0.1469
12189W        W25603  10.879  14.385  10.826  0.4148 -0.1789  0.2587
12190W        W25604   0.246  12.260  10.808  0.2834 -0.0992  0.0103
12191W        W25605   6.525   6.423   1.551  0.3700 -0.0016  0.0135
12192W        W25606  17.309  11.381   5.711  0.0704 -0.4507  0.0864
12193W        W25607   9.154  10.587   1.476  0.1810 -0.0448  0.0655
12194W        W25608   0.429  17.565  14.160 -0.3705 -0.3460  0.1886
12195W        W25609   1.822  11.840   4.760  0.1597  0.0834  0.0963
12196W        W25610   1.370  11.676  11.033 -0.3419 -0.0594  0.2463
12197W        W25611   8.796  15.908  12.939  0.1765  0.0931  0.0343
12198W        W25612  10.642   8.540  13.750  0.2790  0.1260 -0.1438
12199W        W25613   2.397   8.172  11.573 -0.0123 -0.1485  0.2900
12200W        W25614   2.878   3.554   4.085 -0.0819  0.1682  0.2578
12201W        W25615  14.394  10.571   1.774  0.1738 -0.1357  0.3234
12202W        W25616   6.538  13.173  14.654  0.1645 -0.4271  0.1539
12203W        W25617  17.548   3.708  14.287 -0.2366  0.0101  0.0394
12204W        W25618   6.153  13.291   0.542  0.0284  0.1452 -0.2440
12205W        W25619  13.264   2.640  14.238  0.1012 -0.1208 -0.0540
12206W        W25620   9.889   3.013   4.938  0.1877 -0.0197  0.1781
12207W        W25621  16.090  17.445  15.712 -0.0297  0.4128  0.4314
12208W        W25622  13.921   0.625   0.044  0.0264  0.0140 -0.0137
12209W        W25623   2.969   0.692   0.989 -0.2039 -0.1555  0.0713
12210W        W25624   5.396   2.053   4.918 -0.0717 -0.4417 -0.0928
12211W        W25625  16.104   8.947   1.048 -0.1443  0.1353  0.2883
12212W        W25626   1.489  13.471   5.506  0.0877  0.0267 -0.0944
12213W        W25627   5.411  11.952  13.962 -0.2963 -0.1333 -0.3337
12214W        W25628  14.170   7.044  12.611  0.0954  0.3584 -0.0344
12215W        W25629  12.360  16.652  13.719 -0.0438 -0.1661  0.1847
12216W        W25630   3.250   0.956   2.431 -0.2934 -0.1440  0.0312
12217W        W25631   5.110  13.683  16.478 -0.1602  0.3669  0.0437
12218W        W25632  15.225   4.496   5.493  0.2578  0.1771  0.0362
12219W        W25633   0.179   5.489  13.266 -0.2933 -0.0398 -0.1379
12220W        W25634  17.349   0.098   2.153 -0.1260  0.2071  0.1849
12221W        W25635  11.760  13.343   5.010  0.1510 -0.0974 -0.3810
12222W        W25636   6.188   4.227   5.381  0.0331 -0.3316  0.0473
12223W        W25637  14.847   1.760   0.464  0.2353  0.1953 -0.0252
12224W        W25638  12.795   9.577  12.732  0.0021  0.2641  0.1227
12225W        W25639  15.078  14.141   3.310  0.1972 -0.2277 -0.0296
12226W        W25640  10.431  16.537   3.334  0.1275 -0.0580 -0.0165
12227W        W25641   3.674  12.236  14.510  0.0200  0.1933 -0.0455
12228W        W25642   0.964  10.401   1.365 -0.1583  0.1164  0.0450
12229W        W25643   5.648   2.094   4.482  0.2088  0.3543  0.2773
12230W        W25644  13.684   6.533   2.592  0.0598  0.2647  0.0390
12231W        W25645  10.584   8.123   6.578 -0.2705 -0.0860  0.2995
12232W        W25646  16.158  17.559  10.951  0.0712 -0.2868  0.0611
12233W        W25647   5.906  12.287  13.140 -0.2850  0.0360  0.0937
12234W        W25648   3.281  16.200   2.666  0.0795  0.1430  0.0931
12235W        W25649  13.096   8.277  14.717 -0.0251 -0.1482  0.0864
12236W        W25650   7.326   4.822  16.332 -0.0043 -0.2470  0.2697
12237W        W25651  17.728  10.464  13.739 -0.3107 -0.0005  0.2207
12238W        W25652  17.804  15.867  15.928 -0.1224  0.0459 -0.1416
12239W        W25653   2.930   4.599  14.248  0.0937  0.2468 -0.0641
12240W        W25654  10.603   7.352   6.946  0.0200 -0.0106 -0.2002
12241W        W25655   8.107  16.364   3.603  0.0919 -0.1729  0.2749
12242W        W25656   5.190  10.512  12.536  0.0648  0.2382  0.1105
12243W        W25657   7.834   3.090  11.088 -0.1179 -0.2563 -0.2355
12244W        W25658  11.186  10.605   2.405 -0.1334  0.2792 -0.1039
12245W        W25659  12.142   4.966  14.721  0.2022 -0.0041  0.1060
12246W        W25660   8.130   8.990   5.405  0.0015  0.0629 -0.1134
12247W        W25661   6.775   1.732   0.302  0.1646 -0.1622 -0.1440
12248W        W25662   3.727  11.212   6.245 -0.0346  0.3510  0.0233
12249W        W25663   3.000  12.266  10.944  0.1773  0.2302  0.4592
12250W        W25664  14.779   7.178   3.369  0.0132  0.0646 -0.4745
12251W        W25665  10.241  13.912   4.834  0.0205 -0.0917  0.0250
12252W        W25666   5.023  12.497   2.824 -0.0607 -0.0264 -0.0265
12253W        W25667  11.114   5.986  10.306 -0.0220  0.1690 -0.1533
12254W        W25668   6.463   7.521  12.890 -0.0701  0.1225  0.1994
12255W        W25669  11.864  15.049  11.960  0.0985 -0.0505  0.1296
12256W        W25670   3.592   8.066  13.940  0.0530  0.0153 -0.1941
12257W        W25671  18.204  14.355  13.598 -0.3112 -0.0602 -0.2419
12258W        W25672   9.155  10.038  15.516  0.1489  0.0161  0.0029
12259W        W25673  11.989  17.981  12.179 -0.1203 -0.1851  0.2873
12260W        W25674   8.573   5.732   2.908 -0.0542 -0.0072  0.0011
12261W        W25675   5.214   3.664   1.640 -0.1789 -0.1052 -0.0263
12262W        W25676  16.366   2.551  12.022 -0.4248 -0.1485 -0.0776
12263W        W25677  17.632   1.585  15.437  0.0960 -0.0248  0.0877
12264W        W25678   0.766  13.302  13.646 -0.0026  0.2850 -0.0666
12265W        W25679   5.593   0.540   4.554  0.0660 -0.1247  0.2387
12266W        W25680   2.512   4.673  12.286  0.0096 -0.0583  0.0675
12267W        W25681  12.444   2.590   2.735 -0.2433  0.0884 -0.1310
12268W        W25682  13.449  13.133   2.137  0.0280  0.1977 -0.1573
12269W        W25683   8.441   8.390   2.084  0.1113  0.0019  0.0430
12270W        W25684   3.910   7.641  13.923 -0.0169 -0.1378 -0.2627
12271W        W25685  15.970   9.239  13.168  0.0299 -0.0197  0.1414
12272W        W25686  17.206  15.773   1.085 -0.0427 -0.3444 -0.0329
12273W        W25687   7.119   5.361  15.504  0.0704 -0.1123 -0.3030
12274W        W25688  13.363   8.645  12.873 -0.2341  0.2639  0.2929
12275W        W25689   5.395  10.111   2.099 -0.1246  0.0773  0.1140
12276W        W25690  14.747   0.146  11.042  0.0586 -0.1064 -0.2776
12277W        W25691  16.858  16.620   4.617 -0.0188 -0.2414  0.2172
12278W        W25692   3.315   9.985   5.079  0.2488  0.0302  0.0995
12279W        W25693  12.426   6.550  13.092  0.1628  0.1221  0.1412
12280W        W25694  10.706  12.155  10.477  0.1551 -0.2483 -0.2286
12281W        W25695  13.839   5.485   4.137  0.4141 -0.1737 -0.0001
12282W        W25696  17.121  16.757   2.834 -0.2247 -0.0424 -0.2981
12283W        W25697  17.254  12.023   1.814 -0.0988  0.1035  0.1295
12284W        W25698   3.884  15.101   5.134 -0.1364  0.1521  0.0426
12285W        W25699  17.304  13.029  12.014  0.1916 -0.1857 -0.0132
12286W        W25700   4.491   7.173   1.757 -0.0083 -0.0823  0.1645
12287W        W25701   8.946   2.784   0.831  0.0230 -0.0647  0.3796
12288W        W25702  16.376  10.019   2.953  0.0622  0.1380  0.1158
12289W        W25703   1.274   5.405  12.553 -0.0195  0.1174  0.2080
12290W        W25704   4.490   8.105  14.698  0.0013 -0.1239 -0.2942
12291W        W25705  11.055  16.942  12.770 -0.0673  0.3137 -0.2090
12292W        W25706   0.892   8.624   4.138  0.0803 -0.3538  0.0423
12293W        W25707  17.099   8.726  11.900  0.2756 -0.0295 -0.2049
12294W        W25708   6.599  13.157   3.614  0.1460  0.1803  0.2797
12295W        W25709  13.343   6.043  13.658  0.1211 -0.1288  0.1130
12296W        W25710   0.320  17.521  16.208  0.1686  0.0654  0.0572
12297W        W25711   1.415   8.833  14.138  0.1175 -0.0164 -0.0182
12298W        W25712  15.837  15.949  10.409  0.3448  0.1288 -0.0233
12299W        W25713  17.933   4.633  15.794 -0.2372 -0.1618 -0.0021
12300W        W25714  17.716  10.395  10.821  0.1039 -0.3169 -0.1491
12301W        W25715  17.831  11.827  13.134 -0.0263 -0.2657 -0.2470
12302W        W25716   0.894   4.890  16.118  0.0404 -0.0715 -0.0361
12303W        W25717   9.116  11.576   1.892  0.1688  0.1406  0.0903
12304W        W25718  11.088  14.920   1.501 -0.0030  0.1923  0.1270
12305W        W25719  10.158  10.059   1.460 -0.0294 -0.1518 -0.0255
12306W        W25720  12.075   2.491  11.472  0.0397  0.2118 -0.1698
12307W        W25721  14.444  12.629  12.133  0.1345  0.2410  0.0739
12308W        W25722  12.293  17.185  11.825  0.1011 -0.0242  0.0361
12309W        W25723   2.767  11.565  10.352  0.2378 -0.4541 -0.1313
12310W        W25724  14.543  11.379  15.313  0.3179  0.0281  0.0704
12311W        W25725  14.806   6.790  15.504  0.0262  0.0675 -0.0017
12312W        W25726  16.235  18.147   3.678  0.2448 -0.2287 -0.1323
12313W        W25727  15.840   8.342   2.382 -0.1848 -0.1107  0.1249
12314W        W25728   7.382  14.253  15.282  0.5574  0.1983  0.3763
12315W        W25729   8.653  10.081   2.566 -0.0155 -0.0585  0.0632
12316W        W25730   7.696  13.415  16.475  0.1820 -0.0666  0.0914
12317W        W25731  14.428  12.123   2.614 -0.2457 -0.2361 -0.0377
12318W        W25732  10.726   7.968   5.644 -0.1311  0.4480 -0.1849
12319W        W25733  10.553   2.314   3.225 -0.1067 -0.2323  0.0207
12320W        W25734   8.911   3.286  12.785  0.0555 -0.1138 -0.4428
12321W        W25735  14.098   7.622  15.242 -0.3192 -0.0888  0.1802
12322W        W25736   4.545  16.239  15.254 -0.0608  0.0217 -0.0390
12323W        W25737  12.215   9.985  15.986  0.0546  0.0998 -0.1252
12324W        W25738   8.541  12.547   1.546 -0.0212 -0.1098  0.0962
12325W        W25739  12.416  13.301  11.744 -0.2402 -0.0662 -0.0960
12326W        W25740  13.050   9.638   5.635 -0.0923  0.0148 -0.4017
12327W        W25741  18.113  17.626  16.512 -0.0125  0.2001 -0.0194
12328W        W25742   7.719  14.478  12.820 -0.1115  0.2725  0.2215
12329W        W25743  17.544   5.228  11.619  0.3385  0.5505  0.3096
12330W        W25744   7.213   0.504   2.687 -0.2385 -0.1325  0.1423
12331W        W25745   8.652  12.056   1.382  0.0751 -0.1626 -0.1294
12332W        W25746   9.717   1.392  11.314  0.2569 -0.0198  0.4509
12333W        W25747   3.578   4.297   4.221 -0.2282 -0.0545 -0.1799
12334W        W25748  16.422   4.159   0.822  0.2396 -0.0264  0.0687
12335W        W25749  16.921   9.052  15.424  0.1723 -0.2735  0.0123
12336W        W25750   9.635   0.710  12.995  0.1504 -0.2171 -0.1386
12337W        W25751  18.217  17.721  14.237  0.1812  0.1867 -0.1001
12338W        W25752   5.539   5.981   4.654 -0.1257  0.2727  0.1338
12339W        W25753  16.830  14.829  15.917  0.1258 -0.4288  0.0460
12340W        W25754  11.769   9.119   0.061  0.2889 -0.0593  0.0010
12341W        W25755   9.364   6.524  13.553 -0.1180 -0.1588 -0.1069
12342W        W25756   7.942   5.649  16.234  0.1341 -0.0413  0.5030
12343W        W25757  13.006   7.110  10.302  0.2799 -0.0398 -0.0401
12344W        W25758  16.410  17.429  11.890 -0.1263  0.2781  0.0966
12345W        W25759   4.156  17.655  15.497 -0.1499 -0.0995  0.0901
12346W        W25760  13.679   0.942  13.961  0.0860  0.2110  0.0473
12347W        W25761  11.024  10.586   3.628  0.0261 -0.0244 -0.2529
12348W        W25762  14.964   9.685   0.571 -0.0939  0.0172  0.0200
12349W        W25763  14.824  17.816   4.801  0.3526 -0.0238  0.3426
12350W        W25764   8.223  15.934   4.127  0.1878  0.2003 -0.0611
12351W        W25765  15.944  10.942   4.061  0.0791  0.2047 -0.0507
12352W        W25766  15.644   5.240   4.585 -0.0247  0.1478  0.0406
12353W        W25767  13.002   9.626   2.246  0.0808 -0.2007  0.0764
12354W        W25768   6.241  15.613  16.426 -0.0176  0.0445 -0.1417
12355W        W25769   5.972   0.545  16.206  0.0927 -0.0732 -0.4651
12356W        W25770   2.867   9.431  10.484  0.5365  0.0686 -0.0444
12357W        W25771   5.512  10.395   4.783  0.1089 -0.2464  0.0960
12358W        W25772  10.655  11.284  11.857  0.0096 -0.0941 -0.1345
12359W        W25773   0.420   4.476   3.380  0.1270 -0.3591 -0.0927
12360W        W25774  14.705   5.790   5.723 -0.4144  0.0387 -0.0933
12361W        W25775  16.599   7.883   3.101  0.0813  0.0065 -0.0497
12362W        W25776   6.211   1.154   4.581 -0.0224  0.0054 -0.1832
12363W        W25777   3.302  10.423   2.793 -0.1578  0.3783  0.2470
12364W        W25778   5.296   5.058  14.432 -0.0768 -0.0859 -0.1235
12365W        W25779   3.463   9.696   4.704  0.0498  0.1283 -0.3282
12366W        W25780  16.713   4.579   2.695  0.1152  0.0561  0.0245
12367W        W25781  14.934   3.857   5.070 -0.2476  0.1134  0.2127
12368W        W25782   2.651  17.807  13.603 -0.0354  0.2910  0.1922
12369W        W25783  17.471   9.864   1.541  0.1724  0.1716 -0.1575
12370W        W25784   9.380   4.759  15.323  0.2076  0.3554  0.1943
12371W        W25785  14.296  13.804  15.088 -0.2926  0.1110  0.0163
12372W        W25786  15.130   0.839  15.868  0.1023  0.0643 -0.0369
12373W        W25787   6.682   1.036  16.131 -0.1234 -0.0403 -0.1342
12374W        W25788  15.586   4.796   5.302  0.0553 -0.1337  0.1478
12375W        W25789   3.166   4.944   6.228 -0.0478  0.2035  0.1112
12376W        W25790   6.199   4.503   1.491 -0.1792  0.2566 -0.1582
12377W        W25791   1.955   5.873   2.230  0.0911 -0.3643  0.3677
12378W        W25792  10.506   2.436  12.755  0.2982 -0.2657  0.0157
12379W        W25793   8.923   2.127   2.002 -0.1951 -0.0614  0.1597
12380W        W25794   1.078   1.724  13.933  0.1907  0.0123 -0.0208
12381W        W25795   6.331   1.078   4.109 -0.1454 -0.0264  0.3199
12382W        W25796  16.845  14.003  14.754  0.0015 -0.0398 -0.2111
12383W        W25797  12.037   0.796   2.538  0.3100  0.2491 -0.0896
12384W        W25798   3.110  13.861   5.097 -0.0295  0.0544  0.0732
12385W        W25799   6.401   0.821  16.453 -0.2977 -0.0213 -0.1117
12386W        W25800  15.516  11.893   1.700 -0.0871  0.1053  0.0003
12387W        W25801   1.999   0.691   0.986 -0.1178  0.1720  0.0374
12388W        W25802   7.574  13.174  11.534 -0.1960 -0.1600 -0.0693
12389W        W25803  11.022   0.469  13.961  0.0966  0.0863 -0.3644
12390W        W25804  15.476  10.577  14.271  0.1572  0.0566 -0.4252
12391W        W25805   0.390  13.229  10.807  0.2559  0.2755  0.2692
12392W        W25806   2.414   1.140   3.821  0.3424  0.2315 -0.2162
12393W        W25807  14.488  17.015  10.684 -0.1715 -0.0021  0.0745
12394W        W25808   2.438  17.296  11.401 -0.0622  0.0616 -0.1510
12395W        W25809   1.149  16.422  12.386 -0.3585 -0.0783  0.3426
12396W        W25810   8.678  15.141  12.314  0.1512 -0.0645  0.0772
12397W        W25811  15.676  17.779  10.841 -0.0885 -0.0842 -0.1993
12398W        W25812   1.216   6.579   2.781  0.1140  0.4273  0.2092
12399W        W25813   3.403  16.839   4.963 -0.1438 -0.0771  0.1811
12400W        W25814   0.349  13.550  11.675 -0.1771  0.0292  0.0129
12401W        W25815   9.020   7.401  15.908  0.1598 -0.0922  0.0277
12402W        W25816  12.126  17.301  11.278  0.0498 -0.0306 -0.0124
12403W        W25817  16.173  13.954  11.663 -0.0618 -0.0009 -0.1860
12404W        W25818   3.707  18.216   3.758 -0.0153  0.1907  0.0831
12405W        W25819   4.158  18.092  13.996 -0.1968  0.0662 -0.1337
12406W        W25820   4.500   0.564   1.238 -0.2336  0.0623 -0.0417
12407W        W25821  12.471   9.242  15.407  0.1639 -0.1790 -0.1985
12408W        W25822  16.695   4.051  15.357  0.1375 -0.0156  0.1634
12409W        W25823   2.699   6.541  12.292 -0.4132 -0.4154 -0.2749
12410W        W25824  17.254   3.628  11.940 -0.0513 -0.1495 -0.0169
12411W        W25825   4.096   1.751   2.007  0.0674 -0.0524  0.1123
12412W        W25826   9.780   0.588   4.016 -0.2590  0.0412 -0.1066
12413W        W25827   5.628  17.241  12.781 -0.0350  0.3369  0.1359
12414W        W25828   4.365   8.559  12.152 -0.1504 -0.0213  0.1646
12415W        W25829   9.399   8.106   0.361 -0.0062 -0.1008 -0.1008
12416W        W25830   3.241  13.908  14.916 -0.2073  0.0423 -0.0218
12417W        W25831   2.315   1.062   5.236  0.1839 -0.0592 -0.0208
12418W        W25832   7.079  16.245   1.422  0.2004 -0.2765  0.3413
12419W        W25833   0.094  15.510   0.693 -0.1338  0.1435 -0.1227
12420W        W25834   5.990   8.784  13.151 -0.3032 -0.1695 -0.0940
12421W        W25835  10.830  12.647   4.714  0.0406  0.1413 -0.4405
12422W        W25836  11.989  18.172  10.349  0.1909 -0.1554 -0.2804
12423W        W25837   4.688  13.626   5.173  0.1444  0.2105 -0.1056
12424W        W25838  10.973  12.419   5.405 -0.3301 -0.2424 -0.0909
12425W        W25839   5.989  14.095  12.253 -0.1414  0.4279 -0.2239
12426W        W25840  12.412  12.773  15.225 -0.0747  0.0793 -0.1127
12427W        W25841  17.761  13.522  15.792  0.3398  0.0028  0.1587
12428W        W25842   0.257   9.756  16.289 -0.0152 -0.0284  0.1640
12429W        W25843   9.354  16.691   1.004 -0.0209  0.1353  0.2004
12430W        W25844  14.947   2.689  10.274 -0.2264  0.0707 -0.1932
12431W        W25845   5.802   8.026   1.062  0.4842  0.0073  0.2329
12432W        W25846  14.039  17.159  10.870  0.2738  0.0711 -0.1396
12433W        W25847   9.725   8.800   5.831 -0.1634  0.0231  0.3232
12434W        W25848   6.431   1.050  12.585 -0.0768 -0.0455 -0.1053
12435W        W25849  13.597  16.894   4.527  0.2322  0.1997 -0.1919
12436W        W25850  15.585   3.487  10.622 -0.0731  0.2154  0.2342
12437W        W25851  17.159  15.085   5.868  0.0080 -0.1716 -0.2447
12438W        W25852   0.211  10.998  10.429 -0.0442 -0.0214  0.2382
12439W        W25853   3.474  11.841   0.417  0.0416  0.2196 -0.0516
12440W        W25854   8.200   8.234  13.112  0.3725 -0.1724 -0.2014
12441W        W25855   3.122   6.758   1.858 -0.0955  0.2564 -0.2646
12442W        W25856   8.828   0.941  14.562 -0.1659 -0.0252 -0.1325
12443W        W25857   2.351   8.588  12.753 -0.3442 -0.0193 -0.3592
12444W        W25858   8.374  17.124   0.321 -0.0834 -0.0445  0.1454
12445W        W25859  13.376  14.153   6.297 -0.2761  0.1375 -0.0518
12446W        W25860   5.405  11.992   4.611  0.3241 -0.3528  0.1926
12447W        W25861  15.547   8.920   4.893 -0.1233 -0.3582  0.0471
12448W        W25862  16.919   5.761   2.001 -0.2011 -0.3085 -0.1127
12449W        W25863  10.138   7.312   2.224  0.0685  0.1131 -0.2703
12450W        W25864   9.626   8.656  12.599  0.1311 -0.1935  0.0668
12451W        W25865   6.590   9.463  13.130  0.1041 -0.1743 -0.1433
12452W        W25866  12.009  11.697  14.764  0.0605 -0.0838  0.0102
12453W        W25867  16.175   0.661  10.766  0.0571  0.1077 -0.2730
12454W        W25868  16.542   0.191  15.709  0.1509 -0.0495  0.2416
12455W        W25869   6.689   7.716   1.835 -0.1911 -0.1997 -0.0020
12456W        W25870   5.810   2.763   4.229 -0.1172 -0.0213 -0.1473
12457W        W25871  13.553   6.995  11.801  0.1210  0.1090  0.0058
12458W        W25872  13.886   6.411  11.564 -0.0003 -0.2310  0.0692
12459W        W25873   9.989  14.931   2.461 -0.1454  0.2326  0.0886
12460W        W25874  17.069   7.471  16.439  0.1441 -0.3642 -0.0416
12461W        W25875  14.897   1.753  16.447  0.1979 -0.5617 -0.0513
12462W        W25876  13.741   9.403  13.579  0.0127  0.1460 -0.0046
12463W        W25877   7.691  16.802  12.878  0.1076  0.3086  0.0335
12464W        W25878  17.250  10.161  10.460  0.0619  0.1892  0.1415
12465W        W25879  15.441   2.425   4.359 -0.1777  0.2744  0.1327
12466W        W25880   6.742   5.437  13.233  0.2099 -0.3176 -0.2091
12467W        W25881  14.423   4.246  15.846  0.1967 -0.0005 -0.0411
12468W        W25882  11.728  17.612  11.394  0.1283  0.0367 -0.2393
12469W        W25883  13.209   7.446   5.680  0.2324 -0.1954 -0.0661
12470W        W25884  12.092   1.112  15.521 -0.2320  0.0138  0.0494
12471W        W25885  11.072   9.749   2.055  0.1814 -0.1098 -0.4490
12472W        W25886  16.782   9.184   2.030  0.1454  0.1229  0.2342
12473W        W25887   0.949   1.756  14.424 -0.0362  0.1297  0.2255
12474W        W25888   2.975  15.657  12.945  0.0208 -0.0792  0.0873
12475W        W25889  14.470  14.608   9.896 -0.1138 -0.2266 -0.0490
12476W        W25890   8.855  10.232   1.679 -0.1609  0.1100  0.1665
12477W        W25891  10.888  16.427  16.124 -0.0691 -0.1452 -0.0957
12478W        W25892   3.019  15.449   4.694 -0.1597 -0.1541 -0.0258
12479W        W25893  16.361  13.041   5.575 -0.0565 -0.0357  0.1257
12480W        W25894  13.699   7.965   5.139  0.0473 -0.0098  0.0188
12481W        W25895   0.108   8.163   2.263 -0.1536  0.1543  0.0299
12482W        W25896   7.329   1.631  11.534  0.1341 -0.0073  0.0494
12483W        W25897   2.575   7.400   3.434  0.0704 -0.0230  0.3538
12484W        W25898  11.653   9.213   1.136  0.2163 -0.1977 -0.2246
12485W        W25899   7.557   3.164  13.608  0.0103  0.2080 -0.1952
12486W        W25900  14.869   0.239   0.556  0.2261  0.1433 -0.2335
12487W        W25901  17.504   4.052  11.111  0.0807  0.2557  0.4122
12488W        W25902   9.828  11.912  14.230  0.4820 -0.2136  0.2643
12489W        W25903  15.409  12.038  11.994 -0.1750 -0.2977 -0.0561
12490W        W25904   1.343   8.659   0.860  0.2909  0.0146  0.2541
12491W        W25905  11.009  15.778  11.141 -0.0084 -0.0012  0.3173
12492W        W25906  14.632  13.566   2.304  0.2912 -0.1382 -0.0848
12493W        W25907   4.136  17.922   0.988 -0.1359 -0.1174  0.1934
12494W        W25908  16.460  11.330  11.101  0.1064 -0.1289 -0.3272
12495W        W25909   7.730   2.975  16.391 -0.3304  0.1989 -0.4451
12496W        W25910   8.566  10.836  14.500  0.1409  0.1493  0.0697
12497W        W25911   4.973   5.718   5.302 -0.1293  0.1812 -0.0681
12498W        W25912  13.771  10.366  15.275 -0.0495 -0.0778 -0.2203
12499W        W25913   5.636  11.912   2.845 -0.1866 -0.2203 -0.0359
12500W        W25914  17.637  15.752   4.842 -0.1361 -0.1361 -0.1620
12501W        W25915   5.865  13.579   0.812 -0.1049 -0.0577 -0.0484
12502W        W25916  17.859   4.396   2.436  0.4388  0.0806  0.4271
12503W        W25917   2.358   4.872   1.476 -0.3857  0.0575 -0.2162
12504W        W25918   6.562  13.407  12.389 -0.0363  0.1937  0.2069
12505W        W25919  12.276   9.646   1.916 -0.0261 -0.0482 -0.0924
12506W        W25920   2.660  14.064  10.772 -0.3738 -0.0130 -0.0524
12507W        W25921   0.320   7.665   0.760  0.1352 -0.3743  0.0688
12508W        W25922   8.747  14.925  15.929 -0.1520  0.0214 -0.0075
12509W        W25923  12.335   6.642  14.639  0.2646  0.1290  0.0798
12510W        W25924  14.228  16.524  15.463  0.0225  0.0260 -0.1568
12511W        W25925   0.193  13.802   4.899 -0.2126  0.1335 -0.0379
12512W        W25926   2.124   0.185  14.183 -0.1373 -0.3673 -0.2312
12513W        W25927  16.647   3.139  14.855 -0.0572  0.0489 -0.0788
12514W        W25928   7.926   7.052  12.136  0.0508 -0.1223  0.3653
12515W        W25929  14.039   4.828  13.314  0.1810  0.1267 -0.3456
12516W        W25930  11.742   2.287   1.532  0.2229  0.4209  0.1348
12517W        W25931   5.585  12.493   6.167  0.2702  0.1784  0.0270
12518W        W25932  12.326   1.579   0.027 -0.1614 -0.1839 -0.0926
12519W        W25933  17.624   8.966   5.732  0.3849  0.1997 -0.0004
12520W        W25934  16.697   1.815   5.452 -0.2379  0.1805  0.0875
12521W        W25935   3.694   3.577  13.933 -0.2487  0.1351 -0.0046
12522W        W25936  15.897   7.977   1.029  0.0817  0.4100 -0.0490
12523W        W25937  11.117  13.607   0.300 -0.0863 -0.1298  0.1210
12524W        W25938   1.292   8.880   3.822  0.3687 -0.1070 -0.1915
12525W        W25939   4.515   6.324  12.693 -0.2124 -0.2487  0.1741
12526W        W25940  12.103   1.477  11.023 -0.0098 -0.2498  0.2464
12527W        W25941  17.149  16.371  11.254  0.0796 -0.3257  0.3195
12528W        W25942   9.084   8.739   3.586  0.4462  0.1342  0.1519
12529W        W25943  15.201   3.755  16.214 -0.0363  0.2065 -0.1930
12530W        W25944   7.781  13.817   0.368  0.3564  0.3211 -0.1759
12531W        W25945   2.001  14.738   1.749 -0.0432 -0.0375  0.0394
12532W        W25946   4.146  10.424  10.567 -0.0949 -0.1124 -0.1395
12533W        W25947   6.288  12.526   5.444 -0.0500  0.0668 -0.0626
12534W        W25948   0.233  18.090   3.744  0.3444  0.0869  0.1139
12535W        W25949   0.484  16.719  13.169  0.0597 -0.0811 -0.0584
12536W        W25950   2.657   5.361  14.982 -0.1632  0.3527 -0.0033
12537W        W25951   1.450  17.045   5.733 -0.2466 -0.0728 -0.1046
12538W        W25952  10.987   6.466  11.534  0.0733 -0.1228  0.1474
12539W        W25953  11.140   0.940   0.353  0.0705  0.0438 -0.0545
12540W        W25954   0.090   0.788   6.295 -0.0428 -0.3178 -0.0525
12541W        W25955   4.839  11.560  11.836  0.2628 -0.0159 -0.1223
12542W        W25956   8.354   1.104  10.699  0.0751  0.0525  0.0840
12543W        W25957   3.595   2.807  12.662  0.0286 -0.4913 -0.2685
12544W        W25958  10.591   1.878   3.004 -0.1829  0.1600 -0.0772
12545W        W25959   6.300   7.692  12.417 -0.3855 -0.0738 -0.2409
12546W        W25960   6.500   0.611  14.300 -0.1539  0.0734  0.0736
12547W        W25961  10.373  13.504  14.529  0.0488  0.2734 -0.0718
12548W        W25962   0.713   1.552   1.368  0.0118 -0.0052 -0.2672
12549W        W25963   4.272   4.458   3.107 -0.0503  0.1000 -0.2834
12550W        W25964  10.035  13.995   3.609 -0.1761 -0.2128  0.1397
12551W        W25965   6.920   5.613  12.802  0.0859 -0.1573 -0.1473
12552W        W25966  11.093  18.217   5.087  0.0653 -0.3915  0.0934
12553W        W25967   9.083   9.472  11.659  0.0880 -0.0077 -0.4249
12554W        W25968  16.604   8.130   4.414 -0.1830  0.0440 -0.0129
12555W        W25969   3.169  15.760   2.677  0.1898 -0.0108 -0.0758
12556W        W25970  14.642   5.033   1.688 -0.0422 -0.2676 -0.1401
12557W        W25971   2.817  15.556   2.201 -0.2115 -0.1742 -0.1089
12558W        W25972   0.936   7.510   2.707 -0.2786  0.2964 -0.1137
12559W        W25973   6.493  14.325  13.619  0.0105 -0.0056  0.0904
12560W        W25974   8.819   1.864  10.528  0.1609 -0.0480 -0.2644
12561W        W25975  15.717  13.847   0.376 -0.1935 -0.0769 -0.3327
12562W        W25976   2.136   0.269   0.705  0.0436  0.1008 -0.1329
12563W        W25977  14.512   8.718  14.413 -0.1045 -0.1972 -0.0804
12564W        W25978  17.669  12.087   2.818  0.0000 -0.0303 -0.0211
12565W        W25979   1.877  17.049  15.347 -0.2602 -0.1284 -0.2209
12566W        W25980  15.489  15.288   3.715  0.1394 -0.1090 -0.1892
12567W        W25981   7.133  17.486  13.897 -0.1439  0.1130 -0.0784
12568W        W25982   1.714  11.683  12.050 -0.2086  0.1706 -0.0235
12569W        W25983  12.232   3.912  10.826 -0.0394  0.0721 -0.0314
12570W        W25984   6.194   2.951   5.296  0.3164 -0.2035 -0.0345
12571W        W25985  16.253   1.658  13.668 -0.0537 -0.0455  0.2590
12572W        W25986   3.230  15.144   5.252 -0.0433 -0.1505  0.1920
12573W        W25987   6.645  17.250  12.185 -0.0712 -0.0888 -0.0551
12574W        W25988  12.821  16.389   3.001 -0.5152 -0.5605  0.0571
12575W        W25989  14.985  14.410   1.944 -0.1131  0.0104 -0.2388
12576W        W25990  17.188   1.111  14.391  0.1276  0.5447  0.2209
12577W        W25991  12.547  10.812  12.464 -0.1316  0.2292  0.0310
12578W        W25992   7.260   7.506  12.560  0.0040  0.3215  0.0498
12579W        W25993   7.545   9.468  11.953 -0.0727 -0.0444  0.0708
12580W        W25994   5.316   1.654   2.807 -0.2360  0.1176  0.3675
12581W        W25995   3.011   6.600   5.967 -0.1448 -0.3576  0.3033
12582W        W25996   8.637   2.824  12.648 -0.0214 -0.1251  0.1905
12583W        W25997   7.572  17.300   0.859  0.2040 -0.0023 -0.2717
12584W        W25998  12.766   7.441  11.356 -0.2013  0.2993  0.1294
12585W        W25999  12.611  11.723   1.467 -0.1847  0.0690 -0.0520
12586W        W26000  13.059   6.246  14.269  0.1632 -0.3039  0.0232
12587W        W26001  15.977  15.174  11.227 -0.2699  0.1328 -0.0887
12588W        W26002   0.033  12.711  15.150  0.3114  0.1058 -0.0365
12589W        W26003  13.426  16.483   4.840  0.0819  0.1325 -0.1333
12590W        W26004   5.867   2.892   4.693 -0.0721  0.3940 -0.0021
12591W        W26005   0.611   6.653  12.787  0.2680  0.2285  0.0139
12592W        W26006   5.000   9.763  11.108 -0.0716  0.0502 -0.0411
12593W        W26007  16.188  17.557   2.379  0.1101  0.0885 -0.0963
12594W        W26008   2.983   6.310   4.925 -0.2235 -0.1305 -0.0305
12595W        W26009  17.846  14.975   1.152 -0.2134  0.2734  0.1485
12596W        W26010  17.433   8.762  13.842  0.1572  0.2833 -0.1249
12597W        W26011   2.107  11.021   0.271 -0.0265  0.2240  0.2507
12598W        W26012   7.102   1.418  12.431 -0.0859 -0.0539  0.1547
12599W        W26013  13.339  13.599   0.946 -0.0796 -0.1187 -0.1437
12600W        W26014  12.097  17.448   4.046  0.2030  0.0347  0.1137
12601W        W26015  10.313   3.713  11.862  0.0039 -0.1185  0.1500
12602W        W26016  14.450   5.103  16.472  0.0348 -0.1865 -0.0254
12603W        W26017   0.047   7.463   6.232  0.0341 -0.0856 -0.0332
12604W        W26018   6.268   8.988  11.503 -0.4487  0.0326 -0.1202
12605W        W26019   8.250  12.531   0.417  0.0535 -0.3010  0.0140
12606W        W26020   3.250  17.522  14.892 -0.1012 -0.3449 -0.0039
12607W        W26021  10.105   0.916  13.857  0.1534  0.0695 -0.0246
12608W        W26022  13.279   6.744   3.358 -0.0924 -0.2730 -0.0342
12609W        W26023   3.643  10.277   5.911  0.2702  0.0921  0.0731
12610W        W26024  10.168   9.057   1.422  0.1537 -0.1330  0.0148
12611W        W26025   7.536  11.144  15.528  0.1952 -0.3812 -0.2771
12612W        W26026   8.748  11.668  14.386 -0.1990 -0.1680 -0.2141
12613W        W26027   1.312  16.154  16.089 -0.2467 -0.1339 -0.0280
12614W        W26028   8.455   9.166   0.957  0.0103 -0.1216  0.4247
12615W        W26029  15.409  10.221   5.918  0.1950  0.2511  0.1708
12616W        W26030  11.322  15.048  15.250  0.0629  0.0203  0.1018
12617W        W26031   0.885   5.566   2.905 -0.3389 -0.1951 -0.2906
12618W        W26032   6.463  16.101  15.856 -0.1172 -0.0083 -0.0912
12619W        W26033   9.747  14.113   0.267 -0.0272  0.5442 -0.0333
12620W        W26034   1.427  17.626   3.925 -0.0458  0.1782 -0.0487
12621W        W26035  12.025   1.064  15.017 -0.2643 -0.1781  0.0817
12622W        W26036  16.898  15.807   2.606 -0.0585  0.2498 -0.0347
12623W        W26037  12.242  11.439  10.747  0.0426  0.1275 -0.0146
12624W        W26038  17.060   1.016  15.632 -0.2845 -0.2385  0.0350
12625W        W26039  13.546  13.655  14.769 -0.1073  0.2607  0.0209
12626W        W26040  15.465   1.033  15.500 -0.2032  0.1478  0.1558
12627W        W26041   1.511   8.070   0.140 -0.0674 -0.1724 -0.0130
12628W        W26042   6.229  14.347  10.676 -0.3231  0.0854 -0.1522
12629W        W26043  13.396   0.605   3.836 -0.0556 -0.0113  0.2804
12630W        W26044  15.713   9.669  13.455  0.0915  0.3246  0.1183
12631W        W26045  13.007   9.453  13.152 -0.0148 -0.1489  0.1142
12632W        W26046   4.615  13.631   3.700 -0.1790 -0.1026  0.0112
12633W        W26047  13.813   4.118   5.324 -0.2422 -0.0415 -0.2714
12634W        W26048  17.486   2.974  15.965  0.3000 -0.0873 -0.0114
12635W        W26049  11.488  17.763   5.118 -0.3116 -0.1287  0.1535
12636W        W26050   1.351  11.420  15.688  0.0677  0.2754  0.1795
12637W        W26051   9.188   2.212   1.516  0.1196 -0.0626 -0.0258
12638W        W26052   1.441  16.137   0.224  0.0315  0.3184  0.1566
12639W        W26053  11.699   2.648  11.932  0.0453  0.1071 -0.0393
12640W        W26054  12.841  17.743   1.555 -0.0514 -0.0401 -0.0400
12641W        W26055  11.170   5.407  16.292 -0.1163 -0.3500  0.0336
12642W        W26056   8.713   4.549  15.822  0.0172 -0.1464 -0.1155
12643W        W26057   3.354   0.680  13.223 -0.1754  0.1803  0.0145
12644W        W26058  16.103  12.110  11.919  0.1906  0.0463  0.1647
12645W        W26059   4.645   8.911   1.451 -0.1056  0.0992 -0.2224
12646W        W26060  16.956  11.135   2.966 -0.0977  0.0424 -0.1485
12647W        W26061   3.263  15.577   0.738 -0.1899 -0.4326  0.3531
12648W        W26062  12.919   2.286   1.518  0.0773  0.1155  0.2314
12649W        W26063  14.250   6.256   1.212  0.2157  0.0362  0.1737
12650W        W26064  13.912  10.041  11.470  0.0533 -0.2598 -0.5111
12651W        W26065  15.528   8.554  11.925  0.0462 -0.0365  0.0804
12652W        W26066   2.128   6.885  15.914 -0.0637  0.4948  0.0510
12653W        W26067  10.495  14.536  15.513 -0.1523  0.1611  0.1066
12654W        W26068  15.145  16.044  15.445  0.0501 -0.3383  0.1003
12655W        W26069   0.086   1.022   3.789  0.0439 -0.0738 -0.0175
12656W        W26070   7.228   6.101  10.863  0.0002  0.0357  0.1913
12657W        W26071   0.229  18.106   5.542 -0.0522  0.0531 -0.1527
12658W        W26072   5.929   3.707  13.888  0.2740  0.2270  0.0184
12659W        W26073   9.511  16.197   1.977 -0.1315  0.3425 -0.0136
12660W        W26074  17.595  10.658   2.026  0.0020 -0.0488  0.1961
12661W        W26075   1.706   2.686   3.049 -0.0125  0.0152  0.2625
12662W        W26076   4.410   0.380  11.209 -0.2487  0.1887  0.0311
12663W        W26077   6.093   8.988   1.792 -0.1633 -0.1914  0.1364
12664W        W26078   7.060   2.042   4.565 -0.2512  0.0537  0.0690
12665W        W26079  15.602   5.902  11.675  0.1068 -0.3179 -0.0254
12666W        W26080  18.138  14.176  11.181 -0.1277 -0.1926  0.0927
12667W        W26081   5.502   8.388   1.360 -0.0783 -0.2606  0.1298
12668W        W26082  14.492   2.124  15.710  0.0791  0.1206 -0.0377
12669W        W26083  10.649  11.715   1.098 -0.0047 -0.1780  0.0566
12670W        W26084   4.468   7.811  12.593  0.2989 -0.2244 -0.1488
12671W        W26085   4.454   7.197  12.498  0.2032 -0.0385 -0.1377
12672W        W26086   7.589   9.776   5.889  0.2730  0.1113  0.0381
12673W        W26087   9.424   6.003   5.753  0.1949  0.0453 -0.1145
12674W        W26088   2.855   0.244   4.221  0.5858 -0.0523  0.2615
12675W        W26089  15.528  14.339  11.252 -0.1223 -0.2798  0.1426
12676W        W26090   4.003   6.067  15.491 -0.0901  0.0772  0.0884
12677W        W26091   4.481   9.426   5.553  0.2721 -0.0103  0.4871
12678W        W26092  15.202   3.357   5.029 -0.3159 -0.1725  0.1773
12679W        W26093  10.058   1.306  14.420  0.3789 -0.0974 -0.0128
12680W        W26094   5.280  14.358   4.728  0.1329  0.1063 -0.1620
12681W        W26095   5.928  12.077  14.021 -0.1367  0.1963 -0.1227
12682W        W26096  13.398  11.569  15.790 -0.0524 -0.1430  0.3943
12683W        W26097  12.936   8.668  12.549  0.4142  0.2562  0.1720
12684W        W26098  15.101  13.401   1.770  0.1896 -0.1060  0.1609
12685W        W26099  13.056  10.897  15.315  0.0434 -0.0098  0.1321
12686W        W26100  12.904  18.134  14.007 -0.0003 -0.0191  0.2369
12687W        W26101   4.888   0.078   2.074  0.1480 -0.1761 -0.0488
12688W        W26102   0.535  17.635  12.035 -0.0510  0.2934  0.0201
12689W        W26103  16.422   1.301  11.531 -0.0513  0.0050  0.0764
12690W        W26104   5.233   0.935  11.134  0.2536  0.2329 -0.3555
12691W        W26105   7.601   4.107   3.127 -0.0078 -0.3672 -0.3859
12692W        W26106  13.168  17.419   1.377 -0.1005  0.1545  0.1821
12693W        W26107  10.995  15.551  11.758  0.0507 -0.0075  0.0368
12694W        W26108  12.895   7.071  14.028  0.0293 -0.0490  0.1235
12695W        W26109   4.313   9.774   0.969 -0.0422 -0.1125  0.4428
12696W        W26110   0.373   4.214   3.775  0.0541 -0.1003  0.0398
12697W        W26111   2.769  17.830  14.100 -0.1655  0.0002 -0.0262
12698W        W26112  11.422  17.000   5.101 -0.3272  0.0289  0.0421
12699W        W26113   2.732  12.198  11.447  0.1391  0.1471  0.1761
12700W        W26114   3.790   4.320  14.975  0.0529 -0.0571 -0.2321
12701W        W26115   2.785  13.079   2.974  0.3284  0.2075 -0.0998
12702W        W26116  12.797  17.474   0.430 -0.2183 -0.1759  0.0628
12703W        W26117   0.745  16.496   3.824 -0.1005 -0.1006  0.2342
12704W        W26118  11.205  16.180   2.616  0.0741 -0.2374  0.2761
12705W        W26119   7.804   8.682  12.084  0.1080 -0.0094  0.1474
12706W        W26120  16.003  11.923   1.895  0.0779  0.3890  0.0238
12707W        W26121  10.508   6.789   4.923 -0.0703 -0.3147 -0.0798
12708W        W26122   1.370   8.292  14.943 -0.3425 -0.1710 -0.1034
12709W        W26123  13.715   1.691  11.233  0.1433 -0.0758  0.0300
12710W        W26124   6.806   1.907  16.353  0.1311 -0.3191 -0.0714
12711W        W26125   2.810  15.027   4.850  0.0945  0.3458 -0.1615
12712W        W26126  17.997   1.233  16.269  0.1249 -0.0388 -0.1978
12713W        W26127   5.063   7.673   0.777 -0.0035 -0.0025 -0.0014
12714W        W26128  12.641   3.564   5.425  0.1961  0.2413 -0.1230
12715W        W26129   0.099   3.045  14.451 -0.0498  0.1923  0.1870
12716W        W26130  17.412   6.422   2.252  0.0112 -0.2565  0.1923
12717W        W26131  16.694   6.339  10.268 -0.2797 -0.2036 -0.2878
12718W        W26132   1.705  11.988   1.957 -0.3060  0.3064 -0.1864
12719W        W26133  15.076   5.910  10.718 -0.1091 -0.0770 -0.1071
12720W        W26134   0.058  10.517   6.458 -0.3762  0.0774  0.1954
12721W        W26135   1.427  14.162  15.796 -0.2412  0.0439  0.2489
12722W        W26136   7.415   5.873  12.859 -0.1186  0.1292  0.0777
12723W        W26137   3.663  13.374  11.140  0.0174  0.0136  0.0551
12724W        W26138  16.833   5.811  15.870  0.2239 -0.3372 -0.0242
12725W        W26139   8.505  12.984   3.290 -0.1994 -0.0317  0.1476
12726W        W26140  17.744   5.946  13.832  0.0378  0.0280  0.3077
12727W        W26141   1.915  10.571   0.279  0.0341  0.2216 -0.1558
12728W        W26142   5.862  15.021   2.369  0.2562 -0.0471  0.0552
12729W        W26143   1.607  11.908   5.265 -0.1930 -0.0527 -0.0182
12730W        W26144   1.776   8.044   1.771  0.0491  0.2377 -0.3694
12731W        W26145  12.677   8.488   3.771  0.2629 -0.2811  0.0712
12732W        W26146  16.659   2.534   0.361 -0.1153 -0.2427  0.1563
12733W        W26147   5.268  11.494   6.382  0.1841  0.0441  0.2079
12734W        W26148   5.687  13.156  14.593  0.3736  0.0854 -0.0463
12735W        W26149  10.133   9.728   0.383 -0.2943 -0.2788 -0.0725
12736W        W26150  10.872   1.900  13.075 -0.1970 -0.2688  0.1189
12737W        W26151   2.927   2.004   2.418  0.1059  0.0552 -0.2555
12738W        W26152   4.776   8.309  11.265  0.1417 -0.2478  0.1451
12739W        W26153  16.513  13.348   3.232 -0.0586  0.4075 -0.0765
12740W        W26154   2.614   8.553   4.878  0.1055 -0.1776  0.0206
12741W        W26155  16.664   0.525   1.373 -0.2890  0.1048 -0.1293
12742W        W26156  15.764  14.159  15.684 -0.2342 -0.1237  0.0746
12743W        W26157  17.852  12.096  13.809 -0.3199  0.0501  0.3833
12744W        W26158   0.189  10.659   0.928 -0.0081  0.2749 -0.0329
12745W        W26159   7.975   5.780   4.830 -0.4097  0.0979  0.1323
12746W        W26160   0.141  16.455  11.419  0.1285  0.2814  0.1354
12747W        W26161   3.437   8.412  11.711 -0.0958 -0.0300 -0.0892
12748W        W26162  11.130   5.999  14.700  0.0174  0.2788  0.1061
12749W        W26163  12.626  15.844   2.867  0.1831 -0.1249  0.0574
12750W        W26164   8.333   7.475   2.974 -0.0167 -0.0094 -0.2216
12751W        W26165  17.352   4.080   1.672  0.1446  0.1421 -0.0931
12752W        W26166   5.964   2.062  15.084  0.2129 -0.3157  0.1572
12753W        W26167  12.071   7.468   2.518 -0.2286  0.1880 -0.2083
12754W        W26168  15.052  16.690   5.584 -0.3209  0.3635  0.2603
12755W        W26169   7.403  13.041  13.798 -0.1852  0.1415  0.1392
12756W        W26170   8.712   4.975   1.152 -0.4161 -0.0600  0.1210
12757W        W26171   7.888   0.546   0.720 -0.0015  0.4491  0.3984
12758W        W26172  14.975  15.793   5.326  0.0479 -0.0667 -0.3152
12759W        W26173  12.338  12.636  14.643  0.1538 -0.2012  0.1330
12760W        W26174   7.447   6.822  11.991 -0.2380 -0.2718 -0.0753
12761W        W26175   2.979   9.682   3.668  0.0055  0.3065 -0.0574
12762W        W26176   4.789   7.339  13.275  0.0959 -0.2605 -0.2326
12763W        W26177  16.422  14.675   2.789 -0.0937 -0.0021  0.0521
12764W        W26178   5.100  15.049  11.191  0.1549  0.1159  0.0383
12765W        W26179  17.911   3.416   0.308  0.1835  0.1185 -0.0104
12766W        W26180   4.993  16.241  11.165 -0.1215 -0.1185  0.1096
12767W        W26181  16.455   0.788   2.769 -0.2139  0.0829 -0.3086
12768W        W26182   4.381   3.678  11.363 -0.0842  0.0776 -0.2660
12769W        W26183   3.411  13.073  11.983  0.0110  0.1708  0.1962
12770W        W26184   8.007   3.980   1.625  0.1852  0.1554  0.1332
12771W        W26185   8.373  11.307  15.677 -0.2186  0.0543 -0.0264
12772W        W26186   5.242   9.128   2.473  0.1259  0.5112  0.1732
12773W        W26187  16.089  10.254   5.122  0.0428  0.1067 -0.1378
12774W        W26188  12.110  10.913  12.957 -0.2530 -0.0016  0.0505
12775W        W26189   1.958   6.721  13.495 -0.0362  0.1774 -0.2185
12776W        W26190  12.580   1.089   4.021 -0.3828 -0.1059  0.1113
12777W        W26191   5.174  16.337   5.087  0.0217 -0.2452 -0.1466
12778W        W26192   6.207   4.112   3.408 -0.2223 -0.3236  0.1403
12779W        W26193   7.317   2.498   4.424  0.0591  0.2343  0.1852
12780W        W26194   3.331   2.601  13.715  0.1604  0.0071 -0.0056
12781W        W26195   0.245   6.263   5.904  0.2922  0.2078 -0.4878
12782W        W26196   1.123  12.113  16.527  0.1394 -0.3144  0.1250
12783W        W26197   1.461   1.300   1.690 -0.2514 -0.3824 -0.2640
12784W        W26198  15.098   2.676   3.893  0.2679 -0.1225  0.1808
12785W        W26199  16.432   4.627  11.735 -0.0292  0.1241 -0.2779
12786W        W26200  12.241   2.925   2.446  0.0438 -0.0648  0.0327
12787W        W26201   3.390   0.810  15.062 -0.0761  0.1924  0.3430
12788W        W26202  12.788  15.747  15.994 -0.0978 -0.4001 -0.0649
12789W        W26203   7.841  16.883   1.086 -0.3968  0.1137 -0.1141
12790W        W26204  15.267   7.042  15.508  0.1563  0.3594 -0.2336
12791W        W26205  12.368  10.156   5.907 -0.1438 -0.1100 -0.1789
12792W        W26206   5.230   7.979   4.363 -0.0326 -0.2293  0.0500
12793W        W26207   8.144   0.705   4.031  0.2365 -0.2364  0.0434
12794W        W26208  13.615  11.220   2.251  0.1482  0.3627  0.0056
12795W        W26209  12.138  17.470   5.406  0.0947 -0.0938  0.1562
12796W        W26210  16.066   0.581  15.070 -0.1059 -0.0414  0.2331
12797W        W26211   0.337  14.676  13.717  0.1712  0.0315  0.2337
12798W        W26212   7.285  17.283  14.814  0.3135 -0.1551  0.3868
12799W        W26213  10.870  10.074  16.257 -0.0607  0.1082  0.1815
12800W        W26214   3.472  13.858   2.259  0.0943 -0.2482  0.1731
12801W        W26215  17.599  12.219  16.367 -0.1823  0.4150  0.0370
12802W        W26216   5.015  10.622  10.772  0.1432  0.0048  0.1096
12803W        W26217   9.788   4.225   0.174  0.2886 -0.3362  0.0886
12804W        W26218  17.394   9.478  13.264  0.1670 -0.2821  0.0494
12805W        W26219   7.069  11.853   5.639 -0.1510 -0.1099 -0.0928
12806W        W26220   1.850  10.322  15.989 -0.0024  0.1308  0.1781
12807W        W26221  13.944  14.561  15.031 -0.1518  0.3844  0.0498
12808W        W26222   2.540   0.502   6.572 -0.2601  0.2734  0.0664
12809W        W26223   1.231  11.280  13.958 -0.0603  0.2526  0.0015
12810W        W26224   2.446   3.506   3.292  0.0358  0.1246 -0.0156
12811W        W26225  15.489   6.223  10.793 -0.2964 -0.1268  0.0287
12812W        W26226  12.718   7.375   3.237  0.3970  0.0292  0.3050
12813W        W26227  13.512  13.128  12.225  0.4620 -0.0491  0.2077
12814W        W26228  16.606  14.548   2.289 -0.0595  0.0559  0.0689
12815W        W26229  16.954   6.148   0.683  0.0359 -0.0157  0.1286
12816W        W26230   8.756  12.428   0.967  0.1119  0.0205 -0.1038
12817W        W26231  16.744   3.628  13.332  0.1649 -0.0775  0.0924
12818W        W26232   3.354  16.488  12.060 -0.2055  0.2369 -0.1261
12819W        W26233   8.986  13.581   1.178 -0.2925  0.2733  0.1566
12820W        W26234  12.651   2.116   6.021  0.0088 -0.1977 -0.0166
12821W        W26235   3.225  16.109   5.244  0.1831 -0.2793 -0.1116
12822W        W26236   4.335  17.039   9.369  0.1548  0.1780 -0.2047
12823W        W26237  17.531   9.160  15.339 -0.3612 -0.0439 -0.3214
12824W        W26238   9.128  17.159   6.034 -0.0276  0.1823 -0.0547
12825W        W26239  16.253  11.875   3.069  0.2375 -0.0714  0.0189
12826W        W26240   4.744  10.531  16.483 -0.0155 -0.1538 -0.0592
12827W        W26241   9.667   2.430  13.164 -0.3084  0.0542  0.1597
12828W        W26242  13.097   2.863  10.714 -0.1434  0.3470 -0.0247
12829W        W26243  11.321  17.137   2.155 -0.1606 -0.0911 -0.0788
12830W        W26244   2.303   5.433   0.080  0.3565 -0.1591 -0.1563
12831W        W26245  16.749   0.490  16.129  0.1191 -0.1206 -0.0299
12832W        W26246   7.714  11.969  15.401  0.1974  0.0220  0.0002
12833W        W26247   8.655  16.347   2.734  0.0835 -0.0047 -0.0413
12834W        W26248  11.304  17.925  11.409  0.0131 -0.4222 -0.1693
12835W        W26249  12.641   6.187  11.126  0.0018 -0.0611 -0.1322
12836W        W26250   1.117  12.493  11.152 -0.2132  0.0726  0.0651
12837W        W26251  12.524   7.141  15.428  0.3437 -0.0101  0.0382
12838W        W26252  13.077  18.152  11.052  0.2268 -0.3650 -0.4148
12839W        W26253  16.416   6.515  13.512 -0.1489  0.0990  0.4403
12840W        W26254   1.250   1.974  15.278 -0.2838 -0.1141  0.4371
12841W        W26255  15.947  10.304   4.347 -0.1406  0.0925  0.1819
12842W        W26256   4.280   5.762   6.099  0.1129 -0.0741 -0.0639
12843W        W26257   7.997  17.971   0.257  0.1556  0.0284  0.0230
12844W        W26258  15.641  17.598  14.764 -0.2989  0.1663  0.3092
12845W        W26259   7.153  17.207   1.237  0.1211 -0.2866 -0.0745
12846W        W26260   9.597   4.499   0.522 -0.1486  0.2889  0.3298
12847W        W26261   4.884  15.415   3.147  0.0957  0.1157 -0.3951
12848W        W26262   8.279   1.527   1.839 -0.0946  0.0569  0.1044
12849W        W26263  17.412   1.334   5.277 -0.0709 -0.1157 -0.3613
12850W        W26264   6.919  13.937   3.433  0.0903 -0.3147 -0.0801
12851W        W26265  16.550   4.629  12.248 -0.0157  0.1351 -0.0848
12852W        W26266   8.290   0.167   1.847 -0.0537 -0.1858  0.0336
12853W        W26267  13.322   1.145   4.601 -0.1090 -0.1645  0.1297
12854W        W26268   8.956   8.125   0.063 -0.1333  0.1166 -0.0093
12855W        W26269  15.188  16.118   4.975  0.1710  0.1586  0.0302
12856W        W26270   7.384  10.238   3.788 -0.0173 -0.2423  0.2348
12857W        W26271  12.415   5.652  16.180  0.1734  0.0352  0.1198
12858W        W26272  16.947   4.916  13.115  0.0107 -0.3456 -0.2145
12859W        W26273  12.809   8.172   6.205 -0.0540 -0.0990  0.3156
12860W        W26274  10.601   5.745   5.547  0.0014 -0.1025  0.0169
12861W        W26275  14.897  14.121   1.373 -0.0522  0.1191 -0.0539
12862W        W26276   5.189   1.461  10.413  0.0145  0.1909  0.0163
12863W        W26277  14.244  15.707  14.217 -0.0727 -0.0570 -0.0333
12864W        W26278   0.756   0.525  11.960  0.3476 -0.0451 -0.1527
12865W        W26279  13.491   5.534  12.357  0.0731  0.0826 -0.1133
12866W        W26280   2.765   7.432   4.547  0.0500  0.1828 -0.2864
12867W        W26281  13.806  11.861  10.804  0.1167  0.0537  0.0253
12868W        W26282  16.187  11.349  16.138 -0.1015 -0.1367  0.2007
12869W        W26283  12.658   8.387   2.235  0.1886 -0.3248 -0.0606
12870W        W26284  18.161   2.002  14.713 -0.3531  0.1794 -0.1440
12871W        W26285   1.466  17.056   6.644 -0.0075  0.3063  0.1653
12872W        W26286   7.855  15.539  14.664 -0.1951 -0.0170  0.1924
12873W        W26287  10.421  16.182   5.415  0.0187  0.1280 -0.0905
12874W        W26288  11.610   4.699  13.998 -0.1917  0.0697  0.0736
12875W        W26289  15.893  17.683  14.033 -0.0076  0.2111 -0.1537
12876W        W26290  11.037   7.652  12.604  0.2181  0.0800  0.3986
12877W        W26291   8.095   9.557  13.139  0.0802 -0.0379  0.3376
12878W        W26292   9.079  14.066   3.338  0.0524 -0.2253  0.2830
12879W        W26293  11.855  11.734   1.775 -0.1235  0.0819  0.2174
12880W        W26294   9.186  17.709  11.078 -0.3485 -0.3046  0.2160
12881W        W26295   6.418   4.393  14.790  0.3359 -0.3012 -0.0295
12882W        W26296   7.232  14.806   1.605  0.1369  0.0886 -0.2451
12883W        W26297  13.520   4.692  14.624  0.2899 -0.0590 -0.1625
12884W        W26298   2.087   1.108   3.158  0.0704  0.2709  0.2289
12885W        W26299  10.014  16.286   9.817  0.2641  0.0075  0.1057
12886W        W26300  12.862   1.920   1.847 -0.4363 -0.0316  0.0374
12887W        W26301  18.197  10.329   5.670  0.0123  0.0060  0.2402
12888W        W26302  17.602  15.269   0.362  0.2348 -0.0749  0.3476
12889W        W26303   1.703   7.517  12.660  0.1031  0.4489  0.3279
12890W        W26304  17.167   5.314  11.991  0.0284 -0.2499  0.1632
12891W        W26305  17.238  12.433   2.586  0.0881  0.3329  0.0790
12892W        W26306   3.044   7.524   5.578 -0.5295 -0.0289 -0.2284
12893W        W26307  10.803  15.797  14.175  0.0989 -0.0230 -0.1476
12894W        W26308   7.717   0.452  15.077 -0.2679  0.0736  0.4523
12895W        W26309  11.258   8.759   1.962 -0.2408 -0.2904  0.1456
12896W        W26310  11.913   9.198   3.736  0.1208 -0.1910 -0.1275
12897W        W26311  13.788  12.556   2.876  0.1569  0.0598 -0.1777
12898W        W26312   6.670   4.616  15.150 -0.1447 -0.0527  0.1223
12899W        W26313   7.211   9.801  15.634 -0.0044  0.1552 -0.0871
12900W        W26314  14.081  15.542  10.100  0.3261  0.1005  0.2036
12901W        W26315   0.783  13.394  15.098 -0.1100 -0.2727  0.2371
12902W        W26316   3.989   6.544  15.648 -0.0185 -0.2242 -0.2355
12903W        W26317  17.115  15.364   2.798 -0.0227  0.3216  0.1017
12904W        W26318   4.608   1.490   6.161  0.2169 -0.1332 -0.1929
12905W        W26319   9.322   9.748   5.841 -0.3187 -0.1138 -0.0336
12906W        W26320  13.239   0.267  12.732  0.2243  0.0121 -0.1429
12907W        W26321  15.958  11.762  10.795  0.2372  0.1012 -0.0761
12908W        W26322  16.520  11.240  13.490 -0.3277  0.2267  0.1629
12909W        W26323  16.837   6.917   4.984 -0.1999  0.0567  0.3376
12910W        W26324  17.141   7.831   5.452 -0.0675  0.2859  0.1613
12911W        W26325   0.751   0.222  13.733 -0.2312 -0.1914  0.1415
12912W        W26326  17.711   0.082  12.619  0.0078  0.1522  0.4471
12913W        W26327   5.430   5.863  14.839 -0.0333 -0.3815 -0.0177
12914W        W26328   7.932  10.207   3.429 -0.0089  0.0141  0.1454
12915W        W26329  13.314   0.773   0.028 -0.0586 -0.0298 -0.0812
12916W        W26330   6.211  13.947  13.293 -0.1330 -0.4103  0.0910
12917W        W26331  10.657  14.903  11.992  0.0718 -0.0381 -0.0233
12918W        W26332  10.135   2.024  16.350 -0.0286  0.0717 -0.1151
12919W        W26333  16.196  18.094   3.161  0.1331  0.0342 -0.1391
12920W        W26334  16.299   4.902  14.908  0.1947  0.1509  0.1940
12921W        W26335   3.365   0.217   4.936 -0.2251 -0.0365 -0.2087
12922W        W26336   5.073  17.947   1.685 -0.2979  0.2410  0.1371
12923W        W26337   2.802   4.425   6.291  0.0423  0.3204  0.0293
12924W        W26338   0.232   6.396   3.157 -0.2042  0.0015 -0.0550
12925W        W26339   4.528  12.443   1.258  0.0021  0.1061 -0.0074
12926W        W26340  10.002  11.728   4.193  0.0967 -0.3281 -0.2520
12927W        W26341  16.903   7.976  14.108  0.0786  0.1453  0.0845
12928W        W26342   8.476  13.352   4.428 -0.1878 -0.2856  0.0031
12929W        W26343  16.739  10.732   3.279 -0.1756  0.1365  0.2406
12930W        W26344  13.654   3.771  14.626  0.1208  0.0824 -0.2998
12931W        W26345   3.336   4.780   1.938 -0.1665 -0.2509  0.1047
12932W        W26346   3.644   3.353  14.775 -0.0440 -0.4695  0.2505
12933W        W26347   9.482  12.886   0.003 -0.1246  0.2199 -0.0161
12934W        W26348   2.471  17.829   2.126 -0.0243 -0.0632  0.0813
12935W        W26349   5.646   7.002  14.743 -0.0083 -0.1348  0.0445
12936W        W26350   4.421   2.093  12.323  0.2249 -0.0065  0.0149
12937W        W26351   2.192  17.657   6.137  0.1904 -0.2660  0.1521
12938W        W26352   8.117   9.094   2.970  0.1246 -0.1406 -0.1948
12939W        W26353  17.258  14.807  14.516 -0.2242  0.0280 -0.1856
12940W        W26354   9.597  11.745   5.379  0.4171 -0.0566 -0.3120
12941W        W26355   3.918   5.718   3.609 -0.1793  0.4085  0.2850
12942W        W26356  14.218  10.880  12.833  0.2329 -0.3496 -0.0784
12943W        W26357   9.685  17.259  11.040 -0.2439 -0.1721 -0.2622
12944W        W26358   2.340   3.032   4.573 -0.2536  0.0653  0.0004
12945W        W26359   9.643  13.789   0.631 -0.1736 -0.1016 -0.1419
12946W        W26360  10.467   0.147  14.904 -0.1294  0.2077 -0.0672
12947W        W26361   3.420   4.284  11.263 -0.3130  0.3412 -0.2977
12948W        W26362  14.989  15.512  13.851  0.4587  0.1149 -0.0174
12949W        W26363   4.753   1.119  15.071  0.1077  0.4927 -0.0922
12950W        W26364   5.350   4.866  15.743 -0.0818  0.0126  0.0171
12951W        W26365   7.980  14.436   1.005  0.0541 -0.1768 -0.0408
12952W        W26366   3.240   5.213  11.509  0.0128 -0.0773 -0.0267
12953W        W26367   4.486  14.724   0.401  0.1219  0.3135 -0.0706
12954W        W26368  16.597   6.519  12.353 -0.2213  0.0434  0.2847
12955W        W26369  14.023  16.015  15.331 -0.1637 -0.0363  0.0366
12956W        W26370  11.499   0.613   3.929  0.3142  0.0653  0.1106
12957W        W26371   3.742  14.086  16.289  0.1006  0.1217 -0.0320
12958W        W26372   9.315  16.445   3.922 -0.0072  0.0494 -0.1334
12959W        W26373  14.089   4.355   0.664  0.1488 -0.1356  0.2006
12960W        W26374  10.361   0.547   4.128 -0.1168 -0.3013  0.2353
12961W        W26375  15.701  15.346  11.759  0.0435 -0.1681 -0.0223
12962W        W26376  10.617   7.688  15.237  0.0982  0.0144 -0.1850
12963W        W26377  12.520   5.966  15.517  0.0487 -0.1692  0.3126
12964W        W26378  14.580   1.205   0.515 -0.2619  0.3075  0.5085
12965W        W26379   1.905   9.500   2.947  0.3442 -0.1145 -0.0091
12966W        W26380   3.450  13.555   3.186 -0.1279 -0.0370 -0.0267
12967W        W26381   2.445   0.504  13.665  0.1214 -0.1691  0.0646
12968W        W26382   0.397  16.698   1.256 -0.1368  0.0920  0.0493
12969W        W26383   1.390   3.292  10.704 -0.1419  0.1112 -0.0405
12970W        W26384   1.295   9.863  12.715  0.1188  0.1140  0.0159
12971W        W26385   8.277   1.513   4.274  0.0635 -0.1297 -0.0227
12972W        W26386   3.783   3.053  10.896  0.1048 -0.2031  0.0315
12973W        W26387   8.297  11.143  13.052 -0.0818 -0.1622  0.1442
12974W        W26388   3.377   5.754   5.876  0.1866  0.0275 -0.2384
12975W        W26389  17.815  16.891   5.664 -0.3113  0.0347 -0.1681
12976W        W26390  15.458   5.179  13.245 -0.4100  0.0643  0.0628
12977W        W26391  10.122   6.741   4.579 -0.1915 -0.2759 -0.3464
12978W        W26392  13.406  11.416   5.940  0.0520  0.1289 -0.4034
12979W        W26393   3.590  16.865   0.872  0.0958  0.1907 -0.1546
12980W        W26394  14.105   3.312  16.186  0.1211  0.0992 -0.1515
12981W        W26395   5.780  14.974  12.405  0.1201 -0.3110  0.1007
12982W        W26396  11.274  16.652   2.877 -0.0554 -0.2058 -0.1514
12983W        W26397  13.721   3.593   2.369 -0.0473 -0.1679  0.1866
12984W        W26398   1.949   1.407  16.248 -0.1579  0.1020  0.0262
12985W        W26399   9.156  12.372   2.427  0.0251 -0.1249 -0.1827
12986W        W26400   4.905   5.430  12.714  0.1009  0.3034  0.2776
12987W        W26401  16.468   0.834  15.521  0.0817  0.1800 -0.1851
12988W        W26402   4.534   8.737  13.567 -0.2180 -0.2377 -0.2338
12989W        W26403   2.675   4.182  15.588 -0.2711  0.1376 -0.1702
12990W        W26404   0.644   1.512   6.386 -0.0939 -0.0533 -0.1454
12991W        W26405   7.734   9.061  11.597 -0.2388  0.0830 -0.0710
12992W        W26406   1.598  10.243  12.830 -0.0393 -0.1794  0.1237
12993W        W26407  11.271  10.255   2.022  0.2739  0.0515  0.1304
12994W        W26408   5.236  13.212   5.601  0.0175 -0.0050  0.0175
12995W        W26409  15.797   1.985   3.510  0.2378 -0.2450  0.0563
12996W        W26410  10.782   2.924  10.747 -0.0146 -0.0843  0.0441
12997W        W26411   7.062  13.373   2.704  0.3470  0.1633 -0.0683
12998W        W26412   0.364   1.437  15.430  0.2775  0.0216 -0.0786
12999W        W26413  10.187   7.098  13.979  0.0247 -0.1280  0.0441
13000W        W26414  10.191   3.207  12.233 -0.2181  0.3613 -0.0486
13001W        W26415  14.386  13.188  10.955  0.3311 -0.0677 -0.1617
13002W        W26416   3.872   8.866  11.120 -0.1500  0.1493 -0.4369
13003W        W26417   6.682  12.449  14.133 -0.1472 -0.0526  0.1604
13004W        W26418  15.777  12.629   2.351 -0.1942 -0.0043 -0.5917
13005W        W26419  14.503  14.207  13.791  0.3794  0.1419 -0.0355
13006W        W26420   3.166  10.878  14.362  0.2501  0.3029  0.1386
13007W        W26421   2.183   7.391   0.006 -0.2698  0.2089 -0.1175
13008W        W26422   0.295  17.272   4.268 -0.2232 -0.0757  0.2533
13009W        W26423  13.571   5.620   3.070  0.0366  0.3998  0.1459
13010W        W26424   7.393   1.418   0.367  0.1610  0.1031 -0.2140
13011W        W26425   6.091  14.058  12.786 -0.1973  0.0678  0.2888
13012W        W26426  17.613   2.728  11.627  0.0952  0.3559  0.1535
13013W        W26427   3.468   4.876  13.530 -0.3156 -0.1136  0.2448
13014W        W26428   4.972   2.271   5.662 -0.2639  0.1875 -0.0965
13015W        W26429   6.299   1.302  11.101 -0.0837  0.2791 -0.1398
13016W        W26430   7.178   7.270  13.956 -0.1141  0.2350 -0.1194
13017W        W26431   3.251   1.815  13.857 -0.0795 -0.0403  0.0672
13018W        W26432  16.450   4.389   3.636  0.2090 -0.1536 -0.0185
13019W        W26433   4.416  17.380   0.864  0.1280 -0.0708 -0.0034
13020W        W26434  14.800  10.367  15.476 -0.0678 -0.1755 -0.0133
13021W        W26435  17.108   8.809  13.338  0.0974  0.0502 -0.1290
13022W        W26436   3.489  13.798  15.771 -0.0512 -0.1451  0.0339
13023W        W26437  18.050   7.831  15.125  0.2544  0.0009  0.0435
13024W        W26438   5.928  12.539   1.515  0.0958  0.1128  0.0328
13025W        W26439   2.132   4.082   0.939 -0.1158  0.0658  0.0911
13026W        W26440   9.246   0.867  14.257 -0.1677  0.0633 -0.0196
13027W        W26441   7.793  13.240  12.699  0.1337 -0.2825  0.0428
13028W        W26442   0.465   2.240  10.195 -0.0486 -0.4862  0.0033
13029W        W26443  15.123  11.966   4.182  0.1940  0.0113  0.1837
13030W        W26444  14.471  11.073  14.450  0.4355 -0.1310 -0.0883
13031W        W26445  12.080  10.844   0.823  0.1449 -0.1210 -0.0474
13032W        W26446  16.295  16.637  13.352 -0.1426 -0.0546  0.2225
13033W        W26447   8.138  10.829   1.635  0.1551  0.1828  0.1721
13034W        W26448   9.411   0.817  11.273  0.0529 -0.5276 -0.0064
13035W        W26449  17.332  14.408  12.851  0.1790  0.0649  0.2434
13036W        W26450   2.406   4.279   2.822 -0.0869 -0.0580 -0.0098
13037W        W26451   6.134  15.996  11.645 -0.0633 -0.1350 -0.2393
13038W        W26452  11.549   7.713  16.028 -0.1161 -0.1097 -0.0136
13039W        W26453   7.299  12.333   5.520  0.1445  0.0125 -0.0440
13040W        W26454   9.216   6.521  12.012  0.1240 -0.0993 -0.0758
13041W        W26455  14.232  12.304  10.484 -0.1361 -0.1596 -0.0027
13042W        W26456   5.114  16.013  12.437  0.2173  0.0369  0.0532
13043W        W26457  13.415  16.824  15.397  0.0266  0.0169 -0.0280
13044W        W26458   5.477   5.197   3.611  0.0107  0.2933 -0.3095
13045W        W26459   7.112  11.119  12.065 -0.1583  0.0476 -0.0176
13046W        W26460   9.753   3.654   3.985 -0.0444  0.0445  0.0499
13047W        W26461   1.599  13.415  13.697  0.0599 -0.1147 -0.0902
13048W        W26462   0.339   5.847   5.571 -0.1541 -0.0245  0.0749
13049W        W26463  12.306  12.250  15.017 -0.0805  0.1626 -0.1707
13050W        W26464  13.841   3.515   6.025 -0.1821  0.1200 -0.0586
13051W        W26465   5.052   4.828  16.205  0.3709 -0.0011  0.0185
13052W        W26466   3.288   8.376  13.195 -0.3112  0.0167  0.2584
13053W        W26467  18.005   0.979  15.862  0.2324 -0.0751  0.1064
13054W        W26468  18.123  16.043   3.119 -0.2059 -0.0952  0.1169
13055W        W26469   6.468   4.141  13.048 -0.0933  0.2013 -0.0175
13056W        W26470   0.833  10.470  12.131 -0.0234 -0.1464  0.4904
13057W        W26471   4.127  13.879  10.410 -0.3138 -0.1524 -0.1061
13058W        W26472   7.584  17.691   0.514  0.0484 -0.2092  0.0843
13059W        W26473   9.936   9.181   1.028 -0.1214  0.1635 -0.2448
13060W        W26474  10.266  18.128  15.382 -0.0685  0.0605  0.4564
13061W        W26475  16.271   1.248  12.764 -0.2110 -0.1131 -0.0446
13062W        W26476  14.704   5.950   0.049  0.1933  0.4551  0.1906
13063W        W26477  16.407   6.742   2.160 -0.2141  0.1610  0.0895
13064W        W26478  11.745  17.443   2.058 -0.1460  0.1630  0.0576
13065W        W26479   7.391  16.758   4.126 -0.6772 -0.1154 -0.0844
13066W        W26480  15.599   6.336  11.348  0.1024 -0.1777 -0.1404
13067W        W26481   9.485  16.469  13.309 -0.1426 -0.0028 -0.1600
13068W        W26482   6.776  17.441   1.483 -0.0272 -0.2434 -0.1920
13069W        W26483   5.696   8.891   5.011 -0.2150 -0.0108 -0.1311
13070W        W26484   9.228   7.382  14.325  0.2058  0.2471  0.0580
13071W        W26485   6.241   3.243  14.067  0.0311 -0.5663 -0.1966
13072W        W26486  15.857   0.720  11.710  0.3083  0.0039  0.1658
13073W        W26487   5.717   6.789   0.578 -0.0304 -0.0048 -0.0158
13074W        W26488  15.970   4.443   5.931 -0.1939 -0.1272 -0.2274
13075W        W26489   5.679  13.013  11.328 -0.2863 -0.0187 -0.3333
13076W        W26490  15.024  13.785   0.891 -0.2146 -0.2007 -0.0468
13077W        W26491  17.697   1.711  16.396  0.1129  0.0256 -0.0968
13078W        W26492   7.975  12.001  11.852  0.2739 -0.0372 -0.1210
13079W        W26493  11.223  14.600   0.529 -0.2463  0.2989  0.0741
13080W        W26494   6.257   1.432   1.105 -0.1405 -0.0919  0.1172
13081W        W26495  10.766   6.355  14.614 -0.3335 -0.1573  0.0039
13082W        W26496   2.766  10.560   2.819 -0.1288 -0.3432 -0.0829
13083W        W26497   9.311   5.331  14.638  0.0508  0.0978  0.2328
13084W        W26498   8.151  13.875   3.654 -0.3483  0.0141 -0.1196
13085W        W26499   9.108   4.554   5.795 -0.3534 -0.1525 -0.0066
13086W        W26500   3.436  11.360   0.198 -0.2776 -0.0674  0.2636
13087W        W26501  11.006  13.837   1.726  0.2128 -0.1666 -0.2773
13088W        W26502  10.125  12.740   2.443  0.0532 -0.0560  0.0060
13089W        W26503   6.819  15.960   3.898  0.0699 -0.2725 -0.2694
13090W        W26504   4.586  17.261  16.338 -0.2077  0.0265  0.1742
13091W        W26505  14.598  11.206   0.213 -0.1823 -0.2975 -0.1368
13092W        W26506   0.269  11.263  10.940 -0.0428 -0.1287  0.0475
13093W        W26507  17.734  10.278   3.357 -0.1554 -0.1538 -0.1668
13094W        W26508  14.204   4.598   3.947 -0.0938 -0.0558  0.1357
13095W        W26509   0.513   4.074   4.369  0.0022 -0.1117  0.0461
13096W        W26510  15.392  17.491  13.911  0.0784 -0.1385 -0.0057
13097W        W26511   3.497   9.881   0.577 -0.2552 -0.1803  0.0963
13098W        W26512  11.120   8.957  14.948 -0.1810 -0.2532 -0.0315
13099W        W26513   5.704   2.805  15.812  0.2011 -0.0951 -0.3186
13100W        W26514   2.318   2.347  14.371  0.0959 -0.0990 -0.1631
13101W        W26515   1.544  16.404   2.082 -0.2503  0.0481  0.0974
13102W        W26516   0.353   0.804  11.789  0.1712  0.0543 -0.4267
13103W        W26517   2.559  16.395  13.690  0.2711  0.0075  0.0983
13104W        W26518   8.614   6.393   5.212 -0.2079  0.1311 -0.1082
13105W        W26519   8.926   0.839  12.545 -0.1355  0.1356  0.1510
13106W        W26520   9.891  18.186  12.593  0.0949 -0.0567 -0.0595
13107W        W26521  13.697   2.859  14.064 -0.1671  0.2228  0.0348
13108W        W26522  17.636  13.874   3.795  0.2715  0.0833 -0.2087
13109W        W26523   1.529   3.735  12.057 -0.2776 -0.0424 -0.0445
13110W        W26524  14.256   2.913   2.849 -0.0189 -0.2430 -0.0213
13111W        W26525   4.931  11.211   4.126  0.1834  0.0160 -0.2353
13112W        W26526   4.741   2.916  13.875  0.1194  0.0899 -0.0481
13113W        W26527   1.948   7.758  11.608 -0.4541  0.4020 -0.0105
13114W        W26528   3.115  13.129   0.614  0.0977  0.0586 -0.4980
13115W        W26529   2.208   6.930  13.883 -0.1267 -0.0461  0.1510
13116W        W26530   9.956  11.245   4.086  0.4232  0.0053  0.1448
13117W        W26531   3.043   4.524  14.753  0.0201 -0.0758 -0.0350
13118W        W26532   5.739   4.764   2.006  0.1143 -0.4058 -0.2083
13119W        W26533   1.811   2.264   1.821  0.0772 -0.0928  0.2088
13120W        W26534  14.662   2.545   1.212 -0.0115 -0.1746 -0.1799
13121W        W26535   5.156  13.264  15.727  0.0171 -0.0598 -0.0498
13122W        W26536   0.478   8.066  12.385  0.0984 -0.4829  0.4002
13123W        W26537  13.841  17.359  15.969 -0.1726 -0.0840  0.0904
13124W        W26538  15.402   8.653  11.358  0.1299  0.1080 -0.2926
13125W        W26539  13.960   0.940  10.680  0.1575 -0.0278 -0.2639
13126W        W26540  11.438   2.440  10.884  0.0867 -0.1787  0.1066
13127W        W26541   2.588   4.152   0.723 -0.4198 -0.1026  0.1960
13128W        W26542   3.968  14.541   2.088 -0.1409 -0.0378  0.2406
13129W        W26543  14.537   3.040   1.105  0.2503 -0.0008  0.2998
13130W        W26544   0.737  14.821  14.656  0.2533 -0.1532  0.1899
13131W        W26545   9.904  13.925  16.312 -0.2762  0.0529  0.1121
13132W        W26546   3.473   6.444   0.467 -0.1767  0.2014 -0.4694
13133W        W26547   2.779  13.781  13.539 -0.0479 -0.0458  0.2323
13134W        W26548   9.445  15.776   4.685  0.0257  0.0463  0.3106
13135W        W26549  12.633  11.460  15.428 -0.0110 -0.0360  0.0383
13136W        W26550  15.112   0.241   5.922 -0.0067 -0.1724  0.4528
13137W        W26551   4.200   8.892  11.525  0.0305 -0.3260  0.1344
13138W        W26552   6.738   3.563  10.921  0.1883  0.2821  0.2142
13139W        W26553   4.893  14.299   4.219 -0.1494 -0.2369  0.0998
13140W        W26554  17.330   0.921  13.708 -0.2752 -0.0083  0.0670
13141W        W26555  15.418  11.548  16.233 -0.0656  0.2660  0.1043
13142W        W26556   5.760   4.932  14.422  0.2078  0.1245  0.3359
13143W        W26557   1.257  16.215  14.671 -0.1514  0.0735  0.0184
13144W        W26558  11.255   5.067   0.186  0.2929 -0.2720  0.0765
13145W        W26559  13.370   8.809   5.507  0.0531 -0.0475 -0.2341
13146W        W26560  18.142  16.581  13.703  0.0275 -0.0755  0.1527
13147W        W26561   2.250  17.101   5.266 -0.2982  0.1234 -0.2475
13148W        W26562   3.158  15.877  14.823 -0.0168  0.2132  0.1819
13149W        W26563   5.307  10.758  14.232 -0.1903 -0.3992 -0.0628
13150W        W26564  12.571   8.031   5.672  0.1675 -0.0677 -0.2583
13151W        W26565   5.247  14.801  12.223  0.0816  0.1370 -0.3343
13152W        W26566   0.968  15.611  11.938 -0.2473 -0.1992 -0.0991
13153W        W26567   9.572   8.991   3.702 -0.0412 -0.3333  0.0446
13154W        W26568   4.528   1.460   4.659 -0.0760  0.0557  0.2324
13155W        W26569  10.975  12.425  14.692  0.0075  0.1512  0.1596
13156W        W26570  10.556  17.984  13.564 -0.0368  0.2564  0.1903
13157W        W26571  16.863  15.539  15.322 -0.1307 -0.0724 -0.2136
13158W        W26572  15.725   3.397  14.294  0.0667 -0.0274 -0.1070
13159W        W26573   3.034  10.578  12.334  0.0356 -0.2588 -0.1539
13160W        W26574  18.199  10.876   0.007 -0.0123  0.0050 -0.0129
13161W        W26575  10.591  11.985   1.501 -0.0053 -0.1619  0.1673
13162W        W26576   5.585  14.638  11.937 -0.0428  0.1648  0.3867
13163W        W26577   7.057   1.677  14.403 -0.1145  0.0290  0.2717
13164W        W26578   3.262   8.545   6.873  0.1368 -0.1159  0.3270
13165W        W26579   1.205   7.775   1.671  0.3044  0.0073 -0.0686
13166W        W26580   8.108   8.745   0.224 -0.1379 -0.3388  0.0902
13167W        W26581   7.781  15.362  15.146  0.1245 -0.1510 -0.1971
13168W        W26582  12.823  11.864  14.113  0.0680 -0.1579  0.1657
13169W        W26583   3.269   3.326   1.813  0.2647  0.1793  0.1658
13170W        W26584  16.172   4.713  12.620  0.0118  0.1029  0.4550
13171W        W26585  17.871   6.540   3.783  0.1936 -0.2032  0.1669
13172W        W26586   0.551   7.991   1.646 -0.0003 -0.0917  0.1216
13173W        W26587  12.236   3.856   5.489  0.3052  0.0383 -0.0793
13174W        W26588   8.592   9.510   4.352  0.0243 -0.1254 -0.2247
13175W        W26589   9.949  16.752   3.075 -0.1767  0.0415 -0.1591
13176W        W26590   7.513  11.911  11.603  0.0351 -0.0567 -0.0191
13177W        W26591   2.033   4.001  11.428 -0.0136 -0.0314 -0.2225
13178W        W26592  13.497   6.019  12.061 -0.1738  0.0407  0.0925
13179W        W26593  13.676   3.202   0.712 -0.0882 -0.0953 -0.1610
13180W        W26594   8.337  14.747  16.136  0.0893  0.0793  0.2516
13181W        W26595   1.362  15.212   5.308  0.2709 -0.0001 -0.0944
13182W        W26596   9.435  13.869  12.373 -0.1479  0.1628 -0.1574
13183W        W26597   6.152   7.389  13.901  0.1680  0.1987  0.1904
13184W        W26598   2.195  12.397   2.636 -0.0421 -0.0611 -0.0300
13185W        W26599  15.999   1.063  11.326 -0.0933  0.0847 -0.6064
13186W        W26600   9.964  14.481   3.450 -0.0929  0.1020  0.1225
13187W        W26601  16.359   1.020   4.951  0.0587  0.0855 -0.0971
13188W        W26602   1.441  17.191  13.342 -0.0128  0.2366  0.2257
13189W        W26603  13.646   6.418   3.078  0.1933  0.1114  0.3385
13190W        W26604   8.655   8.412  12.852 -0.0284  0.0993 -0.1311
13191W        W26605  11.746   9.568  14.769 -0.2208 -0.2169 -0.1395
13192W        W26606   5.685  10.636  16.092  0.3233 -0.0451  0.0690
13193W        W26607   4.412   9.270   0.526  0.0529 -0.0369 -0.1322
13194W        W26608   0.042   3.744   3.167 -0.1603 -0.2622 -0.0090
13195W        W26609  10.139   5.348  15.265  0.1959 -0.0687 -0.2201
13196W        W26610   7.953  14.346   5.260 -0.4052 -0.2628 -0.3028
13197W        W26611  10.302   7.357  12.994  0.1380 -0.0108 -0.0701
13198W        W26612   4.003  16.243   2.264 -0.2031 -0.0608  0.1069
13199W        W26613   2.222  15.078   3.034  0.4592 -0.2355  0.2330
13200W        W26614   1.293  12.178  13.186  0.0464  0.1836  0.0441
13201W        W26615  16.654  17.561  10.219 -0.1076  0.1560 -0.3805
13202W        W26616  14.319  13.601  11.975 -0.0294  0.3279 -0.1189
13203W        W26617   8.671   3.434  15.861 -0.1443  0.0024 -0.0938
13204W        W26618  15.687  15.929   4.217 -0.1006  0.1015 -0.2012
13205W        W26619  17.168   7.849   2.770  0.1804 -0.0841  0.0169
13206W        W26620   6.283   6.453   2.495  0.0147  0.1940  0.1045
13207W        W26621  10.742  10.455   3.267 -0.1303 -0.1151  0.0991
13208W        W26622   2.940   4.679  15.832  0.1183 -0.5319  0.2052
13209W        W26623   0.028   7.671  15.542 -0.1207  0.0019 -0.2905
13210W        W26624   9.557  11.526  14.361  0.1847  0.0144 -0.1933
13211W        W26625   6.284   3.533   0.747  0.3533  0.1052  0.1155
13212W        W26626  13.552   3.064   1.730  0.2101  0.0006  0.2147
13213W        W26627   7.057   6.459   2.961  0.4691  0.1254  0.0246
13214W        W26628   5.450  17.220   3.092 -0.1405  0.1333 -0.1055
13215W        W26629  13.902   0.771  12.515 -0.3414 -0.1543  0.2896
13216W        W26630  15.080   2.050   2.900  0.0989  0.0588  0.1698
13217W        W26631  14.244   1.937   1.145  0.1131  0.1406 -0.3997
13218W        W26632  12.499   4.190  15.110 -0.0599 -0.1447  0.1426
13219W        W26633   4.387  16.985   5.284 -0.0161 -0.1878  0.0365
13220W        W26634  12.045  13.180  12.410  0.0503 -0.0376 -0.1217
13221W        W26635  11.134   9.656   4.186 -0.1130 -0.2121 -0.0325
13222W        W26636  10.204  16.255   4.475  0.0606 -0.2113 -0.0280
13223W        W26637  17.811  11.154   2.711  0.1873 -0.2584  0.0827
13224W        W26638  11.917  13.138  12.938  0.1576 -0.2881 -0.0698
13225W        W26639  18.192  10.348  13.390  0.0098 -0.0788  0.0589
13226W        W26640  15.696  16.400  11.201  0.0798 -0.0165  0.0448
13227W        W26641   7.463   0.914   1.355 -0.3328  0.0904  0.2749
13228W        W26642   3.795  17.972   1.943  0.0500  0.1518  0.1464
13229W        W26643  16.295   9.083   1.751  0.3063 -0.1401  0.2220
13230W        W26644   9.052   3.401   3.362 -0.0458 -0.0416  0.0328
13231W        W26645   7.549  10.497  14.527  0.3283  0.1288 -0.2935
13232W        W26646  11.205   6.931  11.787 -0.1288  0.1363 -0.0527
13233W        W26647   7.543  16.558  14.186  0.0691  0.1906  0.4726
13234W        W26648  17.346  13.020   4.335  0.0174  0.2509  0.1765
13235W        W26649   2.155  11.285  13.165 -0.1151 -0.1430  0.1870
13236W        W26650   2.440   4.648  14.070 -0.0451 -0.0406  0.4258
13237W        W26651   7.148   7.310   1.877  0.1944  0.2358 -0.1606
13238W        W26652   4.327  12.704   4.652  0.1243 -0.2869  0.3791
13239W        W26653  15.286  13.081  13.940 -0.0797 -0.0720 -0.0401
13240W        W26654  17.752   8.800  14.953 -0.2205 -0.1160 -0.2221
13241W        W26655   1.033  12.608   1.750 -0.0712 -0.1521  0.3068
13242W        W26656  15.419   5.067   4.193 -0.0096  0.0402 -0.2857
13243W        W26657   8.910   1.233   3.713  0.0968  0.1643  0.1647
13244W        W26658   9.219  12.334   0.014 -0.0355 -0.1392 -0.2535
13245W        W26659   0.141   2.480  15.902  0.1909 -0.1675 -0.1338
13246W        W26660   2.332   9.019  12.421 -0.1136  0.3289  0.1620
13247W        W26661   9.996  17.346   4.177 -0.3662  0.0361 -0.2971
13248W        W26662   9.136   2.841  13.048 -0.1991 -0.0703  0.1318
13249W        W26663  14.035  14.557  15.502 -0.0914  0.1309  0.0556
13250W        W26664   8.767   8.084   2.361 -0.3627  0.0947 -0.0491
13251W        W26665   4.905  14.725   1.315  0.2394 -0.0045 -0.0138
13252W        W26666   7.719  16.898   5.564  0.0005 -0.1103  0.0905
13253W        W26667  13.476   7.045   4.284 -0.1952 -0.1069 -0.1116
13254W        W26668  13.124   3.562   2.403 -0.1694  0.0699 -0.0941
13255W        W26669   4.776   6.026   6.036 -0.0019 -0.3558  0.1732
13256W        W26670   9.537   9.339   4.402 -0.1128  0.1483  0.0411
13257W        W26671   7.517  11.525   4.383 -0.1358  0.1117  0.1917
13258W        W26672  13.805   7.440   2.855 -0.0543 -0.1083 -0.0553
13259W        W26673  13.090  17.156  16.085 -0.2582  0.2846  0.0774
13260W        W26674   3.972   4.932   5.946  0.1908  0.0691 -0.4809
13261W        W26675   8.779   7.431  12.743 -0.1806  0.0260 -0.0846
13262W        W26676  10.173  17.742   3.757  0.2440  0.0552  0.3887
13263W        W26677   6.636  17.330  10.816  0.0309 -0.0440 -0.1587
13264W        W26678  17.983   4.270   0.834  0.4208  0.0829 -0.4966
13265W        W26679  17.017  11.847   4.399 -0.0792  0.2690 -0.0243
13266W        W26680   8.540   7.050  12.552 -0.1026  0.1697 -0.0389
13267W        W26681  15.179  12.997   2.835 -0.0090 -0.3938 -0.1267
13268W        W26682   5.220   4.479  13.673  0.0947 -0.0888  0.0546
13269W        W26683  13.296  13.439   2.760 -0.1499 -0.1356 -0.3355
13270W        W26684   4.457   1.980   1.721  0.1865  0.1734 -0.1298
13271W        W26685  14.121   3.908  13.659  0.3192  0.0464 -0.0361
13272W        W26686  13.658   6.793  12.662  0.2628  0.1828 -0.2852
13273W        W26687  11.797   6.147   2.198 -0.1841  0.2243  0.0497
13274W        W26688  13.004   9.165  12.593  0.0693  0.1953 -0.0407
13275W        W26689   7.441  14.546   2.722 -0.0510  0.2805  0.1890
13276W        W26690  14.695  17.117  14.765  0.2841  0.0851 -0.1852
13277W        W26691   1.170   8.384  16.431  0.3683 -0.0110 -0.0148
13278W        W26692   2.278  15.568   1.989 -0.2233 -0.2452 -0.1881
13279W        W26693   5.582  15.657  15.787  0.0493  0.2340 -0.2776
13280W        W26694  16.133   2.077  12.212  0.2272 -0.1871  0.0847
13281W        W26695  17.601  14.607  14.144 -0.1694  0.3189 -0.1697
13282W        W26696  16.051   6.305  15.879 -0.1304 -0.0354  0.4790
13283W        W26697  12.645  13.548   3.517  0.0757 -0.0315 -0.1885
13284W        W26698  10.034  10.631  11.449 -0.3189 -0.0331 -0.0692
13285W        W26699  17.894  10.416  16.348 -0.1260 -0.1550 -0.2820
13286W        W26700   3.828   2.109   0.784  0.0456 -0.2394  0.2667
13287W        W26701  10.241   0.247  15.818 -0.2390  0.0984  0.0542
13288W        W26702   3.504  16.617  12.646  0.0517  0.3461  0.1004
13289W        W26703   8.224   7.443  14.396  0.4717 -0.2482 -0.2150
13290W        W26704   5.824   7.983   1.686 -0.1075 -0.2226  0.0469
13291W        W26705  10.931   4.720   2.523  0.0307 -0.1330 -0.2242
13292W        W26706  17.600   5.175   3.777  0.0822 -0.0821  0.0689
13293W        W26707   4.594  17.365  10.351 -0.0719  0.1212  0.1176
13294W        W26708   1.778   8.493   1.348 -0.2891  0.1352 -0.2015
13295W        W26709   0.638   1.707  11.868  0.2214  0.0722  0.0681
13296W        W26710   7.550  11.484   0.260  0.4360 -0.0927 -0.1924
13297W        W26711  12.065   6.386  10.567 -0.1052  0.0180 -0.1579
13298W        W26712   0.403   9.861  12.697 -0.0602  0.0736 -0.1170
13299W        W26713  15.392   4.102  13.096 -0.4478  0.1335 -0.3457
13300W        W26714   5.514   3.718  10.264  0.2200 -0.0631 -0.1061
13301W        W26715   3.853  12.118   0.167  0.0037 -0.0236 -0.0334
13302W        W26716  11.548   7.137  13.758 -0.0252  0.1194 -0.2601
13303W        W26717  11.286   7.297  15.846  0.2627 -0.1286  0.0662
13304W        W26718   7.073  11.236  15.519  0.1684  0.0429 -0.0026
13305W        W26719  17.603   2.133  10.666 -0.1234 -0.2089 -0.3063
13306W        W26720   9.071  11.888   5.611  0.4200 -0.0072  0.1608
13307W        W26721  14.940   7.520   1.141 -0.0817 -0.3019  0.1014
13308W        W26722  15.655  15.380  10.852 -0.1708  0.1947  0.0646
13309W        W26723  10.769  16.495   3.718 -0.1677 -0.3476 -0.0772
13310W        W26724  10.412   8.892   2.831 -0.1728 -0.0079  0.0437
13311W        W26725   7.154  16.628  12.577 -0.1231 -0.4468 -0.0492
13312W        W26726  10.711   9.906  12.597  0.1637 -0.1583  0.1667
13313W        W26727   8.365  12.701   2.058  0.3250  0.3714  0.0982
13314W        W26728  11.634   1.444   1.484 -0.1918 -0.2254  0.1802
13315W        W26729   8.414   0.176  15.825  0.2280 -0.2204  0.0355
13316W        W26730   7.523  16.921   9.812  0.1249 -0.0041  0.3094
13317W        W26731  12.563   3.911  16.427 -0.0047 -0.0370  0.0802
13318W        W26732  11.550   2.691   5.278  0.1103 -0.0521  0.2031
13319W        W26733   1.745   5.848   3.152  0.1474 -0.0830  0.0996
13320W        W26734   6.613  15.428   4.783 -0.1337  0.0572  0.2427
13321W        W26735   2.780  11.765  13.615  0.1644 -0.0904 -0.0166
13322W        W26736  17.560  10.694   4.479  0.0181 -0.1139 -0.0926
13323W        W26737   3.590  15.154   3.596 -0.1459  0.2392 -0.0484
13324W        W26738  11.942  16.786   1.206 -0.0909 -0.0655 -0.1560
13325W        W26739   3.555  10.848   3.580  0.0124  0.0545 -0.1166
13326W        W26740   2.018   8.744  10.675 -0.1339 -0.1908 -0.2692
13327W        W26741  10.742   8.013   4.786 -0.0768 -0.2827  0.1871
13328W        W26742  17.120   0.610   0.571  0.0396  0.0693  0.1338
13329W        W26743   1.097   7.499  11.435  0.2365  0.0312  0.0336
13330W        W26744   8.329  17.644  16.439  0.2176 -0.0039  0.0729
13331W        W26745   0.353   2.225  13.144  0.3390  0.1834  0.1431
13332W        W26746  10.961  14.713   2.647  0.1239 -0.0992 -0.0126
13333W        W26747   7.124  16.782  14.335 -0.0329  0.0158  0.1207
13334W        W26748   5.565  18.069   5.353 -0.0581  0.0790 -0.2024
13335W        W26749   7.282  17.830  12.974  0.0506  0.0553 -0.2442
13336W        W26750   3.474  10.372  12.345 -0.1338  0.0445 -0.2578
13337W        W26751   0.469  15.362  12.848  0.0716  0.1280 -0.1115
13338W        W26752   4.575  10.899   2.829  0.0500  0.0467 -0.1560
13339W        W26753  16.842  12.778  14.233 -0.2373 -0.0315  0.0719
13340W        W26754  12.785  10.450   1.176 -0.2950  0.2598  0.0660
13341W        W26755  14.423  12.849  13.433 -0.1271  0.3745  0.0624
13342W        W26756   9.435   2.539  14.503  0.0240 -0.2459 -0.2256
13343W        W26757  15.760   1.996  14.263  0.0452  0.0439  0.0867
13344W        W26758  15.755  17.056   4.080 -0.0168  0.0821  0.0667
13345W        W26759   0.237  10.442  16.245  0.0483 -0.1082 -0.0621
13346W        W26760  12.911  12.009   1.729  0.3035 -0.1272 -0.1464
13347W        W26761  15.544   9.180   6.451  0.1823  0.0494 -0.1626
13348W        W26762   5.029   7.727   2.007 -0.3158  0.1037  0.3257
13349W        W26763   0.381   7.878  11.619  0.0549  0.3028  0.1311
13350W        W26764  10.403  16.548  12.877  0.2521  0.3133 -0.3268
13351W        W26765  17.026  12.918   3.279 -0.2876  0.0073 -0.3675
13352W        W26766   8.810   3.412   9.862 -0.0190 -0.0032  0.3252
13353W        W26767   1.648   0.992   1.285 -0.1569 -0.1035 -0.0475
13354W        W26768   7.390  11.379   1.422 -0.2171  0.2430  0.2518
13355W        W26769  17.370  17.571  15.184  0.1820 -0.1409  0.0058
13356W        W26770   8.872   0.757   0.542 -0.0353 -0.0318 -0.0791
13357W        W26771   6.817  16.460   4.115 -0.2497 -0.0517  0.2671
13358W        W26772   6.048  14.380   1.438 -0.0204 -0.1750  0.1327
13359W        W26773   0.625   8.947  16.374 -0.0471  0.2898  0.3041
13360W        W26774   0.464   6.171   3.539 -0.1853  0.3248 -0.1015
13361W        W26775   0.474   7.980   4.515 -0.1565 -0.0543 -0.0710
13362W        W26776   3.987  16.946  14.707 -0.1095  0.0027 -0.1147
13363W        W26777   6.380  12.501  11.747  0.1376  0.2706 -0.0801
13364W        W26778  12.616  16.625  10.654 -0.1185 -0.0810  0.1801
13365W        W26779   9.214   5.029  12.938  0.2242  0.0806 -0.2865
13366W        W26780   9.333   1.559  11.669 -0.1708 -0.3630 -0.0773
13367W        W26781   3.668  13.906   4.392  0.0193  0.0692 -0.0980
13368W        W26782   9.867  10.653   5.768  0.0259  0.1032  0.0654
13369W        W26783  16.148   2.253   3.741 -0.3441  0.0218  0.2869
13370W        W26784  15.219   3.653   5.534  0.0848 -0.0746  0.1821
13371W        W26785   6.171  17.415   5.237  0.3105 -0.0170  0.0040
13372W        W26786   1.007  10.678  11.706  0.0160 -0.0166 -0.2006
13373W        W26787   8.453  10.528   2.517 -0.0298 -0.1935  0.0576
13374W        W26788  13.374  11.369   3.261  0.2475 -0.0677 -0.0100
13375W        W26789  11.436  16.677   1.891 -0.2827 -0.4007 -0.2025
13376W        W26790  13.975   1.646   5.602 -0.2450  0.2273  0.0432
13377W        W26791   3.977   9.199  16.426  0.1626 -0.0711 -0.2182
13378W        W26792  12.283  18.193  14.350 -0.0297 -0.0837 -0.1656
13379W        W26793  14.968  17.303   3.327 -0.1865 -0.3180  0.3380
13380W        W26794   5.105   4.773   3.459  0.1510  0.0069  0.1074
13381W        W26795  16.197  16.247   1.592 -0.0675 -0.2678 -0.0777
13382W        W26796  14.735   5.199  11.348  0.0701 -0.2495 -0.3416
13383W        W26797   3.831   1.593   5.113 -0.1380 -0.0977  0.0627
13384W        W26798  17.153  15.326   5.361  0.1106 -0.1220 -0.0594
13385W        W26799   7.014   9.102  12.490 -0.0773  0.3228  0.0307
13386W        W26800   4.218  17.062   3.871 -0.2132  0.1735 -0.0728
13387W        W26801  13.147  11.978   0.291 -0.3101  0.1406 -0.3389
13388W        W26802   4.343   1.563  16.234 -0.1450 -0.0027 -0.0320
13389W        W26803   3.476   1.316   4.197  0.2158 -0.1072  0.1856
13390W        W26804   0.116  15.859  13.123  0.1156  0.0586  0.4084
13391W        W26805  14.579  10.242   5.572 -0.0808  0.2022  0.1887
13392W        W26806   9.433   7.398   2.033 -0.1437 -0.0408 -0.0556
13393W        W26807  11.194   0.176   0.809 -0.0584 -0.3146 -0.0168
13394W        W26808  15.958  15.871   5.434 -0.3865  0.1966  0.1828
13395W        W26809   4.407   3.204  13.579 -0.0638 -0.2136 -0.0960
13396W        W26810   9.654  12.054  11.620  0.0531 -0.2408 -0.1397
13397W        W26811  14.257  10.893   0.910 -0.0262  0.2613 -0.0210
13398W        W26812   6.530  17.813   0.298 -0.1387  0.0194 -0.1378
13399W        W26813   7.492   6.026  10.405 -0.2720 -0.1582  0.1137
13400W        W26814   3.724  12.627  14.218  0.0585  0.1510  0.1351
13401W        W26815  13.821  16.176  12.349 -0.0100  0.1090  0.0894
13402W        W26816   7.648   1.242   5.143 -0.0684 -0.1878 -0.0454
13403W        W26817   6.301   6.398   5.377  0.1860 -0.3782  0.1176
13404W        W26818   3.039   4.287   1.942  0.2595  0.0191 -0.0952
13405W        W26819   4.978   1.280   2.791  0.1216 -0.0379  0.0609
13406W        W26820   6.441  14.042   3.498  0.0821 -0.1088  0.0776
13407W        W26821  10.880  14.513   4.650  0.0874 -0.0395  0.0815
13408W        W26822  14.019   9.256  12.075 -0.1940 -0.0213  0.0827
13409W        W26823  11.955   4.725   1.943  0.1863  0.1053  0.0158
13410W        W26824   5.540  15.657   0.181  0.1302 -0.0237  0.1593
13411W        W26825   3.586   1.762  15.349  0.1348  0.4434  0.1004
13412W        W26826   7.748  13.684   3.444 -0.0801  0.2171 -0.0102
13413W        W26827   5.106   1.776  11.224  0.0405 -0.0719  0.0900
13414W        W26828  15.683   1.110  14.121 -0.0007 -0.2295  0.0899
13415W        W26829   9.320  10.251   1.866  0.0126 -0.2092  0.0131
13416W        W26830  11.464   8.494  13.994 -0.3023 -0.3001 -0.3227
13417W        W26831   6.906   2.618  11.154 -0.0941  0.0806 -0.0058
13418W        W26832  10.099   4.094  13.193  0.1801 -0.0919 -0.1975
13419W        W26833  16.929   4.900   3.484 -0.0843  0.3049  0.1495
13420W        W26834   6.207   4.507  15.315 -0.0286  0.1380  0.0268
13421W        W26835  14.670   2.998   1.603 -0.1569  0.0192  0.0879
13422W        W26836   0.690   7.654   4.881 -0.0640  0.0367 -0.0226
13423W        W26837   8.493  16.250  15.322  0.0090 -0.1986 -0.2766
13424W        W26838   5.789  15.715  11.816  0.0307 -0.1244 -0.0361
13425W        W26839   2.404   0.202  12.691  0.0381  0.1774  0.0845
13426W        W26840   9.731  16.381   1.193 -0.1441  0.0025  0.1605
13427W        W26841  12.050   4.425  15.371 -0.2131 -0.1237  0.1573
13428W        W26842  11.271   2.031   0.675 -0.2942 -0.0876 -0.1488
13429W        W26843   7.144   1.957  15.032 -0.0208 -0.2878  0.0276
13430W        W26844   4.107   4.991   1.219 -0.1045 -0.2909 -0.0671
13431W        W26845   1.613   8.184   0.839 -0.1393  0.2853  0.0662
13432W        W26846   2.768   2.737   4.698  0.2967  0.1350 -0.0294
13433W        W26847  17.889   2.602   3.359 -0.0865 -0.0652 -0.0359
13434W        W26848   4.630   8.222  13.425  0.0613  0.0859 -0.1363
13435W        W26849   9.169  10.783  13.016  0.0234  0.1488  0.0875
13436W        W26850   1.684   0.321  13.902 -0.1945  0.0263  0.0461
13437W        W26851   6.943   3.039  12.452  0.2127  0.0603  0.0019
13438W        W26852   3.999   8.306   0.076  0.0451  0.0785  0.0784
13439W        W26853  17.270   5.776  14.568  0.1626 -0.0723  0.0330
13440W        W26854  12.983  15.458  13.398  0.0377 -0.0168  0.0533
13441W        W26855  14.104  14.353  11.686 -0.2381  0.1048 -0.1568
13442W        W26856  13.534  10.851  14.384 -0.2774 -0.1443 -0.0987
13443W        W26857   7.611  11.281   6.301  0.1149  0.1456  0.0181
13444W        W26858   3.096   1.389   0.526 -0.2383  0.3392  0.1229
13445W        W26859   6.519  11.973   2.148 -0.1109  0.0099  0.1125
13446W        W26860  13.863  10.523   1.599 -0.0382 -0.1329 -0.1407
13447W        W26861   1.739   1.945  11.253 -0.0480 -0.0424  0.0168
13448W        W26862   3.403  12.090   4.548  0.0902  0.1326 -0.0536
13449W        W26863   9.769   1.026  12.559 -0.1701  0.0044 -0.0644
13450W        W26864   6.389   5.630  13.963 -0.2361 -0.1537 -0.2438
13451W        W26865   9.595  15.036   2.786 -0.1261 -0.0839 -0.1180
13452W        W26866   0.650   9.118  13.849  0.0467  0.2027  0.0065
13453W        W26867   5.766  11.616  16.029 -0.1044 -0.0693 -0.0435
13454W        W26868   4.261   0.780   5.186  0.2531 -0.2518 -0.0685
13455W        W26869  17.169  11.097   0.701  0.1366  0.0013  0.1775
13456W        W26870  14.779   6.671  11.553  0.0943  0.1243  0.0557
13457W        W26871  14.122   4.177   4.242 -0.1182  0.2190 -0.2352
13458W        W26872  15.154   8.908  10.899 -0.2666  0.0460  0.2025
13459W        W26873   8.317  12.344  12.871 -0.0083  0.0255  0.1856
13460W        W26874   5.121   5.766   5.753 -0.2707  0.0629  0.1191
13461W        W26875   2.129   3.258   5.355  0.0955  0.0735  0.1560
13462W        W26876  11.773  16.945   2.246  0.2087 -0.2107 -0.0025
13463W        W26877   2.748  17.366  14.805 -0.0430  0.1555  0.0591
13464W        W26878   5.888   0.493  15.740 -0.2152 -0.0361 -0.2105
13465W        W26879  13.405   7.570   6.109 -0.0243  0.0108 -0.1048
13466W        W26880  14.313  13.923   4.916  0.1019 -0.1315 -0.0756
13467W        W26881   9.464   7.655  10.782 -0.1340 -0.0454 -0.3040
13468W        W26882   9.342   1.848  16.059 -0.0519  0.1921  0.1477
13469W        W26883   1.393  13.952   3.402 -0.0221 -0.1077 -0.0832
13470W        W26884   4.142   6.812  15.017  0.1574 -0.1931 -0.0290
13471W        W26885  12.627   7.334   5.024 -0.1192 -0.0642  0.1142
13472W        W26886   6.202  10.592  15.424 -0.1437 -0.0424 -0.0573
13473W        W26887   6.508  11.151  16.046  0.0137 -0.2128  0.0176
13474W        W26888  15.819   1.198  14.576  0.1468  0.0136  0.2295
13475W        W26889   0.847   2.796  13.461  0.0264 -0.1300  0.1359
13476W        W26890  14.155  11.196   2.953  0.0406 -0.1110 -0.3380
13477W        W26891  10.276  18.010   4.182 -0.0904 -0.0733  0.0718
13478W        W26892   4.123   1.240   4.896 -0.0837  0.1308 -0.2075
13479W        W26893  16.629  13.582  15.675  0.0993  0.1615 -0.3850
13480W        W26894  15.044   2.732  13.278  0.0025  0.2861 -0.2367
13481W        W26895  16.233   0.687   4.578  0.2737  0.0715 -0.1492
13482W        W26896   1.381   5.356  13.796 -0.1132  0.3133 -0.1204
13483W        W26897  15.211   3.531   3.971  0.2682 -0.3324  0.0930
13484W        W26898  13.079  12.089   5.378 -0.1593 -0.0606 -0.2816
13485W        W26899   4.475   9.244  14.337  0.4117 -0.0968  0.1045
13486W        W26900  14.759   6.631  12.150  0.1888  0.1750  0.2743
13487W        W26901  12.707  13.000   2.891  0.1651 -0.1932 -0.1091
13488W        W26902   9.804  16.772  14.130 -0.2069  0.1589 -0.0348
13489W        W26903   9.060  16.807  12.159  0.0685  0.0699  0.1235
13490W        W26904  15.300   6.323  14.334  0.3075  0.1492 -0.1288
13491W        W26905   0.337   6.915   2.579 -0.1933  0.0786  0.3334
13492W        W26906   4.556   7.424  15.711  0.0650 -0.1936 -0.3626
13493W        W26907   9.118   4.630  11.732  0.2036 -0.1497 -0.0417
13494W        W26908   4.727  15.538  16.243 -0.1703  0.2004 -0.2418
13495W        W26909   1.459  16.938   2.306 -0.1158  0.0995  0.1921
13496W        W26910   3.614   2.980   2.258  0.1102  0.0009  0.2449
13497W        W26911   6.875   5.572   5.327  0.2082  0.0343  0.1399
13498W        W26912  12.935   0.677  15.262 -0.0997 -0.1424 -0.1008
13499W        W26913   9.579  11.126  14.086  0.0644  0.0120  0.1264
13500W        W26914   1.333  14.079  14.920  0.0111 -0.1645  0.0040
13501W        W26915  14.004   3.756  12.805  0.0342  0.0148  0.1921
13502W        W26916  14.563  18.165   2.456  0.1992 -0.0664  0.2450
13503W        W26917  11.368   6.479   4.719 -0.0143 -0.0334  0.2243
13504W        W26918   6.309  14.789   5.085  0.2528  0.2537  0.1411
13505W        W26919  14.564  17.130  11.286 -0.1242 -0.1861 -0.0825
13506W        W26920  12.296  17.730   1.059  0.0671  0.0633 -0.0163
13507W        W26921  14.612   0.092  11.545 -0.1626  0.0681  0.0747
13508W        W26922  10.702   6.511   3.659 -0.0530 -0.0564 -0.0812
13509W        W26923  10.126   5.487  12.391  0.1512  0.0582 -0.0786
13510W        W26924  16.202  12.976   4.859 -0.1208  0.0832 -0.1602
13511W        W26925   6.490   7.812   3.097 -0.1821 -0.0695 -0.2512
13512W        W26926  15.779  11.192  13.238  0.1061  0.1067 -0.1331
13513W        W26927   4.149  11.884   5.128  0.0329 -0.1632 -0.1431
13514W        W26928  12.403  11.767   4.274  0.2388  0.1282 -0.1228
13515W        W26929  16.097  17.053  12.115  0.0975 -0.1226  0.2596
13516W        W26930  14.679  16.378   2.443  0.1239  0.0196  0.2253
13517W        W26931  16.390   9.608   1.586 -0.1827  0.2434 -0.0951
13518W        W26932  14.081  17.176   9.808  0.3567  0.1137  0.1174
13519W        W26933   5.092  10.765   4.404 -0.2881 -0.0589  0.1559
13520W        W26934   8.708  13.653  12.947 -0.1853  0.0036 -0.0553
13521W        W26935   5.286  17.083  15.955  0.0109 -0.2893  0.0137
13522W        W26936   0.753  14.232   1.840  0.2522 -0.2005  0.2342
13523W        W26937   1.396  13.777  12.385  0.0615  0.3823 -0.1469
13524W        W26938   5.592  15.689   1.744 -0.1599 -0.0129 -0.0198
13525W        W26939   1.681   6.173   5.524  0.0536 -0.0589  0.1067
13526W        W26940   2.948  15.530  10.966  0.0700  0.0314  0.0939
13527W        W26941   9.859   2.920   4.415 -0.1615  0.1746  0.0342
13528W        W26942   1.420   1.902  14.315 -0.1368  0.1371 -0.0655
13529W        W26943  14.183  16.727  11.107  0.0160  0.0812 -0.0212
13530W        W26944   4.600   5.976   4.609  0.1191  0.0696 -0.1817
13531W        W26945  12.782   6.971  14.613  0.3172 -0.1135 -0.1661
13532W        W26946  14.842   4.545   2.508  0.0038  0.0629 -0.0757
13533W        W26947   8.952  10.179  12.414 -0.3394 -0.0607  0.0744
13534W        W26948  15.532  11.806   1.183 -0.3549  0.1135 -0.1867
13535W        W26949   1.869  16.214  14.903  0.1638  0.3559 -0.1108
13536W        W26950   8.312   3.261   3.893  0.3220  0.0449 -0.0847
13537W        W26951   6.924  15.253   3.917 -0.2447 -0.1301  0.1716
13538W        W26952  12.190  17.989  12.958  0.1876 -0.1147  0.0067
13539W        W26953   1.935   0.769  14.053  0.0492  0.0644 -0.2084
13540W        W26954   5.986  10.108   0.908  0.2260  0.2056  0.0737
13541W        W26955  17.758  13.760  14.221  0.3554 -0.1713 -0.0156
13542W        W26956  15.111   7.070  12.057 -0.1549 -0.0323 -0.0786
13543W        W26957  15.453  10.005  13.105 -0.1891  0.0829 -0.0369
13544W        W26958  14.444   0.189  10.489 -0.2143  0.2923 -0.1510
13545W        W26959   3.729   0.891   0.331  0.1294 -0.2366  0.1209
13546W        W26960   5.429   8.031  13.621  0.1986  0.0566 -0.3577
13547W        W26961   7.206   3.510  11.180  0.0988  0.1765 -0.0645
13548W        W26962   8.006  15.174  10.969  0.0971 -0.2168 -0.0498
13549W        W26963   4.052  13.977  14.085 -0.0544 -0.3635  0.0859
13550W        W26964   9.266   7.328   4.365 -0.2756 -0.1304  0.0549
13551W        W26965   9.221  12.643   4.564  0.0451  0.0769  0.2850
13552W        W26966   4.046   6.664   1.325  0.2750 -0.0856  0.0170
13553W        W26967  14.460   2.874  11.299 -0.1328 -0.0153  0.1089
13554W        W26968   1.509  15.197  11.963  0.2626  0.0959 -0.1220
13555W        W26969  11.649  12.860   5.101 -0.1505 -0.1838 -0.0621
13556W        W26970   2.942  11.717   1.655 -0.0546  0.0455 -0.1680
13557W        W26971   8.734   5.882   1.505  0.1340  0.0137  0.0778
13558W        W26972   8.109  12.738   2.491  0.1898 -0.2729  0.0725
13559W        W26973  12.867   3.816  15.938  0.1301 -0.1220 -0.2917
13560W        W26974  16.947  12.825   4.645  0.2273 -0.0360 -0.1258
13561W        W26975   6.891   0.405  10.249 -0.0041 -0.0604  0.1160
13562W        W26976   5.335  13.645  13.404  0.0162  0.0629  0.2198
13563W        W26977  15.073   7.998  15.606  0.1996  0.1802  0.1771
13564W        W26978  16.320   6.297  10.657 -0.1906  0.0133  0.1613
13565W        W26979   1.352  15.858  15.613 -0.0422  0.1262  0.1682
13566W        W26980  14.955   4.053   0.398  0.1885 -0.0424  0.0472
13567W        W26981  12.492   0.600   2.447 -0.0005  0.4393 -0.0867
13568W        W26982   2.146   2.255  12.358  0.0610  0.1779  0.0020
13569W        W26983   8.979   8.526   5.110  0.0765  0.1862  0.3657
13570W        W26984  17.311   3.883  10.561  0.1166  0.1042  0.0548
13571W        W26985   5.901   1.358  13.819 -0.0203 -0.2089  0.0310
13572W        W26986   7.837   0.588   1.240 -0.0483 -0.2068 -0.1641
13573W        W26987   7.093  14.550   0.396  0.0678 -0.2136  0.0395
13574W        W26988  11.024   2.159   1.551 -0.1400 -0.0239  0.0748
13575W        W26989  10.195   5.438   3.844 -0.0134 -0.0523  0.4092
13576W        W26990  14.929  13.946  12.049  0.0697  0.0891  0.2820
13577W        W26991   3.195   6.579   5.354 -0.1655 -0.0523  0.0338
13578W        W26992   5.486   3.751  15.259  0.1418 -0.2268 -0.3442
13579W        W26993  14.854  18.066   3.460  0.0326 -0.3083 -0.0274
13580W        W26994   6.839  14.277  12.268 -0.0985 -0.1087  0.1105
13581W        W26995  10.929  11.995  13.969 -0.1642  0.1459 -0.0984
13582W        W26996   2.526   0.882  16.358  0.2901 -0.2256 -0.4361
13583W        W26997   8.426   7.634   5.997  0.0381 -0.0802  0.0936
13584W        W26998  10.703  10.246   6.129 -0.0988  0.4664  0.1183
13585W        W26999   9.450   4.123   3.925  0.0864  0.0471 -0.1381
13586W        W27000   8.924   1.986   0.563  0.0480  0.0117  0.1296
13587W        W27001  15.197   5.141  13.833  0.1788  0.0968 -0.0336
13588W        W27002   2.151   4.249  15.528 -0.1252 -0.3752 -0.3313
13589W        W27003   3.074   8.022  14.087 -0.2955 -0.0835  0.0996
13590W        W27004  13.125  16.955   5.583  0.1929 -0.2965  0.1667
13591W        W27005  17.609   9.527  12.056  0.2615 -0.1553 -0.1583
13592W        W27006   4.082  11.701   6.182  0.2050 -0.4270 -0.0810
13593W        W27007   2.545  12.176  14.920  0.1328  0.3391  0.3163
13594W        W27008  17.329  16.226   6.003  0.3591  0.0276  0.0333
13595W        W27009  10.505   5.185  12.754  0.0341  0.0696 -0.0350
13596W        W27010   7.372  17.993  15.496 -0.0309  0.0753  0.2191
13597W        W27011  10.542   5.529  10.033  0.2050 -0.1673 -0.3845
13598W        W27012   8.861   7.711   5.743  0.1506  0.2012 -0.0828
13599W        W27013   3.990   0.308  12.672  0.0285  0.1267 -0.0734
13600W        W27014   3.292   5.254   1.595  0.1401  0.0093  0.0286
13601W        W27015  18.016   7.343   1.907  0.0993  0.2830  0.1761
13602W        W27016  12.792  10.240   2.307 -0.1389 -0.0719  0.0229
13603W        W27017   2.120   9.182  13.380 -0.2700  0.1206 -0.2818
13604W        W27018   4.789   9.839   6.992  0.0653  0.1037  0.0619
13605W        W27019   2.276  15.171   4.126 -0.1028 -0.3237 -0.0844
13606W        W27020  10.074   3.542   0.528 -0.0729 -0.1812 -0.2982
13607W        W27021   3.895   7.113  11.236  0.0690  0.2312 -0.3191
13608W        W27022   5.340  17.283  11.838 -0.0235 -0.0024  0.1026
13609W        W27023  10.535   1.279  14.358  0.0047  0.0776 -0.1842
13610W        W27024   0.098   2.925  12.239  0.1427 -0.1277 -0.1073
13611W        W27025   1.503   7.714   4.301  0.3691  0.0375  0.1938
13612W        W27026  14.849  15.033  12.632  0.1391 -0.1241 -0.0925
13613W        W27027   6.613  12.796   4.590 -0.2507  0.0981  0.0742
13614W        W27028   6.233  14.757  10.396 -0.0153  0.1651 -0.2238
13615W        W27029  14.517  14.290  15.438  0.1513 -0.0110 -0.0502
13616W        W27030   3.192   9.233   2.910 -0.0461 -0.1765  0.0917
13617W        W27031   6.654   6.891  15.823 -0.2256 -0.0793  0.3432
13618W        W27032   0.275  11.569  13.893 -0.0563  0.0252 -0.3678
13619W        W27033  17.550   0.308   5.327  0.2366 -0.0399  0.2386
13620W        W27034  15.893  11.888   0.277  0.1397 -0.2122  0.0002
13621W        W27035   5.454  17.733   0.165 -0.0555  0.0544 -0.0999
13622W        W27036   7.832   7.343   6.018 -0.1847 -0.0619  0.0804
13623W        W27037   5.185   9.755  15.990  0.0450 -0.0948  0.0349
13624W        W27038  15.982   0.974  15.392 -0.0345 -0.0418  0.1679
13625W        W27039  12.863  17.351  14.284 -0.2051  0.0443  0.1527
13626W        W27040   9.119   1.474  16.339  0.1405 -0.1687 -0.0698
13627W        W27041  10.866   5.823  16.376 -0.4152 -0.1167  0.0548
13628W        W27042  10.463  13.226  10.388 -0.2490 -0.1343  0.2128
13629W        W27043   7.181   5.209   4.628 -0.0849 -0.2338  0.1682
13630W        W27044   3.056  11.836  11.326  0.0997  0.0430 -0.1161
13631W        W27045  17.557  18.161   3.109  0.2999  0.0708 -0.2828
13632W        W27046  11.687   1.038   2.936  0.0777  0.3535  0.0948
13633W        W27047  13.514   1.086  16.147  0.0097 -0.2867 -0.3154
13634W        W27048  12.781  17.600   3.659  0.0031  0.3570 -0.0518
13635W        W27049  12.062   1.904  13.251  0.0096 -0.2107 -0.1575
13636W        W27050   1.161   1.025  11.930  0.3268 -0.1984  0.0229
13637W        W27051   9.353   0.922   2.972  0.1238  0.1651 -0.1821
13638W        W27052   7.548   6.365  11.160 -0.0396 -0.1832  0.3707
13639W        W27053   0.821   9.644  12.480  0.1711 -0.2530 -0.1422
13640W        W27054  10.915   5.478   3.693  0.1906  0.1838 -0.1888
13641W        W27055   2.416  17.677   2.870  0.2437 -0.0095 -0.1656
13642W        W27056  14.376  10.005   4.723  0.1430  0.1829 -0.0074
13643W        W27057  14.999  15.970  14.682  0.2735  0.5772 -0.2372
13644W        W27058   5.780  16.690  12.769  0.0895  0.2278 -0.1082
13645W        W27059   3.372   7.334   2.575 -0.1354  0.4432 -0.0790
13646W        W27060   8.254  13.142  12.105  0.0601 -0.1064  0.1865
13647W        W27061   7.160   4.609   0.220  0.3247 -0.1460  0.1412
13648W        W27062  10.059  12.790  16.168  0.1565  0.0966  0.0255
13649W        W27063   4.158   6.374   2.725  0.0588 -0.0666 -0.1086
13650W        W27064  14.770   0.870   4.924 -0.1005 -0.2438  0.3333
13651W        W27065  18.060  17.589  15.896 -0.2146  0.1823 -0.0313
13652W        W27066  14.793   3.876   1.815 -0.1323  0.2213  0.1387
13653W        W27067   0.032   2.425  12.356  0.1179  0.1281  0.2495
13654W        W27068   9.706   2.026   0.188 -0.2777 -0.3151 -0.2605
13655W        W27069  14.103   5.430  11.678  0.1695  0.0210 -0.0227
13656W        W27070  17.913  12.583   0.034  0.2898  0.1184 -0.0190
13657W        W27071  13.661  12.344   5.700 -0.1172 -0.2221  0.0782
13658W        W27072  13.244   4.982  13.801  0.2836 -0.2908 -0.0664
13659W        W27073   1.385   9.028  15.663  0.1630  0.0689  0.0690
13660W        W27074   8.292  18.131   0.644  0.0792 -0.3874  0.1592
13661W        W27075  16.575   0.177  12.838 -0.1031 -0.1357 -0.2557
13662W        W27076   9.878   8.216  12.799 -0.0030  0.1181 -0.1765
13663W        W27077  14.142  15.516   0.659  0.1202  0.0433  0.2332
13664W        W27078  13.205  16.580   5.246  0.0280 -0.0892 -0.2514
13665W        W27079   9.925   6.994   3.973  0.1377  0.1957 -0.1647
13666W        W27080   2.676   1.324   1.358 -0.2146  0.1901 -0.0846
13667W        W27081   5.019  15.021   3.990 -0.2356  0.0914  0.1000
13668W        W27082   7.935  11.090   5.895  0.0464 -0.2081  0.1643
13669W        W27083  13.801  17.147  14.787  0.3852  0.3557 -0.3330
13670W        W27084  17.219  15.646  15.705 -0.1726 -0.0097  0.2664
13671W        W27085   7.558  12.717   3.172  0.0383 -0.2528 -0.1719
13672W        W27086  12.608  10.023   0.928 -0.1178 -0.0752 -0.0197
13673W        W27087  10.684  15.118  13.686 -0.2596 -0.0362 -0.0210
13674W        W27088   1.539   1.010  14.491  0.1625  0.3424  0.2900
13675W        W27089   7.929  15.900   2.759  0.0444  0.0611 -0.2700
13676W        W27090   3.610   6.243  14.486  0.0909  0.2645 -0.0471
13677W        W27091   4.175  17.395  12.438 -0.2136 -0.2640 -0.3768
13678W        W27092   2.463  16.860   3.279  0.0471  0.2289 -0.3599
13679W        W27093   2.845   5.378  11.743  0.2721  0.1078 -0.1097
13680W        W27094  12.005  12.889  14.032 -0.2462 -0.0991 -0.0341
13681W        W27095   1.175   5.489   5.102  0.1637  0.0735  0.1548
13682W        W27096   2.746   1.213  16.046  0.0828  0.0985 -0.1397
13683W        W27097   4.170  14.181  15.829  0.1386  0.1491 -0.3153
13684W        W27098   3.946   9.826  14.693  0.2434  0.1011 -0.0026
13685W        W27099  17.888   6.601  12.536  0.0039 -0.0194  0.0458
13686W        W27100   1.278   8.433   0.389  0.1385 -0.1049 -0.0998
13687W        W27101   5.049  15.093   1.635 -0.2012  0.0406  0.2473
13688W        W27102   9.153   0.121   9.018 -0.1508  0.0190 -0.3965
13689W        W27103   7.197  17.182   1.725  0.2602  0.0925 -0.1055
13690W        W27104  16.145   2.878  14.912  0.3281 -0.0685  0.0631
13691W        W27105   0.490  15.249   6.279 -0.0768 -0.0612 -0.2346
13692W        W27106   0.010  15.654  14.794  0.3054  0.2295  0.1189
13693W        W27107   2.097  11.335  12.162 -0.3136  0.2383 -0.0052
13694W        W27108   1.916  16.814   2.137 -0.2290  0.1136  0.0590
13695W        W27109  16.978  13.349   2.953 -0.2773 -0.0862 -0.0106
13696W        W27110  17.238  11.929   6.105 -0.1976 -0.2005 -0.1765
13697W        W27111   9.752  13.668  12.713 -0.1719  0.1149  0.0891
13698W        W27112   6.342   2.230   5.107 -0.1254  0.1540 -0.2710
13699W        W27113   3.280   5.726   2.138  0.0117  0.0298  0.1275
13700W        W27114  18.221  15.009   5.179  0.1352  0.0878 -0.1427
13701W        W27115   4.251   5.661  13.570 -0.2213  0.0402  0.0620
13702W        W27116   2.824  17.406   2.062  0.1958  0.0788 -0.2248
13703W        W27117  12.069  12.536   6.050  0.0254  0.2422 -0.0343
13704W        W27118   4.005   5.818   1.475 -0.1905 -0.2291 -0.1582
13705W        W27119   2.994   1.515   6.418  0.0380 -0.0548  0.0344
13706W        W27120   6.408  14.692  15.233 -0.0780  0.0252 -0.1154
13707W        W27121   1.338  15.909   3.116  0.0316  0.0055 -0.1053
13708W        W27122   9.428  17.453   2.731  0.2038  0.0783 -0.1438
13709W        W27123  12.020  15.801  16.243 -0.1706  0.0298  0.0832
13710W        W27124   1.233   3.627  13.492  0.0631 -0.1234  0.2947
13711W        W27125   0.779   0.349   5.268 -0.4064  0.4841 -0.0635
13712W        W27126   7.124   2.471  15.070  0.0892  0.1794 -0.0325
13713W        W27127   0.673  11.546   4.716 -0.0089  0.0794 -0.4157
13714W        W27128  13.975   7.970   4.033  0.2521 -0.4632  0.5956
13715W        W27129  16.654   1.129   0.959  0.0971 -0.2349 -0.0275
13716W        W27130  13.363  17.348   2.117 -0.1239  0.1840 -0.0952
13717W        W27131   3.917   3.668   2.003  0.0955  0.3198  0.0769
13718W        W27132  10.862   6.713  16.375  0.1958 -0.2491  0.0089
13719W        W27133  17.033  12.489   0.582 -0.3181  0.0635  0.2912
13720W        W27134  11.335   6.924  16.405  0.1817 -0.3538  0.0563
13721W        W27135   3.024   5.254   3.648 -0.0042  0.1108  0.0746
13722W        W27136  14.346   6.009   2.167 -0.3008  0.1000 -0.0368
13723W        W27137   9.875  11.424   2.209  0.1775 -0.1618 -0.1227
13724W        W27138   2.716   8.519   0.316  0.0635  0.1974  0.1170
13725W        W27139  14.709  13.375   0.913 -0.2342 -0.0391 -0.0106
13726W        W27140  15.963  16.803  16.342 -0.1397 -0.1267 -0.0352
13727W        W27141  17.155  16.300  13.716  0.0702  0.3212  0.0281
13728W        W27142  15.084   5.169   0.486  0.0590 -0.1058 -0.1587
13729W        W27143   7.898  18.212   4.932 -0.2405 -0.3416  0.3169
13730W        W27144  18.066  16.653   1.053  0.1305  0.0717  0.0068
13731W        W27145  12.652   6.139  12.352  0.0758 -0.0395 -0.2710
13732W        W27146  12.977   2.972   3.534 -0.1077 -0.0564  0.1510
13733W        W27147  12.221  11.775   3.425  0.1543  0.1803 -0.1610
13734W        W27148   1.199   3.031   5.198 -0.1780  0.0177 -0.0141
13735W        W27149   5.958   9.375  12.700 -0.0395 -0.0381 -0.2023
13736W        W27150  15.051   4.193   1.470  0.1400  0.0033  0.1642
13737W        W27151  15.333  16.724   1.582 -0.1102  0.2498 -0.1953
13738W        W27152  12.633  10.444   4.639 -0.1183 -0.1082  0.1937
13739W        W27153   1.539  10.925   5.100  0.1997  0.1711  0.0048
13740W        W27154   8.541   2.335  12.359  0.0525 -0.0111 -0.0677
13741W        W27155   3.716   7.088   1.295  0.1751  0.1507 -0.1669
13742W        W27156  16.115  16.256  12.890 -0.0185 -0.1494 -0.0067
13743W        W27157   1.700  16.422  12.622 -0.0094 -0.0280 -0.2786
13744W        W27158  16.268   9.798  12.330 -0.0874 -0.1717  0.1433
13745W        W27159   9.655   6.765  10.983  0.1214  0.0711  0.1956
13746W        W27160  10.567  15.881   3.862 -0.1929 -0.1269  0.0226
13747W        W27161   7.025   4.783   4.796  0.0058 -0.1504  0.3448
13748W        W27162   6.891   0.759   0.951 -0.1485 -0.0021 -0.0900
13749W        W27163   7.667   0.656  13.439  0.2673  0.2258  0.0434
13750W        W27164  14.000  15.215   0.258  0.2966 -0.2436 -0.0272
13751W        W27165   8.862  13.676   0.126 -0.2088 -0.1443  0.0298
13752W        W27166   0.762  17.460   4.406 -0.0355  0.0976 -0.0115
13753W        W27167  15.699   6.237   1.186 -0.1591  0.1613 -0.3096
13754W        W27168   0.049   6.154  14.389 -0.1033 -0.0509 -0.0777
13755W        W27169   1.450  14.293   2.331 -0.0490 -0.0073  0.0142
13756W        W27170  16.034  14.573   5.357 -0.1995 -0.1258  0.0437
13757W        W27171   9.986  12.284  11.129 -0.1230 -0.0029 -0.0281
13758W        W27172   8.929   1.162   2.728 -0.0641  0.3746 -0.0371
13759W        W27173  15.726  10.257  13.693  0.1248  0.2658 -0.1489
13760W        W27174  13.961   9.476   5.593 -0.4712  0.2191  0.0217
13761W        W27175   7.989  12.146  12.392 -0.0516 -0.1026  0.3054
13762W        W27176   9.948  17.938  13.728  0.3033  0.2118 -0.1611
13763W        W27177   8.323   6.069   3.277  0.1296 -0.2357 -0.1689
13764W        W27178  17.663  14.304   1.836 -0.0009  0.2167  0.0604
13765W        W27179  16.829   9.828  15.846 -0.0695  0.1769  0.0095
13766W        W27180  15.313   4.757  11.898  0.4022 -0.1704  0.1517
13767W        W27181  11.370  12.066  15.286 -0.0433 -0.0528 -0.1589
13768W        W27182   8.474  12.890  16.162  0.0122  0.0134  0.3117
13769W        W27183  13.365   2.988   0.153  0.0330  0.0549  0.1151
13770W        W27184   2.938  16.888   6.404 -0.1109  0.0650 -0.1689
13771W        W27185   5.699  10.935   4.786  0.1622  0.0619 -0.1163
13772W        W27186   1.472   7.694   1.033 -0.0214 -0.1180 -0.3304
13773W        W27187   3.025  11.715   3.679  0.0678  0.3024 -0.0871
13774W        W27188   1.655   9.831  16.236  0.0725  0.0772  0.2216
13775W        W27189  17.570  11.375  14.850  0.1131  0.3319 -0.0452
13776W        W27190  10.311  17.263  15.294  0.2557  0.0679  0.1071
13777W        W27191   7.888   2.042  12.602 -0.0709 -0.1276 -0.0789
13778W        W27192   7.955   0.817  12.972 -0.1319  0.0834  0.1798
13779W        W27193   2.497   1.084  14.477  0.0234 -0.1892 -0.3051
13780W        W27194   5.524  11.810  12.069  0.3018  0.2072  0.1100
13781W        W27195  18.162  12.925  11.716  0.4660  0.3729 -0.0137
13782W        W27196   1.595  11.186  12.055 -0.0308  0.0079 -0.0134
13783W        W27197   3.808  16.498   9.829  0.4707  0.0595  0.0965
13784W        W27198   7.110   5.471  14.598  0.2788 -0.0509  0.0838
13785W        W27199  12.326   7.894  12.861  0.0653  0.0089 -0.2536
13786W        W27200   2.340   9.789  11.836 -0.1745 -0.0924 -0.2951
13787W        W27201   7.001  11.530   4.998 -0.0809  0.2958 -0.0218
13788W        W27202   7.042   2.332  16.206  0.1363  0.3856  0.3160
13789W        W27203  13.367   1.069   1.640  0.2909  0.2370  0.2705
13790W        W27204   4.291   8.937  15.226 -0.0290 -0.0898 -0.0331
13791W        W27205   3.942   3.781   3.452  0.0267 -0.0376  0.0370
13792W        W27206  10.874   0.570   4.286  0.0715  0.0792 -0.1069
13793W        W27207  17.246  15.635   3.890  0.0029 -0.0894  0.1162
13794W        W27208   0.820   6.580  11.076  0.0088 -0.1245 -0.1422
13795W        W27209   8.689   9.464   0.314  0.2361  0.2285 -0.0859
13796W        W27210   5.519   5.835   5.206 -0.0446 -0.1579 -0.0059
13797W        W27211   2.894  10.473   3.273  0.0846 -0.1487  0.1943
13798W        W27212  10.810  15.915  16.089  0.1920  0.0880 -0.0096
13799W        W27213   7.980   6.310   3.544 -0.0795  0.1791  0.1362
13800W        W27214  10.890   6.680   2.313 -0.0450  0.1088  0.0502
13801W        W27215  17.986  11.292  10.772  0.1179 -0.0982 -0.2592
13802W        W27216   5.746   3.942   0.371 -0.0989 -0.2227  0.0171
13803W        W27217  14.598   0.172   5.319 -0.0598 -0.1098 -0.3911
13804W        W27218  16.293   5.965  15.158 -0.1113 -0.1730 -0.1567
13805W        W27219   9.658  14.448   3.045  0.1462  0.0538  0.2971
13806W        W27220  10.855   8.841   3.728  0.2668  0.0631  0.0738
13807W        W27221   8.957   9.836  12.788  0.1858 -0.0696  0.1571
13808W        W27222   3.663  18.096  13.341  0.1073  0.2004  0.2063
13809W        W27223  17.679  17.155  10.699 -0.0029  0.1566  0.2617
13810W        W27224  16.332   3.576   3.915 -0.4122 -0.0863  0.3192
13811W        W27225   0.785  13.087  15.571  0.0644 -0.2086  0.2424
13812W        W27226   3.044   9.454  12.284  0.0340 -0.0509  0.1458
13813W        W27227  16.087  13.299   0.919 -0.1835  0.1759 -0.2415
13814W        W27228   4.709   5.953  11.471  0.0296  0.0157 -0.0868
13815W        W27229  13.910   7.793  10.525  0.0174  0.2266 -0.0333
13816W        W27230  14.526   7.036   4.984 -0.2544  0.4695  0.1254
13817W        W27231  16.212  13.552   4.740  0.1687 -0.0440  0.0759
13818W        W27232   1.089  14.308  10.533 -0.0521 -0.0672 -0.3533
13819W        W27233  14.109  14.581   5.163 -0.0422 -0.1347  0.0597
13820W        W27234   9.773   3.863  11.713  0.0134  0.3728 -0.1886
13821W        W27235  15.809   8.995  12.711  0.2233 -0.1594  0.2819
13822W        W27236   9.867   1.521  12.667  0.2981  0.1278  0.1984
13823W        W27237  17.278   8.940   4.318  0.0621  0.1937  0.0695
13824W        W27238  15.367   9.233  14.029  0.0034  0.0368  0.0114
13825W        W27239   9.548  15.511   1.830 -0.1333  0.1386 -0.3526
13826W        W27240  11.046   7.388  13.432 -0.0967  0.1097  0.2623
13827W        W27241   3.720  15.334  11.258 -0.0183  0.0187  0.1317
13828W        W27242   7.962   7.741  13.875  0.1885  0.0230 -0.0799
13829W        W27243   4.171   9.606  14.214 -0.0044  0.0632  0.0932
13830W        W27244  10.103  11.452  14.130  0.0383  0.1692  0.0437
13831W        W27245  17.759   8.376   5.190  0.0199  0.2871 -0.0592
13832W        W27246   5.229   6.668  12.278 -0.0227 -0.0141 -0.0171
13833W        W27247   6.621  15.939   1.559 -0.2199 -0.0805  0.0501
13834W        W27248   4.783   3.426   0.021  0.2873  0.2593  0.2305
13835W        W27249   4.071  13.038  11.456  0.2476 -0.1595 -0.0361
13836W        W27250  12.028  16.861   5.065 -0.1761  0.1210 -0.0031
13837W        W27251  12.092   2.994   1.826  0.0016 -0.3021 -0.1939
13838W        W27252   5.441  15.160  13.293 -0.1515 -0.1064 -0.2125
13839W        W27253   1.005   1.907  16.259 -0.0274 -0.1385  0.1320
13840W        W27254  15.583  12.936  16.274  0.0770  0.0660 -0.1623
13841W        W27255   0.921  14.906   5.322 -0.1519  0.0231 -0.2919
13842W        W27256  14.157   1.195   2.936  0.0739 -0.0167  0.1200
13843W        W27257   6.300   8.266  14.746  0.2667 -0.5797  0.2442
13844W        W27258  14.693  14.108   5.591 -0.1758  0.2805 -0.0079
13845W        W27259   4.638  10.757  11.694 -0.1633  0.1890  0.1281
13846W        W27260  11.959   1.020   4.895 -0.3249 -0.1014  0.1296
13847W        W27261  18.151  17.627   4.007  0.0124 -0.0021 -0.4118
13848W        W27262  14.063   2.793  14.439 -0.1211  0.0482  0.0745
13849W        W27263  11.267   8.813  14.511  0.0086  0.2671 -0.1950
13850W        W27264   9.791  12.904   2.067  0.1737  0.0897  0.1435
13851W        W27265   8.760  14.392  14.799  0.3207  0.0185 -0.0949
13852W        W27266   6.333  13.778   2.131  0.0898 -0.1244  0.1093
13853W        W27267  14.657  16.748  12.160 -0.2106 -0.4136  0.1788
13854W        W27268   4.303  17.928   4.588 -0.3057 -0.0613 -0.0253
13855W        W27269   9.833  17.511  16.066  0.1484  0.1222  0.0774
13856W        W27270   2.076   8.172   0.970 -0.1279  0.2217  0.2209
13857W        W27271  12.970   2.756   1.629 -0.1158  0.3451 -0.2799
13858W        W27272  14.926   9.148  13.715 -0.3750 -0.2193  0.3764
13859W        W27273  11.640   8.807   2.293 -0.1698 -0.1106  0.0152
13860W        W27274  10.248   6.552   0.153 -0.0920 -0.0920  0.0642
13861W        W27275  11.323   5.909   4.291  0.1941  0.2267  0.1512
13862W        W27276   3.775   1.482  14.907 -0.2751 -0.4364 -0.1001
13863W        W27277  17.739  14.655  12.744 -0.1593  0.2737 -0.0874
13864W        W27278  15.141  14.635  13.558  0.2926 -0.0309 -0.1888
13865W        W27279   2.207  16.696  16.236 -0.1557  0.0173 -0.2609
13866W        W27280  14.711   7.298   0.750 -0.0229 -0.0473 -0.6331
13867W        W27281   9.688  10.007   0.015  0.0521 -0.4352  0.2250
13868W        W27282   0.848  11.833   1.324  0.0544  0.0516 -0.1639
13869W        W27283   8.551  17.062   1.441  0.1547  0.1640  0.1139
13870W        W27284   0.565   5.349   0.280 -0.1779 -0.1674 -0.2512
13871W        W27285  16.374  10.988  15.037  0.0715 -0.3536  0.3367
13872W        W27286   0.348   6.448  12.304  0.1338  0.1236  0.0870
13873W        W27287  12.137  16.483   1.685 -0.1875 -0.1141 -0.0440
13874W        W27288  15.937   6.791   0.039  0.2347 -0.3140 -0.0848
13875W        W27289  11.399   4.782  11.869  0.1408  0.0754  0.0084
13876W        W27290  17.156  10.742  12.756 -0.1388  0.2341 -0.1626
13877W        W27291  15.184   5.739   3.220 -0.1146  0.0767  0.2559
13878W        W27292   3.194   2.739   0.624  0.1014  0.0538  0.1054
13879W        W27293   7.888   4.471   3.748  0.0216 -0.3405  0.1449
13880W        W27294  13.345  16.458   2.633 -0.3108 -0.0220 -0.2685
13881W        W27295  12.994   4.150  16.342  0.3327  0.1836 -0.0328
13882W        W27296   5.109  13.863   5.290 -0.0406 -0.3172  0.0621
13883W        W27297  13.086  10.662   2.222 -0.1751 -0.0767 -0.0690
13884W        W27298   7.357  10.510  13.422  0.2611  0.1764 -0.0253
13885W        W27299  13.239   2.459  10.432 -0.0571  0.2206  0.0818
13886W        W27300  16.714  17.321   4.104  0.0042  0.1876  0.2101
13887W        W27301  15.129   8.604   4.067  0.2518 -0.2616 -0.2132
13888W        W27302  11.251   5.182   2.195 -0.0466  0.0271 -0.0979
13889W        W27303   1.630   6.939  13.222  0.0176 -0.2187  0.1986
13890W        W27304  12.154   5.974   4.861  0.1384  0.1146  0.1624
13891W        W27305   2.058   7.236  11.828  0.2040 -0.4123  0.3535
13892W        W27306   7.119   2.815   2.840  0.1706 -0.0473 -0.2340
13893W        W27307  13.223   4.789  12.026 -0.2110 -0.0709 -0.0383
13894W        W27308   1.461  16.899   0.128  0.2182  0.0082 -0.2734
13895W        W27309  14.955  16.177  11.576 -0.1061 -0.1958  0.1178
13896W        W27310  11.100  13.365   4.850 -0.1682  0.0443  0.2669
13897W        W27311   2.873  12.634   4.777 -0.0888  0.1067 -0.1893
13898W        W27312   6.464   0.840   0.517 -0.1641  0.2362  0.2769
13899W        W27313  14.062   7.128  14.965 -0.1336  0.0443  0.2565
13900W        W27314   5.467  16.087  15.005 -0.0719  0.1981  0.0371
13901W        W27315   1.106  14.391   5.477  0.0419  0.1794  0.0356
13902W        W27316  10.159   3.509  10.549 -0.5527 -0.1210  0.1920
13903W        W27317   2.589   2.919   0.604  0.2270 -0.1359 -0.0073
13904W        W27318   1.222   2.414  12.357 -0.0910 -0.1718 -0.4585
13905W        W27319  16.296  12.274   2.106 -0.2396 -0.2158  0.0999
13906W        W27320   3.172   8.878   5.510 -0.1748 -0.1065 -0.0070
13907W        W27321  11.968   7.344   3.446  0.0486  0.0964  0.2995
13908W        W27322  17.610   7.816   5.205  0.2663 -0.0142 -0.1894
13909W        W27323  11.245   6.213  15.687 -0.1626  0.0727  0.1096
13910W        W27324   3.989   8.307   3.090  0.0985 -0.2992  0.2107
13911W        W27325   7.177  15.010  13.246  0.0552  0.0496 -0.3040
13912W        W27326  15.577  12.793   1.891  0.0248  0.3693 -0.0408
13913W        W27327  17.574   6.829   5.074  0.0212  0.3779  0.1398
13914W        W27328   3.944   6.903   4.780 -0.0807 -0.0821 -0.0575
13915W        W27329   7.904  11.170   5.150 -0.1685 -0.1151  0.0628
13916W        W27330  17.238  16.203  13.207  0.0464  0.3437 -0.2599
13917W        W27331  17.513   0.345  15.650 -0.1942 -0.0847  0.0772
13918W        W27332  12.852   3.079  13.637 -0.0048  0.2940 -0.0103
13919W        W27333   2.255  12.252   0.308 -0.2326  0.0803  0.1916
13920W        W27334   7.787  10.858  12.626 -0.0032 -0.2280 -0.1457
13921W        W27335   6.398  16.393   0.880 -0.0648 -0.0221  0.1463
13922W        W27336   4.577  16.504   3.437  0.1667 -0.0862 -0.1980
13923W        W27337   4.525  12.105   3.924  0.0045  0.0532 -0.0263
13924W        W27338   8.732   9.720  14.876 -0.0953  0.0795  0.1056
13925W        W27339  15.524  17.350  15.207 -0.0780  0.2188  0.1578
13926W        W27340   6.406   9.299  14.371  0.2662 -0.1175 -0.2769
13927W        W27341  10.253   4.824   5.546 -0.3066  0.0018 -0.2490
13928W        W27342   2.242  10.422   6.076 -0.1218  0.0572 -0.0920
13929W        W27343  11.697  13.342   0.053  0.0727 -0.1431  0.5574
13930W        W27344   9.344   2.938   1.444 -0.0807  0.0874 -0.0630
13931W        W27345   3.496  17.399   0.823  0.1128 -0.2239  0.0471
13932W        W27346   7.426   2.035   5.708  0.1520  0.1431  0.4880
13933W        W27347   8.628  17.216  10.491 -0.6089 -0.3607 -0.0237
13934W        W27348  14.320  11.622   0.328  0.0937 -0.2746 -0.0992
13935W        W27349  12.617  16.832  14.287  0.0371 -0.0132  0.4336
13936W        W27350  14.542   1.929  10.039 -0.2589 -0.1394  0.2566
13937W        W27351   7.833  12.683  11.314  0.2677  0.0377 -0.3048
13938W        W27352   4.202  15.215  14.720 -0.2373 -0.5195  0.1514
13939W        W27353   1.662  16.196   3.530 -0.3443 -0.1912 -0.0713
13940W        W27354   0.814   3.361  13.433  0.0733 -0.2045  0.2294
13941W        W27355  15.582   5.821   3.534 -0.0381  0.0241 -0.2231
13942W        W27356   6.905   6.126   0.360 -0.0074 -0.0293  0.1128
13943W        W27357  15.012  11.113   2.255  0.3457  0.1428  0.1085
13944W        W27358  18.132   9.465   1.599 -0.1535  0.2421 -0.2586
13945W        W27359   1.164   2.255  11.466  0.2061  0.1722  0.0704
13946W        W27360  13.283   7.240  14.341  0.2022 -0.0379  0.0877
13947W        W27361  14.641   9.968   3.025 -0.0630 -0.1670 -0.2306
13948W        W27362   6.022  14.410  13.238 -0.2169 -0.0057  0.0058
13949W        W27363   9.091   3.214  14.191 -0.1475 -0.0694  0.0280
13950W        W27364  18.040  10.923   2.149  0.1869 -0.0335  0.2779
13951W        W27365   7.298   9.187  11.417 -0.1766  0.2591 -0.3482
13952W        W27366   2.187  11.612   0.267  0.0942  0.1589  0.0331
13953W        W27367  13.396   6.836   1.054 -0.1056  0.3241 -0.1918
13954W        W27368  14.773  10.116   0.411  0.0425  0.4862  0.0213
13955W        W27369   5.962  10.721  12.047  0.1054 -0.1445 -0.1831
13956W        W27370   4.245   0.351   4.933 -0.1371 -0.0736  0.0724
13957W        W27371  16.764   1.711   0.793  0.0286  0.0541  0.0339
13958W        W27372   2.028  11.026  14.401 -0.0311  0.2016 -0.0308
13959W        W27373  14.619   7.485  12.629 -0.1017  0.2550 -0.1546
13960W        W27374  12.803   3.206  11.314  0.0199 -0.1393  0.1129
13961W        W27375   1.924   2.481  11.170 -0.3433 -0.3780 -0.0148
13962W        W27376   6.059   3.415   4.380 -0.0323  0.1411 -0.0508
13963W        W27377  14.460  17.800  13.033 -0.0622 -0.0947  0.2291
13964W        W27378   2.057   3.974  13.300 -0.0918 -0.1239 -0.2028
13965W        W27379   3.929  15.154  10.817 -0.1249 -0.0962  0.2298
13966W        W27380   0.813  18.188   4.955  0.0213  0.0194  0.0043
13967W        W27381  16.755   1.516  11.830  0.3938 -0.0641  0.0461
13968W        W27382   4.411  10.125  11.299 -0.2635 -0.4208 -0.1323
13969W        W27383   9.154   4.515  11.198  0.0804 -0.0111 -0.3343
13970W        W27384  16.577   8.749  12.078  0.0876  0.2002  0.2516
13971W        W27385   0.265  17.896   5.049  0.0211  0.4350 -0.2687
13972W        W27386  10.491  17.720   5.133  0.0543  0.2366  0.0121
13973W        W27387  10.931  10.993   2.326  0.0808  0.3633 -0.0544
13974W        W27388  16.076   7.265  11.868  0.0001 -0.0513  0.0459
13975W        W27389   5.658   1.865  13.737  0.0733  0.1109  0.2636
13976W        W27390  17.732  14.350   2.333 -0.2375 -0.0498  0.1297
13977W        W27391  10.862  15.042  12.564  0.2467 -0.0900  0.0783
13978W        W27392  10.921  15.834   5.797 -0.0291  0.1721  0.2028
13979W        W27393   7.025  17.885  15.956 -0.1555  0.1059 -0.0414
13980W        W27394  13.043   6.792  11.886  0.1252 -0.1216 -0.2061
13981W        W27395   9.217   6.599  11.062 -0.1375  0.0326  0.1461
13982W        W27396  17.756   9.421   2.724 -0.2136 -0.0643 -0.1070
13983W        W27397  16.699   4.042   3.861  0.0779 -0.1157  0.0033
13984W        W27398  18.057  11.225  14.711  0.4249 -0.0562 -0.2267
13985W        W27399  16.856   4.386  16.492  0.3189  0.0284  0.5281
13986W        W27400   6.605  12.035  15.656  0.1261  0.1512 -0.1906
13987W        W27401   9.065   3.870   3.068  0.0325 -0.1479 -0.0510
13988W        W27402  13.708   4.659   1.447 -0.1301  0.2439 -0.0459
13989W        W27403   7.552  16.351   4.435  0.1590  0.3024 -0.2258
13990W        W27404   4.498  13.675  13.908  0.0521  0.3091  0.1588
13991W        W27405   4.726  17.772   4.963  0.1944  0.2321 -0.0552
13992W        W27406  17.040   3.027  10.469  0.0039 -0.1315  0.1193
13993W        W27407   8.657   9.643  11.842 -0.1376 -0.0820 -0.0372
13994W        W27408   3.361  14.468  13.257 -0.0706  0.3197  0.2050
13995W        W27409  10.542  10.414  11.848 -0.1626  0.1521  0.0753
13996W        W27410   2.551   5.005  15.842 -0.0796 -0.0961 -0.2991
13997W        W27411   9.677   1.981   4.265 -0.2705 -0.1166 -0.0179
13998W        W27412   4.536   4.834   1.601 -0.1250  0.1417  0.2704
13999W        W27413  15.060  12.156   4.726  0.2814 -0.0521  0.0303
14000W        W27414  14.838  13.696  14.307 -0.0737 -0.0078  0.2658
14001W        W27415  11.998  15.722  15.380  0.2874  0.1489  0.4719
14002W        W27416   9.614   3.493  13.714  0.1292 -0.0714  0.0288
14003W        W27417  17.923  13.055  14.812  0.1233  0.0258 -0.0330
14004W        W27418   7.454  15.660  15.431 -0.0388 -0.0143  0.1228
14005W        W27419   8.702  12.148   6.493 -0.3347 -0.1337 -0.1863
14006W        W27420  17.644   4.167   2.036  0.0058  0.3225 -0.0146
14007W        W27421  16.251   2.870   1.251 -0.0083  0.1629 -0.1160
14008W        W27422   9.352  13.940  14.316  0.0207  0.2041 -0.0205
14009W        W27423   0.286   0.973  15.561  0.1161 -0.1530 -0.3281
14010W        W27424   5.129   7.285   1.109 -0.1258 -0.4123 -0.1146
14011W        W27425   5.285   6.327   4.971  0.2438  0.2056  0.0885
14012W        W27426   4.918   5.558  11.641 -0.0774 -0.2513  0.0767
14013W        W27427   0.012  12.767  10.986  0.0039  0.1442 -0.0384
14014W        W27428   4.132  11.362  10.570 -0.0221 -0.0100 -0.1285
14015W        W27429   3.180   9.638  11.316 -0.0530  0.2701  0.1414
14016W        W27430   4.742   2.587  14.814 -0.1738  0.0950  0.0295
14017W        W27431  14.975   4.713  10.907 -0.0658  0.1687 -0.2163
14018W        W27432  11.770   1.494  15.331 -0.2044 -0.3208  0.1431
14019W        W27433  18.040   6.265   4.631 -0.1100 -0.2847  0.2476
14020W        W27434  15.666   0.808   0.718  0.0154 -0.2653 -0.0504
14021W        W27435  13.282   9.806  12.840  0.1261 -0.2355  0.1797
14022W        W27436   4.804   5.858   2.265  0.1303  0.1595  0.0244
14023W        W27437   0.588  10.711   0.043  0.0278 -0.1556 -0.1219
14024W        W27438  11.562  17.380   4.308 -0.1916  0.0154 -0.1623
14025W        W27439   3.891  11.356  14.651 -0.1604 -0.0721  0.0118
14026W        W27440  16.242   8.711   5.906 -0.0814 -0.2020  0.0029
14027W        W27441  13.029  12.045  14.611 -0.0688  0.1315  0.1005
14028W        W27442  16.409  17.113  11.096  0.0545  0.3179 -0.2315
14029W        W27443   9.689   6.656   1.270 -0.0094  0.0658  0.0292
14030W        W27444  13.041  10.751  11.506  0.2306  0.0782 -0.2725
14031W        W27445  17.801   3.036   0.786  0.1859 -0.0382  0.0201
14032W        W27446  12.653  13.159  15.513 -0.0135  0.2768  0.2008
14033W        W27447   4.302   6.032   3.671 -0.0602  0.3652  0.0483
14034W        W27448  17.523  15.436  11.226 -0.0761  0.2705  0.1195
14035W        W27449   1.533   5.161  15.424 -0.0327 -0.2598  0.0855
14036W        W27450   4.293   7.980  13.015  0.1670 -0.3640  0.1502
14037W        W27451   2.879   0.326   4.774 -0.1470 -0.0354 -0.0701
14038W        W27452  17.135   4.887  16.251 -0.1667  0.4526  0.1651
14039W        W27453   7.183  11.927  15.773 -0.3477  0.0512  0.1329
14040W        W27454  11.391  12.343  12.445  0.0291 -0.3725 -0.0600
14041W        W27455   4.833   1.639   3.854 -0.3009 -0.2825 -0.1987
14042W        W27456  14.388   4.964   2.616 -0.0148  0.0344  0.0491
14043W        W27457   2.308  13.660  14.856  0.0431 -0.1718  0.0809
14044W        W27458  10.912  16.571   1.981  0.3029  0.1489  0.3329
14045W        W27459   0.210   1.456   5.043  0.0858  0.2027 -0.1025
14046W        W27460   6.748  14.865   5.423  0.1520  0.0038 -0.1842
14047W        W27461   6.560  13.109   0.851  0.2272  0.0765 -0.0242
14048W        W27462   7.014  12.925   1.051 -0.0291 -0.0896  0.1370
14049W        W27463   1.375  10.616   2.973 -0.1651  0.0800  0.1797
14050W        W27464   6.313   0.232  11.947  0.0690  0.0032 -0.0374
14051W        W27465   3.012   2.367   0.369 -0.0801 -0.2966  0.0309
14052W        W27466  14.307   2.371   2.720 -0.1761 -0.0381 -0.0317
14053W        W27467  12.136  17.011  15.264  0.1109  0.0379 -0.0246
14054W        W27468   2.326  11.319   2.676  0.0068 -0.0299  0.0889
14055W        W27469  17.572  12.909   1.343  0.2471 -0.0723 -0.1170
14056W        W27470   0.160   2.793   1.406 -0.0769  0.1568 -0.0087
14057W        W27471   0.318   4.580  15.700 -0.2236 -0.0203  0.2789
14058W        W27472   4.264  12.009   3.096  0.0639 -0.2007  0.0802
14059W        W27473   4.633  13.281   6.022 -0.1124 -0.0121 -0.2411
14060W        W27474  13.443   0.126   6.043 -0.2259  0.1580  0.0837
14061W        W27475  17.195   0.094  11.247  0.0267  0.0345  0.0960
14062W        W27476  13.003   6.865  15.328 -0.0389  0.0794  0.0626
14063W        W27477  11.510  14.375  14.434 -0.0792 -0.0474  0.0465
14064W        W27478   0.766   6.696  11.623  0.0829 -0.2253  0.1194
14065W        W27479   7.410   8.132   3.543 -0.0045 -0.0331 -0.1070
14066W        W27480   0.215   1.007   0.118 -0.0268 -0.0150 -0.5289
14067W        W27481   6.945  14.980   3.383  0.0391 -0.0662  0.1206
14068W        W27482   1.160  10.990   3.215  0.1298 -0.2415  0.0980
14069W        W27483   9.326   7.336  11.955  0.1620 -0.0184 -0.2418
14070W        W27484   2.707   4.896   0.266  0.0754  0.0159 -0.3372
14071W        W27485  14.660  12.247   4.963  0.0940 -0.4275 -0.4910
14072W        W27486  17.502  16.471   5.500 -0.0627  0.0785 -0.0026
14073W        W27487  10.389   0.668  14.702 -0.3949  0.0002 -0.2349
14074W        W27488  10.346  15.735   4.576  0.1902 -0.0049  0.1124
14075W        W27489   5.579   5.240   4.587  0.1045  0.3413 -0.0081
14076W        W27490   2.966   1.443  11.660  0.2146  0.1365 -0.1223
14077W        W27491   9.589   4.650  13.639  0.1380 -0.3390 -0.2079
14078W        W27492  13.646   2.874  10.873 -0.1071  0.3909  0.1123
14079W        W27493   4.974   4.976  13.972 -0.0159  0.1599 -0.1065
14080W        W27494  14.186   8.955   4.315  0.0994  0.0624  0.2716
14081W        W27495   6.199   6.101  14.073  0.2167  0.0584 -0.0206
14082W        W27496   3.037   2.861  15.906 -0.1985 -0.1168 -0.0424
14083W        W27497  14.002   4.946  12.852 -0.1649  0.0719 -0.2023
14084W        W27498  13.889   6.565  13.581  0.0123 -0.0830  0.3795
14085W        W27499  10.351  17.083  13.062  0.3222 -0.4393  0.1679
14086W        W27500   5.905  10.721  11.225 -0.0449 -0.0124  0.1230
14087W        W27501  13.896   3.629  10.933  0.0958  0.0926  0.0221
14088W        W27502   1.885  11.931  14.498 -0.1866  0.2531 -0.2222
14089W        W27503  10.535  10.415   1.546 -0.1658  0.2779  0.1013
14090W        W27504  14.517   4.428  15.320 -0.4297 -0.1968  0.0831
14091W        W27505   0.328  11.172   0.950  0.1372 -0.1833 -0.1531
14092W        W27506   3.019   7.804   1.052  0.3063  0.0721  0.2759
14093W        W27507  12.308   5.385   2.485 -0.1980  0.1192 -0.3759
14094W        W27508   9.197  10.011   2.733  0.0113  0.2001 -0.2373
14095W        W27509   8.169   1.296   4.670  0.2539  0.2313  0.0248
14096W        W27510  17.327  11.937  10.334  0.1703  0.1102  0.0385
14097W        W27511   8.335   9.354   3.583  0.2387 -0.0791  0.0452
14098W        W27512   6.891   9.467  16.331 -0.0489  0.2266  0.0685
14099W        W27513   0.406   4.396  11.460 -0.0098  0.0199  0.0553
14100W        W27514  17.073   6.750  11.631  0.2534  0.2155  0.0128
14101W        W27515  17.269  15.903  11.192  0.0596  0.2135 -0.1890
14102W        W27516   2.062   7.443   2.665  0.0421 -0.0480  0.2495
14103W        W27517  12.226   0.931   4.381  0.0155 -0.2715 -0.1426
14104W        W27518   8.842   1.854  12.575 -0.2084  0.1584 -0.1692
14105W        W27519   4.461  14.866   2.249 -0.0722  0.1962  0.0154
14106W        W27520   7.860  12.732  14.829 -0.2960 -0.1151  0.0722
14107W        W27521  11.782  14.950  14.702  0.0226  0.0412 -0.1134
14108W        W27522   5.075  15.082   3.483 -0.2493 -0.1894  0.3484
14109W        W27523   4.236  16.702  15.020  0.1957  0.1229  0.1780
14110W        W27524   3.288   3.185   6.597  0.1434  0.2339 -0.2180
14111W        W27525  12.187   9.616   4.614 -0.3501 -0.0915  0.1234
14112W        W27526   9.642   6.464   3.040  0.0056 -0.1937  0.1125
14113W        W27527  14.451   3.261   4.436 -0.1937  0.3362 -0.0374
14114W        W27528   4.451   1.978   4.667  0.3148  0.0661  0.1484
14115W        W27529  10.883   2.627   3.853  0.1286  0.1006  0.1774
14116W        W27530   1.989   0.158   5.747  0.2231 -0.1289  0.3074
14117W        W27531   1.092  10.527  13.417 -0.1216  0.1153 -0.0558
14118W        W27532   7.739  10.761   0.673 -0.0126 -0.1229  0.1190
14119W        W27533   2.291  17.586   1.710 -0.0066 -0.1056  0.1829
14120W        W27534  10.844   5.951  13.856 -0.1881  0.3035 -0.1319
14121W        W27535  13.029  11.254  11.276  0.2888 -0.1815 -0.1490
14122W        W27536   1.457   2.649   2.602 -0.1244  0.0491  0.1193
14123W        W27537   2.241  15.415   5.401  0.0095 -0.0850 -0.0393
14124W        W27538  13.443   7.518   4.431 -0.2118 -0.0146 -0.2091
14125W        W27539   4.169   8.428  14.814  0.0023  0.1665  0.3124
14126W        W27540   7.613  12.618  13.966  0.0702 -0.1600  0.0799
14127W        W27541   5.896   7.875  13.673 -0.2510 -0.0083  0.1592
14128W        W27542   4.812  16.138   0.727 -0.3714 -0.1272  0.0627
14129W        W27543  10.872   1.903   3.427 -0.0469 -0.0362 -0.1528
14130W        W27544   9.342   1.670  13.769 -0.1329 -0.1145 -0.1556
14131W        W27545  15.673  17.095   3.142 -0.2432 -0.0779  0.1426
14132W        W27546  10.482   7.501   5.610  0.1684 -0.0067 -0.2016
14133W        W27547   6.043   4.118  11.439  0.1852  0.4966  0.3328
14134W        W27548   8.629   6.981  13.563  0.0145 -0.3466 -0.0555
14135W        W27549   3.085  13.351   1.135 -0.0531 -0.5533  0.2542
14136W        W27550   7.801  11.512   1.900 -0.2320 -0.1137 -0.0977
14137W        W27551  15.850  14.140   4.142  0.1081  0.1617 -0.1446
14138W        W27552  12.176  14.089  12.778  0.0891 -0.2635 -0.3143
14139W        W27553  10.058  13.987   2.640  0.1172  0.0741 -0.0084
14140W        W27554  16.362   6.295   3.207 -0.0499 -0.1483  0.0108
14141W        W27555  13.757  18.129  13.587 -0.3721 -0.1040  0.0760
14142W        W27556  13.665   8.668  15.859 -0.0313 -0.0712 -0.0721
14143W        W27557   1.963  17.422   5.579  0.0273 -0.1667 -0.1102
14144W        W27558   7.571   6.306  12.654  0.2052  0.2352 -0.0044
14145W        W27559   7.020   3.708  15.128  0.2807 -0.2371  0.1041
14146W        W27560   2.502   6.516   5.902  0.2213 -0.0208 -0.3086
14147W        W27561  17.925   0.048   3.935 -0.1501  0.0274  0.0877
14148W        W27562  11.567  14.664   5.330 -0.1629 -0.0343 -0.2567
14149W        W27563  16.669   1.735   4.412 -0.0063 -0.4314 -0.1686
14150W        W27564  17.987   7.595  12.743  0.1882  0.0237  0.0076
14151W        W27565   3.309  13.630  13.600  0.0048  0.1435  0.0671
14152W        W27566  14.684   9.543  13.507  0.1753  0.1179 -0.0076
14153W        W27567   3.450  16.917   4.456 -0.1791  0.0648  0.1049
14154W        W27568   7.061  10.362   0.261  0.1492 -0.2041  0.1474
14155W        W27569  16.537   3.384  15.436  0.2493  0.2162  0.0354
14156W        W27570   6.046   3.398  13.520  0.1192  0.0139  0.0851
14157W        W27571   4.327   5.322   5.795  0.0715 -0.0923  0.0824
14158W        W27572   6.659   6.760  12.200 -0.0523  0.4557 -0.1099
14159W        W27573  17.589   9.765   2.404 -0.0683 -0.2149 -0.3127
14160W        W27574   5.460  16.553  11.091 -0.0566  0.3696  0.0573
14161W        W27575   6.348  11.307  15.031 -0.1062  0.2860 -0.2432
14162W        W27576  11.988   7.405   3.937  0.3251 -0.0492 -0.0131
14163W        W27577   3.590   8.868   4.320  0.2159 -0.3588  0.2102
14164W        W27578   6.333   5.952  11.972  0.0953 -0.1610  0.3956
14165W        W27579   3.053  14.365  14.867  0.1194 -0.0324 -0.0255
14166W        W27580  12.098  13.089   0.077  0.3103  0.0769  0.1000
14167W        W27581  14.183   9.745   3.274  0.3329  0.0015 -0.3833
14168W        W27582  17.920   5.787   4.411  0.0360 -0.3551  0.0192
14169W        W27583   2.782   7.129  15.032 -0.0516  0.1036  0.3230
14170W        W27584  17.012   7.758   3.258  0.0002  0.0672 -0.2362
14171W        W27585  10.646   5.420  12.348 -0.0872  0.0577  0.0360
14172W        W27586   6.654  12.257  13.600  0.1752 -0.0773 -0.1963
14173W        W27587   6.851   9.082   3.467  0.3615 -0.0772 -0.4192
14174W        W27588   4.911   6.190  15.962 -0.0233 -0.1888  0.3221
14175W        W27589   1.466   3.105   2.809  0.0145  0.1728  0.1150
14176W        W27590  13.870   2.970   3.206  0.1541 -0.0772 -0.2100
14177W        W27591  12.012  11.741  11.691  0.0233  0.1120  0.0124
14178W        W27592  16.749   2.743   1.655 -0.0622  0.1722 -0.2194
14179W        W27593   6.237  14.550   3.995 -0.0055 -0.1149 -0.0593
14180W        W27594   0.270   6.779  13.659  0.1764 -0.1157 -0.1552
14181W        W27595  17.240   0.960   6.548 -0.1245 -0.0888 -0.1857
14182W        W27596   0.273  13.023   3.279  0.2642 -0.1971 -0.5535
14183W        W27597   0.015   4.322  16.038  0.0453 -0.0623 -0.0063
14184W        W27598  15.966  17.375  11.728 -0.0442 -0.0422  0.0144
14185W        W27599   4.359  17.892   0.520 -0.0048 -0.4296 -0.0063
14186W        W27600  18.218  14.675  11.282  0.0709 -0.0709 -0.0980
14187W        W27601  15.845  11.797   3.550 -0.0062  0.1055 -0.1804
14188W        W27602   5.113   9.221  14.649  0.0965 -0.3385 -0.1633
14189W        W27603  12.965  10.523  12.303  0.2244  0.1192  0.0100
14190W        W27604  10.614  12.999   1.361  0.0332  0.0421  0.0743
14191W        W27605   1.070  14.698  15.438 -0.1349  0.1987 -0.2059
14192W        W27606   6.253   7.447  15.367  0.2194 -0.1303  0.0978
14193W        W27607  16.650   7.109  15.927  0.0675  0.0159  0.2289
14194W        W27608   9.714   1.190  13.077  0.1627 -0.0189  0.2767
14195W        W27609  10.968   6.023   6.063 -0.0581  0.1925 -0.0152
14196W        W27610  18.032   0.301   5.973  0.0556 -0.1371  0.0143
14197W        W27611  16.268  14.332  14.645 -0.0818  0.0891 -0.0345
14198W        W27612  17.814  15.378  14.983 -0.0209  0.4532 -0.4033
14199W        W27613   7.401  10.301  13.893 -0.0874  0.1374  0.2569
14200W        W27614   2.119   3.917   3.086 -0.0558  0.0885 -0.0389
14201W        W27615  11.218   1.878  14.444  0.1175 -0.0428 -0.2565
14202W        W27616   7.316  14.099   4.248  0.1137  0.1611 -0.2741
14203W        W27617   0.400  14.820  11.609 -0.0310 -0.1680  0.1033
14204W        W27618  11.460  11.311   0.908 -0.1373 -0.3141  0.1173
14205W        W27619   5.369   0.185  12.991 -0.2386 -0.4306  0.1440
14206W        W27620   4.269   0.612  15.574  0.1928  0.0972 -0.2219
14207W        W27621   0.873   5.633  12.963 -0.1747 -0.1799  0.1706
14208W        W27622   6.497   5.001   5.877  0.0209  0.3843 -0.1317
14209W        W27623  11.650   8.715   0.950  0.0380 -0.0344  0.2038
14210W        W27624  15.438  16.136   3.258 -0.0483 -0.2408 -0.2625
14211W        W27625  15.463  16.763   4.373  0.1586  0.0525 -0.0544
14212W        W27626  17.030   2.160   6.218  0.4938  0.0196  0.0521
14213W        W27627  14.715  13.834   0.508  0.0045 -0.1162 -0.0803
14214W        W27628  12.086  13.829  14.332 -0.0628  0.2992 -0.2039
14215W        W27629  15.815  12.772   6.570  0.1928  0.1302 -0.2088
14216W        W27630   9.288  11.430   5.606 -0.0543 -0.1023  0.0244
14217W        W27631   4.094  10.933   2.568  0.2673 -0.0851 -0.0877
14218W        W27632  14.776   9.684   1.555  0.2851 -0.0428  0.2150
14219W        W27633   7.819   4.680  13.917  0.1913 -0.3409  0.1053
14220W        W27634  17.169   4.225   4.118  0.1300  0.1022  0.0530
14221W        W27635   2.059   0.224   4.737  0.2248  0.0380 -0.1346
14222W        W27636  16.077   2.742   2.440  0.1763 -0.0720  0.0437
14223W        W27637  12.191  15.329  13.812 -0.0418  0.1438  0.1207
14224W        W27638   1.382   3.241   1.229 -0.0182  0.1511 -0.0465
14225W        W27639  15.677   7.640  14.801  0.0685 -0.1140  0.1214
14226W        W27640  14.793   9.428   3.219 -0.1532 -0.1343  0.0938
14227W        W27641  12.825  12.432  11.495 -0.0035  0.2860  0.0641
14228W        W27642  12.018   2.267   0.282 -0.1246  0.0846  0.0880
14229W        W27643   8.051   9.317  15.970 -0.2835 -0.1871 -0.1828
14230W        W27644   5.077  17.818   2.243  0.0168  0.0922  0.0610
14231W        W27645   0.769  14.700   1.651  0.1804 -0.2782 -0.0393
14232W        W27646  10.672   3.039   4.238  0.1713  0.0014  0.1377
14233W        W27647   2.978   8.710  11.553  0.1551 -0.2011 -0.2224
14234W        W27648  10.133   1.624  16.006 -0.2929 -0.0243 -0.3684
14235W        W27649  14.914  18.042  12.944 -0.2404  0.2574 -0.1166
14236W        W27650   2.559  13.292  15.605  0.1418 -0.0906  0.0611
14237W        W27651  12.689   3.735  13.466 -0.3109  0.2156 -0.1657
14238W        W27652  11.037   4.895  14.561  0.0841  0.1010  0.1437
14239W        W27653   6.915  11.953  15.285  0.0326  0.2093  0.0845
14240W        W27654   7.974  13.736   2.574  0.1665 -0.0517 -0.0241
14241W        W27655   1.633   5.789   5.113  0.0524  0.1255  0.0120
14242W        W27656  14.718   0.247  13.511  0.0349  0.2213 -0.1593
14243W        W27657   7.010  14.249  14.449  0.1267  0.1937 -0.0488
14244W        W27658   0.718  11.128   0.388 -0.2528  0.1314 -0.0175
14245W        W27659  17.975   6.930  16.492  0.2226 -0.2113  0.3556
14246W        W27660  17.908   1.261   0.614  0.0870 -0.2415  0.0121
14247W        W27661  12.372  11.232   3.306 -0.0480 -0.1727  0.1070
14248W        W27662   0.202   6.101   0.558  0.1680  0.2095  0.0398
14249W        W27663  15.068   0.551  10.906  0.3747  0.0656  0.0141
14250W        W27664   4.060   9.827  16.470  0.2202 -0.2955  0.2292
14251W        W27665   8.551   3.394   3.241 -0.1264  0.1086 -0.0583
14252W        W27666   0.007   5.010  15.728 -0.2193 -0.2855 -0.2473
14253W        W27667   0.608   0.104   5.807 -0.1262 -0.0047  0.2331
14254W        W27668   3.150  17.473  10.430 -0.0254  0.0965  0.0920
14255W        W27669  18.188   2.248   3.567  0.3299 -0.2017  0.0369
14256W        W27670  12.820  17.761   4.462  0.2970  0.0662 -0.1297
14257W        W27671  13.743  11.031   4.309  0.2441  0.1853  0.1895
14258W        W27672  11.524   4.964  12.505  0.0968 -0.0644 -0.0242
14259W        W27673  11.436   0.554  13.742 -0.0810  0.2646 -0.0583
14260W        W27674   0.466   4.350  10.136 -0.1922  0.3358  0.0067
14261W        W27675   1.684   9.110  16.516 -0.1506  0.1416 -0.2802
14262W        W27676  18.019   9.313   3.915  0.1481 -0.2022  0.0563
14263W        W27677   8.166   5.058  15.575  0.1883 -0.0930 -0.0571
14264W        W27678   8.317   2.654   2.800  0.0511  0.3414 -0.0234
14265W        W27679  11.031   7.402  14.390 -0.0436  0.1037  0.2091
14266W        W27680   6.092   5.938   5.641 -0.0210  0.2333 -0.1928
14267W        W27681  15.121  16.015   3.607  0.2825 -0.0138 -0.0527
14268W        W27682   8.294   7.955  14.493 -0.1075  0.1304  0.2262
14269W        W27683   2.821  17.812   3.699 -0.1133  0.1311 -0.0388
14270W        W27684   5.974  13.594  12.540  0.0360  0.0493  0.0508
14271W        W27685   2.314  17.967  14.381 -0.0443  0.0287 -0.0007
14272W        W27686  16.925   1.450  11.361 -0.0461 -0.1008 -0.2929
14273W        W27687  17.579   8.425  12.833 -0.1122 -0.0482  0.1092
14274W        W27688   0.288  16.979  14.781  0.1065  0.1151 -0.2456
14275W        W27689  10.749  17.776   1.211  0.1466 -0.0901 -0.1068
14276W        W27690  17.642  15.339   2.794  0.2040 -0.2192 -0.3015
14277W        W27691  15.413   2.625  14.209 -0.0965  0.0966  0.0318
14278W        W27692  13.164   1.265   0.091  0.0717 -0.0759  0.0987
14279W        W27693   6.795  13.404   5.397 -0.2609 -0.2038  0.0618
14280W        W27694  16.956   4.038  12.070  0.1400  0.0221  0.1734
14281W        W27695   7.248  14.555  13.623 -0.0887  0.1514  0.1912
14282W        W27696   8.417   4.171   4.388 -0.0496 -0.3171  0.0293
14283W        W27697  16.107   7.593  13.887 -0.0016  0.0121 -0.3057
14284W        W27698   6.818  14.741  11.064 -0.1430 -0.1921  0.0516
14285W        W27699   5.512   1.078   4.610  0.1039 -0.1347 -0.0303
14286W        W27700  10.595   2.707  14.167 -0.1936  0.0071  0.2342
14287W        W27701  13.064   5.483  10.967 -0.3365  0.1977  0.1942
14288W        W27702  10.938   3.464   1.992  0.0645  0.3292 -0.0052
14289W        W27703  14.058   4.101  14.448  0.0618  0.2074 -0.0737
14290W        W27704  17.510   0.953   0.431  0.1602  0.0006  0.1782
14291W        W27705  13.450   1.338  11.839 -0.1922  0.0548  0.3176
14292W        W27706   4.840   7.483   1.497 -0.1387 -0.0553 -0.2538
14293W        W27707  15.155   0.500  15.438  0.1567  0.0966  0.1990
14294W        W27708   1.155  12.659  12.393  0.0337  0.3536 -0.0585
14295W        W27709  11.006   9.059   1.557  0.2515 -0.0475  0.1309
14296W        W27710   4.938   1.259   4.130 -0.0936 -0.1231 -0.1538
14297W        W27711   8.895  16.449   4.699 -0.0779  0.0880  0.1132
14298W        W27712   2.135   4.637  12.623  0.0304  0.3407 -0.4942
14299W        W27713   9.404  16.563  11.789 -0.1851  0.0208  0.2713
14300W        W27714   0.224   3.494  13.506  0.2729  0.1693  0.0874
14301W        W27715  17.367   9.694  14.800 -0.1499 -0.0059 -0.4824
14302W        W27716   9.622  10.592   2.122 -0.1453 -0.3441  0.0105
14303W        W27717   4.958   3.163  14.230  0.0604  0.0330  0.1049
14304W        W27718   4.367   2.199   2.878  0.1910 -0.2817 -0.1750
14305W        W27719  17.764  13.834   5.582 -0.2886  0.0061 -0.2128
14306W        W27720  16.092   7.700   0.669  0.2430  0.1082  0.0351
14307W        W27721   3.242  14.395  16.430  0.0713 -0.0743  0.0476
14308W        W27722   8.646   6.344   1.458 -0.2625 -0.2083 -0.1657
14309W        W27723  13.304  11.316   4.066  0.1177 -0.0419  0.0161
14310W        W27724   7.180  18.046  12.329 -0.1888  0.2571 -0.2711
14311W        W27725   8.304   2.831   2.254 -0.2517 -0.0463  0.0509
14312W        W27726  15.847   6.512   5.062 -0.2531  0.0522  0.3056
14313W        W27727   4.436  13.410   0.707 -0.0034 -0.0205 -0.1647
14314W        W27728   1.559   0.887   3.221 -0.4291  0.0397 -0.2045
14315W        W27729   9.745  13.699   4.897  0.2745 -0.0553 -0.1207
14316W        W27730  10.726  17.723  14.085  0.0294 -0.4068 -0.1974
14317W        W27731   8.230   9.406  13.768  0.0075  0.1847 -0.3633
14318W        W27732   2.761  15.954  15.172 -0.3254 -0.0220  0.5355
14319W        W27733   1.823  10.013   1.027  0.0371  0.1795  0.1111
14320W        W27734  17.466   5.712  11.695 -0.5137 -0.1047 -0.0374
14321W        W27735  14.919  17.569   5.226 -0.1559  0.1130 -0.1202
14322W        W27736  11.768  15.908  12.949  0.2534  0.3458 -0.1415
14323W        W27737   6.595   8.235   1.638 -0.0576 -0.4316 -0.0993
14324W        W27738  10.448   4.089  15.318 -0.4491  0.0985  0.0394
14325W        W27739   7.956   7.230  11.260 -0.0124  0.1704 -0.1336
14326W        W27740   4.172  14.560  11.669 -0.3815  0.3352  0.1848
14327W        W27741   5.776  15.561  13.131  0.0952  0.1748  0.0324
14328W        W27742   0.429   4.824   5.526  0.2612 -0.2515  0.3114
14329W        W27743   7.814   3.464  14.251  0.2230  0.2305 -0.0572
14330W        W27744  16.899   3.226   0.686 -0.3195  0.0247 -0.1240
14331W        W27745  14.595   6.364  15.292  0.2858  0.3741 -0.0328
14332W        W27746   6.883  11.961   0.231 -0.1628 -0.2180 -0.0041
14333W        W27747  16.000  14.477  12.444 -0.1347 -0.0420  0.2168
14334W        W27748   1.741   8.965   6.276  0.1923  0.4533  0.2169
14335W        W27749   0.372   0.371  12.768 -0.1567  0.0479 -0.0518
14336W        W27750   0.842  11.617   1.744 -0.1219 -0.1861  0.0293
14337W        W27751  15.878   6.960  10.944  0.0817 -0.2980  0.1498
14338W        W27752  14.208   3.724  15.850 -0.3368  0.3361 -0.2152
14339W        W27753  11.965   7.669  14.158 -0.1216 -0.0726 -0.2599
14340W        W27754   8.530   3.587  10.920 -0.2269  0.2817 -0.1500
14341W        W27755  10.760  16.297   2.413 -0.0638 -0.0344 -0.3019
14342W        W27756   7.770  13.447   3.033 -0.2361  0.0175  0.1618
14343W        W27757   5.748  15.735  15.283  0.3778 -0.1299  0.1013
14344W        W27758  15.576  15.146   0.142  0.1409  0.2037  0.1286
14345W        W27759  15.839  13.419   4.238 -0.2925 -0.1437 -0.2558
14346W        W27760   1.746   2.714  15.944 -0.1624  0.0316  0.3461
14347W        W27761  10.253   9.326  15.924 -0.0643  0.1796  0.0242
14348W        W27762   5.435  10.968   2.873 -0.4590 -0.0469  0.0503
14349W        W27763  10.160  17.283  11.742 -0.0239  0.1300  0.2150
14350W        W27764   2.192  14.360  13.929 -0.3038  0.0694 -0.0798
14351W        W27765  13.636   6.322  13.992  0.2114  0.0119 -0.0779
14352W        W27766   4.436   0.843   2.089 -0.1543 -0.1447 -0.1570
14353W        W27767   0.127  16.574   3.312  0.2047 -0.2593 -0.1030
14354W        W27768  11.489   3.140  12.978 -0.1726 -0.2685 -0.1127
14355W        W27769   0.083   5.267  16.295  0.0750  0.0854 -0.0546
14356W        W27770  15.815   7.597  16.323 -0.0667  0.3221 -0.0198
14357W        W27771   2.373   4.036  16.501 -0.1415  0.0253  0.1132
14358W        W27772   5.738   3.211  13.964 -0.0069  0.1156  0.1022
14359W        W27773   9.453   3.367   4.923 -0.3548  0.0366 -0.0806
14360W        W27774   5.398   7.539   5.147 -0.0892 -0.1496 -0.2421
14361W        W27775  12.438   0.986  11.870 -0.3107 -0.1840 -0.4769
14362W        W27776   8.262  18.129  10.942  0.0131 -0.2910  0.0050
14363W        W27777  17.487  18.207   3.631 -0.4199 -0.1033  0.2704
14364W        W27778  17.404  18.062  15.378  0.1532  0.1881 -0.2404
14365W        W27779   7.130   7.751  10.903  0.0407  0.2987  0.1052
14366W        W27780   6.855   7.728  14.682  0.0854  0.0957  0.2459
14367W        W27781   0.361   9.799  11.707 -0.1395 -0.0875 -0.0589
14368W        W27782  14.830  10.081  11.809  0.2069  0.1923  0.0526
14369W        W27783  15.989   3.193   2.246  0.1449 -0.0828  0.1291
14370W        W27784  14.264  11.811  10.656 -0.2350  0.1636  0.0205
14371W        W27785  15.793  14.651   4.216  0.2035  0.0049 -0.0431
14372W        W27786  17.539   8.163   5.591 -0.2258 -0.0028  0.1320
14373W        W27787  14.698   4.402   3.675  0.0270 -0.1996  0.2692
14374W        W27788  10.014   5.068  16.402 -0.1275 -0.2673 -0.0187
14375W        W27789   5.928  12.919   6.202  0.1465 -0.1724  0.1119
14376W        W27790  17.422  14.174  11.665 -0.0910 -0.0419 -0.1316
14377W        W27791   7.268  10.044   6.173 -0.0270  0.0628  0.0578
14378W        W27792  14.937   7.116  14.346  0.3048 -0.0378 -0.1634
14379W        W27793   1.560  11.163  14.371 -0.2698 -0.2161  0.2831
14380W        W27794   7.404   6.856   2.146 -0.1116 -0.1714 -0.2895
14381W        W27795  14.879  10.058   0.869  0.0232 -0.0147  0.1381
14382W        W27796  12.327   7.944   2.518 -0.1916  0.5105  0.3008
14383W        W27797  15.588   1.059   0.248 -0.0812 -0.0287  0.0439
14384W        W27798  16.970   7.148  13.069  0.1451 -0.1260 -0.0962
14385W        W27799   3.632  10.863  15.381 -0.2068 -0.1668  0.0438
14386W        W27800  11.009   8.283   6.387 -0.4128 -0.0568 -0.1725
14387W        W27801  13.268  17.372   4.554 -0.1323 -0.0130  0.1597
14388W        W27802   3.825  12.203  16.215  0.0908 -0.0370 -0.0274
14389W        W27803   5.035  12.661  13.000 -0.1972  0.0694  0.2200
14390W        W27804  14.628  14.950  11.423  0.2560  0.1690 -0.0683
14391W        W27805   6.000  12.203   3.134 -0.2328  0.1140 -0.1643
14392W        W27806   0.555  12.985   1.002  0.1077  0.0237  0.0100
14393W        W27807  14.314   5.849  11.972 -0.0477 -0.0226  0.3243
14394W        W27808  17.496  12.555   0.351 -0.2784 -0.0378  0.0550
14395W        W27809   0.533   7.931   0.390 -0.1138  0.2335 -0.0326
14396W        W27810  17.774   9.134   1.728  0.1931 -0.0905 -0.0367
14397W        W27811  11.387  12.130  13.004 -0.0953  0.1778  0.0005
14398W        W27812   1.418  17.073  14.695  0.2034  0.4373  0.0332
14399W        W27813  14.704  17.161  11.766 -0.2284 -0.0539  0.2257
14400W        W27814   1.729  16.537  15.357 -0.1149 -0.1450  0.2359
14401W        W27815  13.102   1.901  12.483  0.1288  0.1075 -0.1241
14402W        W27816  16.890   8.405  14.469  0.3570 -0.0173  0.2771
14403W        W27817  12.705   3.585   2.216 -0.1528  0.1603 -0.0094
14404W        W27818  14.911  10.152   4.474 -0.2658 -0.2068  0.3155
14405W        W27819   9.334  16.749   5.617  0.2360  0.1344 -0.2032
14406W        W27820   9.912   6.395  16.355  0.0360 -0.0666  0.1646
14407W        W27821  10.793   2.908   4.828  0.1472 -0.0360 -0.2464
14408W        W27822  17.347   2.104  12.205  0.1962  0.2459 -0.3267
14409W        W27823  15.877  17.998  16.453 -0.2476  0.1899  0.0397
14410W        W27824   3.703   1.706  14.460  0.1245  0.1927  0.0404
14411W        W27825  14.726   7.814  13.914  0.0041 -0.2264 -0.0341
14412W        W27826  12.438  16.893  14.800 -0.2425 -0.0498  0.1217
14413W        W27827  11.001  16.944  13.696  0.2202  0.1455  0.1914
14414W        W27828   6.601   4.445  16.304 -0.0685  0.2268  0.0111
14415W        W27829  11.564   3.664  11.857 -0.0346 -0.0924  0.0558
14416W        W27830  16.956  11.863  16.007 -0.0368 -0.1343 -0.1974
14417W        W27831  17.185   4.051  14.080 -0.2473  0.1859 -0.2306
14418W        W27832  11.482  15.756  15.978 -0.1194  0.0714 -0.1212
14419W        W27833  11.094   5.411  14.708 -0.1636 -0.0417  0.0601
14420W        W27834   0.783  15.333  13.775 -0.3358 -0.0735 -0.2579
14421W        W27835   1.005   6.097   2.661 -0.0155  0.0831  0.1082
14422W        W27836   6.461  16.525   6.038 -0.1728 -0.2791 -0.0950
14423W        W27837   2.626  10.133  14.985 -0.2066 -0.0547 -0.1793
14424W        W27838  11.630  11.912  13.494 -0.1410  0.0578  0.4283
14425W        W27839  17.518  14.478   3.286  0.1971  0.1311 -0.0802
14426W        W27840  15.932  16.664  15.296 -0.2067  0.1858  0.2122
14427W        W27841  11.768   5.258   2.735  0.1645 -0.0721  0.1700
14428W        W27842   6.239   1.517  13.383  0.1697 -0.1588  0.1926
14429W        W27843   6.383  11.539  13.651 -0.1063  0.2282  0.0955
14430W        W27844  18.036  13.745  12.122  0.1026  0.0672 -0.1835
14431W        W27845   6.150   3.216   3.822 -0.0636 -0.0475 -0.0949
14432W        W27846  14.895   3.672  14.737  0.0868  0.0773 -0.3704
14433W        W27847   2.605   7.736   5.467  0.2892 -0.3909  0.0972
14434W        W27848  15.982  15.182   3.978  0.0828 -0.1069  0.1531
14435W        W27849   8.035  11.291  12.614 -0.2345 -0.1321  0.0335
14436W        W27850   7.204  10.984  11.207  0.0486 -0.4057  0.1083
14437W        W27851  15.364  11.342  15.698 -0.4696 -0.0086  0.1519
14438W        W27852   1.733  17.348  11.002  0.0062  0.0018  0.0223
14439W        W27853  10.411   0.128   3.850  0.3887  0.0034 -0.2360
14440W        W27854  14.623   5.923  13.709  0.1220  0.0736  0.1334
14441W        W27855   0.955   4.328   4.509 -0.2825  0.1163  0.0127
14442W        W27856  16.563   9.672   5.804  0.1199 -0.2500 -0.0381
14443W        W27857  17.316  12.263   3.745  0.2385 -0.0407  0.2526
14444W        W27858   4.703  16.746  13.800  0.0539 -0.0562  0.1520
14445W        W27859  17.751   9.679  15.836 -0.0796  0.1387  0.0653
14446W        W27860   7.495  10.857   0.188 -0.0956 -0.1585 -0.1258
14447W        W27861   9.675  11.480  15.610 -0.0017 -0.0153 -0.1938
14448W        W27862   5.510   1.618  14.172 -0.1939 -0.0541  0.0127
14449W        W27863   2.934   7.272  11.716 -0.0879 -0.1373 -0.1514
14450W        W27864  16.148   7.714  12.931  0.3180 -0.1138  0.3854
14451W        W27865  16.820   3.319   2.836  0.0305  0.0710  0.4030
14452W        W27866   6.672  13.874  14.567 -0.0547 -0.0888 -0.0247
14453W        W27867   2.414   4.754   5.575 -0.0106 -0.0022 -0.2378
14454W        W27868  13.962   7.590   3.599  0.0898  0.3092  0.0635
14455W        W27869   2.372   7.518  15.229 -0.1072  0.2990  0.0190
14456W        W27870  13.774   5.791  13.790 -0.2060 -0.0785 -0.1007
14457W        W27871   4.602  17.342  15.495 -0.0941 -0.1104 -0.0421
14458W        W27872   2.859   5.488   4.979 -0.1906 -0.0782 -0.3182
14459W        W27873  17.320   1.739   0.195  0.3265 -0.0517 -0.1983
14460W        W27874  16.001   1.713  12.838 -0.0533 -0.2045  0.1868
14461W        W27875  12.300   0.518  10.781 -0.2568 -0.1356  0.1053
14462W        W27876  18.092  13.126  16.509 -0.0954 -0.0192 -0.0280
14463W        W27877  15.583   5.974  14.555  0.0364 -0.0764  0.0838
14464W        W27878  16.371   9.197   0.716 -0.0056 -0.0735 -0.0506
14465W        W27879   9.837   8.035   1.119 -0.4219  0.0059 -0.2101
14466W        W27880  18.190  16.365   4.949  0.0550  0.0889 -0.3208
14467W        W27881   0.237   6.825   5.132 -0.1331  0.2251 -0.0855
14468W        W27882   5.496   3.213   0.933  0.0527 -0.0420 -0.3627
14469W        W27883  15.708   3.767   5.578 -0.2763  0.1488 -0.0355
14470W        W27884   9.383  16.065  11.536  0.4207 -0.0258  0.1336
14471W        W27885  17.717  11.665   4.442 -0.2493  0.0321  0.0766
14472W        W27886   0.527   6.763   3.603  0.0336  0.0002  0.0469
14473W        W27887  17.445   3.717   0.290 -0.2165 -0.3143 -0.1492
14474W        W27888   1.625  11.305   1.428  0.0332  0.0401  0.1881
14475W        W27889  15.702  13.148   0.617 -0.1114  0.0816  0.0694
14476W        W27890   8.215  11.704  15.933 -0.2808 -0.1297 -0.1521
14477W        W27891  12.587  15.921   2.263 -0.4936  0.1594  0.1242
14478W        W27892  16.770  15.007  15.173 -0.2303 -0.1070  0.0547
14479W        W27893   0.977   3.869   1.572 -0.0816 -0.2703 -0.0688
14480W        W27894   3.165   5.895  14.288 -0.0241  0.0938  0.0498
14481W        W27895   7.984  12.148   4.898 -0.3077 -0.0408  0.0668
14482W        W27896   9.222  14.609   4.042  0.1795  0.2688  0.1493
14483W        W27897   6.407  17.315  11.677  0.1183  0.1210  0.0437
14484W        W27898  12.977  12.236  16.404  0.1080  0.0764 -0.1219
14485W        W27899   1.843   8.405   0.489  0.1285 -0.2273 -0.2421
14486W        W27900   0.142  10.226   3.497 -0.1668  0.2488  0.0669
14487W        W27901   0.190   7.617   1.982 -0.1269 -0.1605  0.1536
14488W        W27902  17.990   0.154   5.495 -0.5555 -0.0276 -0.2276
14489W        W27903   4.493   9.675  11.037  0.2788 -0.2221 -0.2754
14490W        W27904   7.804  13.179   1.181 -0.1496  0.0097 -0.2469
14491W        W27905   6.512  12.678  14.559  0.2672  0.0438  0.1504
14492W        W27906  16.620   8.553  16.182 -0.1408  0.1096 -0.4357
14493W        W27907  14.109  13.867   1.951  0.2842 -0.5258  0.4612
14494W        W27908  13.935   5.406  12.536 -0.1082  0.2630  0.0717
14495W        W27909   0.212   1.578  14.528  0.3178  0.1525  0.0343
14496W        W27910   9.466   3.441   1.646  0.0484  0.1344  0.0504
14497W        W27911  17.966  12.969   6.032  0.1151  0.0153  0.0840
14498W        W27912   1.736   6.507  15.693  0.4358  0.2821 -0.3314
14499W        W27913   2.905  16.450  11.789  0.2672 -0.0599 -0.0826
14500W        W27914  11.739   1.088   2.313  0.0148  0.0148  0.1322
14501W        W27915  12.739   3.578   1.163  0.0657 -0.1091  0.2380
14502W        W27916   3.701  17.116   2.962  0.0674 -0.0498 -0.1162
14503W        W27917  13.696  15.188  15.853 -0.2048 -0.0893 -0.0367
14504W        W27918   0.667   5.188   5.839 -0.0688 -0.0584  0.2350
14505W        W27919  10.132  11.751  13.724 -0.2708  0.1004  0.2473
14506W        W27920  15.043   3.226   5.797  0.1782 -0.0886  0.0566
14507W        W27921   4.276  11.498   3.754  0.2842 -0.1592 -0.0365
14508W        W27922  15.479   0.557   1.116  0.2219 -0.2935  0.1128
14509W        W27923   8.623  16.336  12.592  0.4069  0.2540 -0.0994
14510W        W27924   2.947  11.373  14.318  0.1344  0.0111 -0.0076
14511W        W27925   1.267   7.904  12.811  0.0440  0.1726 -0.1013
14512W        W27926   2.073   6.931   2.633  0.4396  0.3209 -0.2390
14513W        W27927  12.458   7.503  15.953 -0.2636 -0.1947 -0.0299
14514W        W27928  14.624   4.514  16.365 -0.2214 -0.1111 -0.1985
14515W        W27929   9.015  11.064  12.367 -0.2262  0.1756 -0.1220
14516W        W27930  14.254   1.409   1.214  0.2638 -0.0990 -0.0147
14517W        W27931  12.343   6.789  10.512  0.2044 -0.0670  0.0793
14518W        W27932   4.899  16.468   1.364  0.0030  0.0668  0.2399
14519W        W27933   9.832   2.278  15.439  0.0603 -0.2922  0.0781
14520W        W27934   0.530   0.360   0.571 -0.0932 -0.1013  0.0894
14521W        W27935   0.595   5.272   3.719 -0.3395  0.0850  0.1191
14522W        W27936  13.260   1.388  11.368 -0.1721 -0.0043  0.2299
14523W        W27937   4.079   2.302   5.967 -0.0532  0.1665  0.0155
14524W        W27938   0.781  11.401   5.425 -0.0292  0.0858 -0.0731
14525W        W27939  16.560  11.189   2.086  0.2045 -0.0734 -0.0684
14526W        W27940  12.505   9.030  13.585  0.0820 -0.1537 -0.1197
14527W        W27941   1.549   4.183   3.431 -0.0449 -0.0357  0.1257
14528W        W27942   0.924   4.592  14.204 -0.1998  0.0087 -0.2744
14529W        W27943   2.948   0.895  11.650 -0.1953 -0.0894 -0.3633
14530W        W27944   0.883   7.462  12.426 -0.0780 -0.0251  0.2485
14531W        W27945   1.119  13.825  11.819  0.3428 -0.0613 -0.1992
14532W        W27946  15.014  10.106  10.565  0.1225 -0.3318 -0.0765
14533W        W27947   8.137  11.885  12.827 -0.3070  0.0399 -0.1712
14534W        W27948   9.113   6.439   2.931 -0.2671  0.0451 -0.1563
14535W        W27949   7.447   2.580   2.476  0.0850  0.2906 -0.0252
14536W        W27950   4.645  17.049  15.867 -0.1740 -0.1072 -0.2064
14537W        W27951  12.591   2.917   1.964  0.1628 -0.2192 -0.0059
14538W        W27952   3.484  16.539   0.019  0.2111  0.0496  0.1024
14539W        W27953  15.098   8.723   5.107 -0.0995  0.2248  0.0037
14540W        W27954   9.297  10.232  14.376  0.2156 -0.0857  0.1667
14541W        W27955  13.683  14.321  15.850  0.2756  0.0875  0.4235
14542W        W27956   9.032   0.274  12.298 -0.0135 -0.1820 -0.2348
14543W        W27957  12.526  15.397  10.850 -0.0614  0.2043 -0.1026
14544W        W27958   5.793  16.377  11.455 -0.1799  0.0018  0.0576
14545W        W27959   0.216   8.480   1.125 -0.0382 -0.1100  0.2025
14546W        W27960   4.073   3.739   4.920  0.0973  0.0222 -0.1290
14547W        W27961  15.038   3.248   2.302  0.1350  0.1827  0.2091
14548W        W27962   4.017   4.533   4.313 -0.1150  0.1766 -0.0128
14549W        W27963  14.295  12.503  14.617 -0.0465 -0.1956 -0.2077
14550W        W27964  10.242  13.129   2.860  0.0550  0.1781 -0.0457
14551W        W27965   6.310  12.409  12.436  0.0295  0.0365 -0.2563
14552W        W27966   5.867  11.010   1.244 -0.2643 -0.1013 -0.0002
14553W        W27967  11.748  16.591   2.981 -0.2514  0.2731 -0.0362
14554W        W27968   3.742   0.925  15.632 -0.0656  0.3544  0.1935
14555W        W27969  10.625   0.418  11.139  0.1715  0.1398 -0.2711
14556W        W27970   1.298  15.094   2.493  0.0987 -0.0514 -0.0622
14557W        W27971  14.510   8.217   4.153 -0.0186  0.2201 -0.1783
14558W        W27972  11.788   8.181   3.532 -0.1364 -0.0876  0.2870
14559W        W27973   6.479   7.294  12.045 -0.2320 -0.1979  0.2189
14560W        W27974   2.063  11.280   4.074  0.0796  0.0713 -0.2187
14561W        W27975  13.799  11.451   2.701 -0.0331  0.2515  0.1457
14562W        W27976  12.421  11.430  11.797  0.0869 -0.1643  0.0092
14563W        W27977  13.414   4.165  10.408  0.0525  0.0130 -0.3186
14564W        W27978  13.537   0.130  13.189 -0.0552  0.1241 -0.0532
14565W        W27979  17.794   5.327   1.526 -0.2350  0.1702  0.2168
14566W        W27980   7.190  17.332   2.273 -0.0491 -0.5178 -0.0622
14567W        W27981   7.645   6.436   0.716 -0.0231 -0.0039 -0.1024
14568W        W27982   1.152  15.508  15.853 -0.0684 -0.1396  0.0512
14569W        W27983   9.029   0.095  13.227  0.1274  0.1575  0.2683
14570W        W27984  10.479   0.301   3.316  0.2045 -0.0541 -0.2159
14571W        W27985   3.141   3.220   4.699 -0.2023 -0.0290  0.0916
14572W        W27986  13.174   4.928  12.878  0.2746 -0.1202  0.2496
14573W        W27987   8.713   7.723  16.377  0.2474 -0.2596 -0.1840
14574W        W27988  10.448   1.090  16.240 -0.1226 -0.2827 -0.0647
14575W        W27989   1.884   8.099  14.882  0.3201  0.1704  0.1681
14576W        W27990   0.516  10.704  15.271  0.0891 -0.0968  0.2203
14577W        W27991  12.615  11.974   2.603  0.1791 -0.0904  0.0046
14578W        W27992   7.590  16.412   5.397  0.2063 -0.3598 -0.0078
14579W        W27993  13.895  12.818  15.191  0.0088  0.0477 -0.1008
14580W        W27994  15.505  16.571  16.210  0.3174  0.0687  0.0717
14581W        W27995  13.299  14.626   2.006 -0.1809  0.0527 -0.1800
14582W        W27996  16.755  11.037   3.779  0.0828  0.2682  0.0681
14583W        W27997   8.160   7.282  15.404 -0.0040 -0.0400  0.1624
14584W        W27998  14.032   1.782   0.454 -0.0628  0.1057  0.0291
14585W        W27999   0.416  17.198   0.017 -0.2887 -0.0703 -0.2410
14586W        W28000  10.074   9.682   3.285  0.0579 -0.0997  0.0732
14587W        W28001   3.655   7.120   6.208 -0.3846 -0.1338 -0.1047
14588W        W28002   6.588   8.192   3.400 -0.1563  0.0545  0.2407
14589W        W28003   8.222   3.351  15.352  0.1130 -0.1138 -0.2403
14590W        W28004  11.039   4.558   4.273  0.0820 -0.2523  0.1769
14591W        W28005  17.417   1.087  11.364 -0.2524  0.3827  0.2160
14592W        W28006  15.265  13.260   3.651 -0.3827  0.1985 -0.1029
14593W        W28007  10.393   5.076  11.270  0.0480  0.1020  0.0525
14594W        W28008   5.793   5.219  10.603 -0.0513  0.2934  0.1562
14595W        W28009   4.374   3.873   5.280  0.0993  0.0562 -0.0739
14596W        W28010  13.794   5.023   6.465  0.1833 -0.1407 -0.0466
14597W        W28011  14.250   1.522   4.801  0.3011 -0.2030  0.1060
14598W        W28012   3.919   2.464   3.676 -0.1138 -0.0295  0.0206
14599W        W28013   0.625   8.597   1.591  0.1716 -0.2001 -0.1780
14600W        W28014   6.201  13.047  16.005  0.1816  0.1549 -0.1396
14601W        W28015  15.186  14.954  16.375 -0.0059  0.0064  0.1721
14602W        W28016  12.297  17.737  12.536 -0.0774 -0.1940  0.1574
14603W        W28017   8.517   5.063  15.143  0.0021 -0.1998 -0.0545
14604W        W28018   8.109  17.253   2.432  0.4067  0.0509 -0.1929
14605W        W28019  13.012   3.068  14.524  0.0045 -0.2376 -0.2867
14606W        W28020   8.789   0.403   1.986  0.0596 -0.1714 -0.1783
14607W        W28021   8.735  16.229  14.387  0.3051 -0.0247  0.2145
14608W        W28022   9.567   6.086  10.290  0.2397 -0.1471  0.1790
14609W        W28023   3.830  10.641  13.959  0.0723  0.0273  0.0041
14610W        W28024  17.901   0.282   4.520  0.1049  0.2272  0.3596
14611W        W28025  15.875  16.414   3.173  0.3121 -0.0902 -0.0125
14612W        W28026   0.367  15.359  14.427  0.2906 -0.1394  0.1651
14613W        W28027  16.820   0.068  10.898  0.0160  0.0199 -0.1036
14614W        W28028   6.314   5.581  12.818  0.2686  0.2164  0.2470
14615W        W28029  17.281  15.763   5.779 -0.0638  0.1405  0.0523
14616W        W28030   3.406  11.935  10.935 -0.3339  0.1442 -0.1141
14617W        W28031   7.251  11.165   2.850  0.0269  0.0869  0.1615
14618W        W28032  16.968   2.960   3.348  0.1692  0.1914  0.1493
14619W        W28033  13.870  10.098   1.292 -0.0558 -0.1376  0.2737
14620W        W28034  13.732  17.589  12.496  0.0083 -0.0959 -0.1972
14621W        W28035   0.199  17.709  13.626  0.1199 -0.0222  0.0800
14622W        W28036   0.386   1.111   1.260  0.1070 -0.0044  0.1511
14623W        W28037   5.360  10.935  11.082  0.2710 -0.1050  0.3394
14624W        W28038   6.370  16.220   2.181 -0.0974 -0.0451  0.1601
14625W        W28039   4.577   5.129   3.787  0.1741  0.2527 -0.1284
14626W        W28040   8.740   9.563  15.958  0.2751 -0.1121 -0.1393
14627W        W28041   4.181  16.343   2.753 -0.2253 -0.0072  0.0129
14628W        W28042   9.349   0.353  15.967 -0.1804 -0.1518 -0.2007
14629W        W28043  13.049   1.933   5.777 -0.3000  0.0726 -0.0201
14630W        W28044  17.131  13.409   6.068 -0.1785  0.1881 -0.1459
14631W        W28045   6.272  18.008   5.872  0.1592 -0.2710 -0.0974
14632W        W28046  11.510   8.278   0.233  0.1468  0.0204 -0.0344
14633W        W28047  12.597   5.086   2.772 -0.0849  0.1218  0.2009
14634W        W28048  17.455   2.638  16.354 -0.0981 -0.0971 -0.0772
14635W        W28049   9.767  13.419  12.222  0.2821  0.2340  0.0036
14636W        W28050   5.601  12.619   0.561 -0.1305 -0.1313  0.3207
14637W        W28051  13.499   0.445   5.128  0.1141 -0.1121 -0.1642
14638W        W28052   1.755  16.094  15.660  0.1203 -0.0173  0.0013
14639W        W28053   0.104   0.742  14.818  0.0139  0.2369  0.1922
14640W        W28054  13.685  10.488   3.184  0.2228 -0.2913 -0.2290
14641W        W28055  15.450  16.052  10.209  0.1239 -0.0102  0.1434
14642W        W28056   5.049   3.586  12.559  0.2327  0.2944  0.1143
14643W        W28057   9.391   2.113   3.666 -0.1803  0.2633 -0.0224
14644W        W28058   8.026  12.546   1.644  0.0599 -0.1087  0.1724
14645W        W28059   2.137   4.790  14.769  0.0266  0.1380  0.0985
14646W        W28060   7.861   1.681  10.779  0.0946 -0.0217  0.1376
14647W        W28061  16.048   3.318  13.515 -0.0165 -0.1261  0.1177
14648W        W28062   3.820   9.330  12.458 -0.2346  0.0604 -0.1071
14649W        W28063  16.973   7.085  14.729 -0.0307  0.0981  0.1732
14650W        W28064   1.464  12.429  15.924 -0.0459  0.5035 -0.1180
14651W        W28065  14.408   7.922   3.731 -0.1479 -0.3112 -0.2094
14652W        W28066  13.018  14.744  14.021 -0.1124  0.0752 -0.1005
14653W        W28067  16.717   4.389   4.193  0.1152  0.2456  0.0281
14654W        W28068   5.842  10.705  12.998  0.0408 -0.1416  0.1307
14655W        W28069   7.134   8.925   1.725 -0.2443  0.1635 -0.0875
14656W        W28070   1.022   5.704  11.901  0.2460 -0.0531  0.0113
14657W        W28071  12.992  16.660  10.061  0.0831  0.1928  0.1426
14658W        W28072   4.691   5.654   3.696 -0.1502 -0.2470 -0.1778
14659W        W28073   6.561  11.053   2.333  0.0428  0.0038 -0.0301
14660W        W28074   9.592   9.766  15.616  0.3668  0.0796  0.1570
14661W        W28075   1.855  13.847  13.727 -0.0442 -0.1906  0.3645
14662W        W28076  16.618  10.089   2.481  0.0129  0.3837 -0.1431
14663W        W28077   8.031   3.437   4.506 -0.1435  0.1800 -0.0630
14664W        W28078   5.586  10.951   0.707  0.1211 -0.3549  0.3835
14665W        W28079   9.667   1.018  13.572  0.1484 -0.0797 -0.2876
14666W        W28080  11.555  16.085  13.887  0.1222  0.1026 -0.0582
14667W        W28081   9.423   8.568   3.852 -0.3391 -0.2144 -0.2501
14668W        W28082  10.472   5.694   0.323  0.7213 -0.1059 -0.1360
14669W        W28083   5.629  13.173  15.407  0.1724  0.1251 -0.0697
14670W        W28084   6.297  12.996  10.647 -0.0087 -0.0707  0.0592
14671W        W28085   0.792   8.023   2.861 -0.2015  0.1756 -0.2569
14672W        W28086  17.115   7.998   4.303  0.0407 -0.1452 -0.5756
14673W        W28087   4.343  16.150  13.567  0.0229  0.1595  0.1884
14674W        W28088  15.492   7.371  12.206  0.2046  0.1973 -0.1856
14675W        W28089   7.368   9.599   3.094 -0.0306 -0.2573  0.0489
14676W        W28090  12.819   7.907  12.988  0.0168  0.1827  0.2135
14677W        W28091   9.886  16.282   3.167  0.1528 -0.0635 -0.4114
14678W        W28092   9.065   4.950  10.893 -0.1364  0.2367  0.1473
14679W        W28093  18.097  14.042  16.292  0.0502 -0.1189  0.2422
14680W        W28094   3.790   5.325   4.273  0.2665 -0.0314 -0.1404
14681W        W28095   1.006   1.559  12.940  0.0710 -0.0535 -0.0557
14682W        W28096  14.105  16.693   4.205  0.2907 -0.0366  0.2905
14683W        W28097  13.844  15.849  14.683  0.1283 -0.2705  0.0922
14684W        W28098   8.587   8.254   6.727 -0.3071  0.1237  0.0121
14685W        W28099   8.732   1.855   9.932 -0.2514 -0.2564  0.1370
14686W        W28100  15.668   6.280   4.224  0.1844 -0.0458  0.1329
14687W        W28101   5.210   4.711  12.240 -0.1141 -0.0504 -0.1486
14688W        W28102   1.075   6.507   4.587 -0.1581 -0.0412 -0.1143
14689W        W28103   6.778   6.613  13.641  0.1187 -0.0812 -0.2137
14690W        W28104  12.756   8.883   2.420  0.1344  0.1185  0.0283
14691W        W28105   6.863   1.362  14.019 -0.1004  0.0461 -0.0091
14692W        W28106   5.386   5.336  12.841 -0.0394  0.0894 -0.0539
14693W        W28107   2.922   0.061  14.803  0.1091  0.0402  0.2224
14694W        W28108   0.530   7.658  12.049  0.2502 -0.0660 -0.1840
14695W        W28109   7.615   1.535   3.646 -0.1218  0.0738  0.0140
14696W        W28110   4.088  13.024   2.208 -0.1607 -0.1054 -0.0665
14697W        W28111   8.395  12.502  13.697  0.1030 -0.1549 -0.0159
14698W        W28112   2.091   6.007  14.252  0.2722  0.0675  0.1166
14699W        W28113   3.565  15.104   2.855  0.1254 -0.0270  0.0148
14700W        W28114   5.295  11.787   3.727  0.0718 -0.2067 -0.0779
14701W        W28115   8.990   1.017  15.927 -0.1591  0.0712  0.0127
14702W        W28116   1.651   9.739   1.921  0.0762 -0.1968 -0.0343
14703W        W28117   8.544   1.142   2.396 -0.2058  0.1218 -0.2476
14704W        W28118   5.075   2.331  12.088  0.1251 -0.0791 -0.1371
14705W        W28119   1.165  16.715  13.337  0.0375 -0.0344  0.2657
14706W        W28120   4.887  15.180  10.718  0.0561 -0.0205  0.0011
14707W        W28121  11.527   2.276   3.515 -0.2838  0.3121 -0.2448
14708W        W28122   7.944   2.931  12.336  0.0438  0.0918  0.0659
14709W        W28123  10.832   3.772  11.737 -0.0316 -0.1361  0.0080
14710W        W28124  10.507   8.607   6.426 -0.1503  0.1795  0.2257
14711W        W28125   0.729  17.949  16.508  0.1515 -0.0883  0.1546
14712W        W28126  11.409  15.494   9.854  0.1025  0.0355  0.2131
14713W        W28127  12.204   2.062  11.714 -0.1322 -0.0010 -0.1698
14714W        W28128  11.312   6.278   5.210 -0.0757  0.1556 -0.2822
14715W        W28129   6.666  17.626   1.082  0.3127 -0.2304 -0.1100
14716W        W28130  16.472   7.247  13.081 -0.1425 -0.2240 -0.0094
14717W        W28131  17.530   0.814  11.806 -0.0770 -0.0367 -0.0125
14718W        W28132  11.603   4.003  14.613  0.1745 -0.0890  0.2118
14719W        W28133  15.871   7.642  12.135  0.1763 -0.1488  0.0793
14720W        W28134  17.875  16.183   4.069  0.0387  0.0562  0.0531
14721W        W28135   5.217  11.332   5.554  0.0670  0.1675  0.0210
14722W        W28136   0.094   8.514  15.824 -0.1000  0.5249  0.2683
14723W        W28137  10.711   1.441  14.815 -0.0416  0.0082 -0.3543
14724W        W28138   0.548  17.195  12.630  0.0018 -0.0835 -0.0711
14725W        W28139   9.254  12.322  12.986 -0.0244 -0.1478 -0.1876
14726W        W28140   5.558  11.655   5.458  0.0611  0.1174  0.0149
14727W        W28141   6.482  14.410   5.385 -0.2631 -0.1495 -0.1374
14728W        W28142  12.844  13.163  14.298 -0.4291  0.1293 -0.0875
14729W        W28143   1.464   7.098  14.953 -0.1711 -0.1682  0.0714
14730W        W28144  16.974  17.280   5.861 -0.0517  0.2878 -0.2507
14731W        W28145   5.519  17.894  11.566 -0.1201  0.2310 -0.2458
14732W        W28146  11.787   4.609  14.654  0.0440  0.0419 -0.1310
14733W        W28147  17.498  13.544  16.331  0.2477 -0.0758 -0.0211
14734W        W28148  10.270   2.004   4.052  0.0333  0.0718 -0.1797
14735W        W28149   8.150   4.114   2.294  0.0686  0.1945 -0.0722
14736W        W28150  12.183  12.360  16.076 -0.1166 -0.3326  0.2288
14737W        W28151  17.698   0.176   1.670 -0.1855 -0.0128  0.0581
14738W        W28152   3.772   0.019   4.634  0.1596  0.0452  0.1792
14739W        W28153  15.599  17.439  16.234 -0.1231 -0.0252  0.0307
14740W        W28154  14.483   4.208  14.805  0.0018  0.1566 -0.6287
14741W        W28155  14.455   9.643   0.571 -0.1074 -0.5799 -0.1481
14742W        W28156  11.477   7.144  15.178  0.2952  0.2156 -0.1452
14743W        W28157  16.674  13.624  13.259  0.1504 -0.0835  0.2175
14744W        W28158   3.886   0.557  16.488  0.0143 -0.0851  0.1741
14745W        W28159  18.139   9.860  15.058  0.0825 -0.2854  0.1893
14746W        W28160  14.176   5.917  15.170  0.2497  0.2102 -0.0464
14747W        W28161   7.166   5.511   0.538  0.1963 -0.1181  0.0340
14748W        W28162   1.983   0.407  15.800 -0.0734 -0.2119  0.1551
14749W        W28163  13.688   2.902   4.607 -0.2407  0.3945  0.0782
14750W        W28164   2.368   2.831   3.960  0.0423  0.0685  0.0264
14751W        W28165  13.865  10.100  12.043  0.0910 -0.1178 -0.4483
14752W        W28166   0.635   5.880  11.082 -0.0542  0.0916 -0.1194
14753W        W28167   2.509  13.144  12.547 -0.2155  0.0272  0.1598
14754W        W28168   7.075  15.009   2.019 -0.2417 -0.0175 -0.1649
14755W        W28169  12.275   5.118  11.845  0.2527  0.0496  0.2175
14756W        W28170   0.758   4.850  12.688  0.2007 -0.0273  0.2429
14757W        W28171   3.226  15.831   1.241 -0.0430  0.1756 -0.1984
14758W        W28172  16.953   4.187  12.623  0.2433 -0.0215 -0.0903
14759W        W28173   4.792  17.064   1.612 -0.0210 -0.2518 -0.4443
14760W        W28174   6.717   3.524  14.803  0.0458  0.0290  0.2465
14761W        W28175   8.993   6.900  15.341  0.1241  0.1015  0.1975
14762W        W28176  10.841   3.137   2.997 -0.3147  0.3014  0.0474
14763W        W28177  11.997   0.510   0.455  0.3006  0.0885 -0.1315
14764W        W28178   5.478  12.280   0.953  0.0061  0.2188  0.0200
14765W        W28179   5.632  18.099   3.933  0.1795 -0.0528  0.1335
14766W        W28180   2.031  10.694   5.362  0.5369 -0.3878 -0.1377
14767W        W28181  16.408   6.525   0.120  0.0695 -0.0848  0.1196
14768W        W28182   3.837  11.730  11.145  0.0886 -0.1222 -0.2113
14769W        W28183  12.790   2.604   6.122  0.1501  0.0279 -0.0726
14770W        W28184   6.767  15.443   5.570 -0.0590  0.0478  0.0995
14771W        W28185   9.033  11.528  14.772 -0.2318  0.1529 -0.3305
14772W        W28186   9.904   9.262  15.486 -0.0263  0.1121 -0.3417
14773W        W28187   6.472   6.495   0.198 -0.1379  0.0066  0.0300
14774W        W28188   0.698   7.822  12.724  0.0476 -0.0352 -0.0011
14775W        W28189  11.292   3.633  14.835 -0.1143  0.3628 -0.2607
14776W        W28190   9.480  17.416  15.723  0.0051 -0.3444 -0.0008
14777W        W28191   6.762  10.992   3.725 -0.1751  0.1004  0.1841
14778W        W28192   0.394  16.316   6.070  0.1983 -0.4537 -0.1987
14779W        W28193   6.556   1.545   5.836 -0.0098 -0.0310  0.2987
14780W        W28194  12.883  10.907   1.747 -0.0135  0.1472  0.0130
14781W        W28195  17.334  16.681   4.777  0.1710  0.1420 -0.1543
14782W        W28196   6.451   2.893  14.423  0.0249 -0.1000  0.0738
14783W        W28197  17.994   2.591  16.417 -0.1718  0.1518 -0.1424
14784W        W28198   8.542   1.085   4.960 -0.0346 -0.0587  0.0458
14785W        W28199   3.463   6.069  14.935 -0.3611  0.0882  0.1851
14786W        W28200   2.323   8.302  15.577  0.0096 -0.2303 -0.1758
14787W        W28201  17.254   6.724   0.023  0.2056 -0.1102  0.1139
14788W        W28202   6.353  14.748  16.262  0.1433  0.3467  0.0479
14789W        W28203   9.717  11.624  12.546 -0.0550 -0.0313  0.2176
14790W        W28204   9.106  13.134  14.970 -0.0154 -0.3533  0.0903
14791W        W28205   7.812  10.010  13.884 -0.0314  0.0132 -0.1589
14792W        W28206  13.079   5.247  11.490  0.0639  0.2682  0.1881
14793W        W28207   7.808  13.901   5.564  0.2164 -0.2391  0.0063
14794W        W28208   2.148  12.794  14.546  0.3906 -0.4210  0.0084
14795W        W28209  17.020   4.651  14.915  0.0494 -0.0692 -0.0058
14796W        W28210   1.174  12.264   4.583 -0.2338  0.2779 -0.1400
14797W        W28211   3.791  12.304   0.644  0.0042  0.0121  0.1797
14798W        W28212   1.269   4.751  12.482  0.2084  0.0975 -0.2346
14799W        W28213  14.676  12.247   1.837 -0.0027  0.1722  0.2073
14800W        W28214   1.115   8.175   1.020  0.2556 -0.0948 -0.0951
14801W        W28215  16.803  17.154   2.968 -0.2754 -0.2977 -0.0633
14802W        W28216   3.562  15.971  10.402  0.0758 -0.0601  0.2671
14803W        W28217   8.142  10.807   5.346  0.1758 -0.2973  0.2348
14804W        W28218   3.529  11.723  11.552 -0.1625 -0.1999 -0.2864
14805W        W28219  13.340  14.340   2.378  0.1409 -0.2376  0.1750
14806W        W28220  12.119  10.257   0.185 -0.2093  0.0030  0.2852
14807W        W28221  16.939  17.706  10.659  0.3888 -0.2622  0.2536
14808W        W28222   5.137   0.330  15.187 -0.0827 -0.6087 -0.2554
14809W        W28223  15.881  13.429  16.077 -0.0821  0.0048 -0.4961
14810W        W28224   3.853  13.945   0.265 -0.2449  0.1820 -0.0509
14811W        W28225   2.569  12.585  14.203 -0.0094  0.2150  0.1080
14812W        W28226   5.320  12.786  13.639  0.1348 -0.3111 -0.2976
14813W        W28227  11.656  10.629  13.123 -0.0115 -0.0087  0.1340
14814W        W28228   0.525  14.450   0.069  0.4923 -0.1891  0.3112
14815W        W28229   1.355  15.402   4.024 -0.2581 -0.1127 -0.0348
14816W        W28230  10.937   0.827  12.780  0.2914  0.1042 -0.1965
14817W        W28231  12.766   7.807   5.095 -0.0165  0.0027  0.3163
14818W        W28232   7.694  12.932   2.771 -0.1163  0.1476  0.1116
14819W        W28233  10.650  17.012  10.538 -0.2041  0.1916 -0.0404
14820W        W28234  13.688   6.591   1.496 -0.0405 -0.2205 -0.0347
14821W        W28235   3.700   3.090   1.808 -0.3335 -0.0399  0.1096
14822W        W28236   5.561  14.397  16.118  0.1104 -0.0041 -0.0419
14823W        W28237   0.031   1.570   5.629  0.0760  0.0964 -0.2358
14824W        W28238  13.440  16.081  13.841  0.1937 -0.0566  0.0008
14825W        W28239  12.555   8.654   3.256  0.0314  0.2532 -0.1926
14826W        W28240   2.335   4.754   4.655  0.1644  0.1209 -0.0395
14827W        W28241   4.618  16.119  12.611  0.0442 -0.1926 -0.1093
14828W        W28242  11.637   6.675   1.256  0.1124  0.2005 -0.0284
14829W        W28243   7.678   5.417   0.606 -0.2078  0.3507 -0.0937
14830W        W28244   4.305   3.330   4.094  0.2206 -0.1073  0.0440
14831W        W28245  15.201   4.250   9.996  0.1164  0.3489 -0.1835
14832W        W28246  11.522  13.804   0.896 -0.1765 -0.1472 -0.0541
14833W        W28247  17.965   9.995   2.644  0.0387  0.0752 -0.3888
14834W        W28248   5.959  11.213   3.401 -0.2943 -0.0478  0.0319
14835W        W28249   5.643   3.362   0.340  0.0307 -0.0024  0.1359
14836W        W28250   8.947  11.449   1.248  0.0322 -0.1407  0.1085
14837W        W28251   7.730   0.211  16.471 -0.1814 -0.0647 -0.0528
14838W        W28252   1.250  10.850   2.521  0.0737 -0.0936  0.3649
14839W        W28253  13.403  10.259   1.478 -0.1261 -0.1478 -0.0704
14840W        W28254   9.402   8.721   0.839 -0.0730  0.2904 -0.2307
14841W        W28255  15.661   8.519   2.855 -0.2599  0.0296  0.1525
14842W        W28256  13.568  13.382  16.047 -0.4278 -0.2215 -0.0194
14843W        W28257  16.851  16.200  14.122  0.2084  0.0312 -0.3894
14844W        W28258  12.862  17.263  13.252  0.0069 -0.3746  0.0623
14845W        W28259  10.599   1.539  11.087 -0.0615 -0.2696  0.0119
14846W        W28260  18.076  14.157   5.377 -0.1216  0.0213 -0.2765
14847W        W28261  13.352   6.952  12.264  0.3644 -0.0492 -0.1884
14848W        W28262  13.954  14.255   0.275  0.0971 -0.1385 -0.1840
14849W        W28263   3.903   6.351   0.682 -0.1624 -0.1483  0.0088
14850W        W28264   3.229   6.220  13.467  0.0187  0.1656 -0.5783
14851W        W28265  12.928   3.010  15.291 -0.0468 -0.2468 -0.1074
14852W        W28266   0.403   4.955  16.514 -0.0644  0.2168  0.0639
14853W        W28267   1.664   7.262   0.174 -0.0237  0.0113  0.1269
14854W        W28268   1.723  12.123  11.676  0.1390 -0.3980  0.1068
14855W        W28269  15.990   7.792   1.547 -0.4629  0.0516 -0.2308
14856W        W28270   1.691  11.036   5.553 -0.1915 -0.2601  0.0758
14857W        W28271   6.660   5.699   0.348  0.1565  0.1099 -0.0934
14858W        W28272  15.189   0.628  12.668 -0.0291  0.0123  0.2407
14859W        W28273  14.930  16.926  10.333  0.0215 -0.0284  0.0433
14860W        W28274   5.887   6.333  11.849  0.1475  0.0993 -0.3245
14861W        W28275   0.027  14.073  11.747 -0.0990  0.0776  0.1186
14862W        W28276  15.444  15.247   1.717 -0.5497  0.1108  0.0001
14863W        W28277   0.333  11.698   1.470  0.3396  0.0205  0.0921
14864W        W28278   8.435  14.622   3.098 -0.1025 -0.1108 -0.3358
14865W        W28279   5.495   1.907  15.197 -0.0606 -0.1114  0.1776
14866W        W28280   4.665   7.238   4.163 -0.0823 -0.1811 -0.1057
14867W        W28281  15.942  13.410  12.768 -0.1805 -0.4078  0.2003
14868W        W28282   1.396   9.921  13.629 -0.0384  0.0447 -0.1250
14869W        W28283   3.732   6.042   2.166 -0.0128  0.3019 -0.0991
14870W        W28284   9.110   8.371  14.379 -0.0313 -0.2584 -0.0776
14871W        W28285   3.509   8.698   4.765 -0.1043 -0.2874 -0.2394
14872W        W28286   1.847  15.243   1.584  0.4766  0.1891  0.2586
14873W        W28287  15.263  12.369   1.610 -0.2582 -0.1203 -0.1549
14874W        W28288  16.235  16.754  14.637  0.2084  0.1713 -0.3094
14875W        W28289  12.651   6.732  11.334 -0.2610 -0.4939  0.2159
14876W        W28290  16.415   8.230  15.252  0.0830  0.0710 -0.2490
14877W        W28291  16.573   5.079  13.494 -0.1895  0.0381 -0.1692
14878W        W28292  10.659   1.579  13.977  0.2079 -0.2773  0.1000
14879W        W28293   1.256   0.673   1.367  0.0416  0.0952  0.1175
14880W        W28294   1.469   4.652   1.454  0.3485 -0.0654  0.1953
14881W        W28295   8.658  10.446   6.438 -0.2447  0.1523  0.3084
14882W        W28296  15.756  16.964   5.270  0.0178 -0.1953 -0.2104
14883W        W28297  15.823   4.599   0.000  0.0900  0.0447 -0.0000
14884W        W28298   0.288   9.138   5.078 -0.1265  0.3432  0.2070
14885W        W28299  13.187  10.919   3.267 -0.0269  0.3577 -0.0421
14886W        W28300   4.700   2.574  11.832  0.4694 -0.1333 -0.0552
14887W        W28301   2.403  17.476  12.344 -0.1273  0.1135 -0.1609
14888W        W28302   6.117  11.581  16.450  0.2462 -0.1626 -0.1962
14889W        W28303   8.252   6.772   0.310 -0.0705  0.0733 -0.0179
14890W        W28304   2.053   1.211   4.176 -0.0880  0.0095  0.1717
14891W        W28305  14.201   6.694   5.804  0.1005  0.0812  0.0957
14892W        W28306   2.270   6.599  15.548  0.0965  0.1149  0.2089
14893W        W28307  11.599   1.788  13.094 -0.1115 -0.1276  0.1270
14894W        W28308  17.443  12.568   3.257  0.0113  0.3257  0.2301
14895W        W28309   2.474   0.663   0.634 -0.1679  0.0496 -0.1700
14896W        W28310   3.932   3.351  12.576  0.0941  0.4211 -0.2748
14897W        W28311  14.490  16.274  11.812  0.0739 -0.2474  0.1006
14898W        W28312   9.637   9.090  15.071  0.0650 -0.3010 -0.0741
14899W        W28313  15.280   0.103  12.864 -0.3304  0.3512 -0.0323
14900W        W28314  12.856  13.825   0.881 -0.1623  0.1535 -0.1045
14901W        W28315   5.377  15.571  11.169  0.4968 -0.0742 -0.2693
14902W        W28316  14.355   7.274  13.033  0.0185  0.1711 -0.1948
14903W        W28317   4.333   2.039  10.765 -0.1116  0.1106 -0.0017
14904W        W28318   4.390   6.361  14.117 -0.0520  0.1037  0.2567
14905W        W28319  17.322  13.882  14.533 -0.1650  0.0484  0.0955
14906W        W28320   5.198   7.352   2.293 -0.0616 -0.0343 -0.2178
14907W        W28321   9.169  17.077   1.987 -0.3513 -0.1938 -0.0340
14908W        W28322  15.225   1.155  12.459 -0.0836 -0.0260 -0.1380
14909W        W28323   2.046   9.038  11.765 -0.0742  0.3475  0.1627
14910W        W28324  17.023  10.015   0.727 -0.0117 -0.1709  0.1572
14911W        W28325  16.984  12.167  14.231  0.2617 -0.0186  0.2240
14912W        W28326   4.317  13.377   4.690  0.0210  0.1043 -0.0899
14913W        W28327  11.179   9.620  12.331  0.1807  0.1874  0.3040
14914W        W28328   3.306   4.912  14.380 -0.0698  0.3912 -0.0262
14915W        W28329  15.674   1.983  12.561  0.4298  0.0010 -0.0832
14916W        W28330  13.814  15.447  16.390 -0.2501 -0.0806 -0.0093
14917W        W28331  10.448   3.530  11.345 -0.1159  0.1550  0.1657
14918W        W28332  13.557   9.304   0.877  0.2226  0.0710 -0.4077
14919W        W28333   3.961   1.630   5.622  0.0623  0.0500 -0.0015
14920W        W28334  12.338   3.399  13.975  0.3368 -0.0637 -0.0814
14921W        W28335   2.619   8.129   3.961  0.2183 -0.0229 -0.2802
14922W        W28336  10.747   5.026   0.358 -0.1826  0.0131 -0.1197
14923W        W28337  15.220   8.206   5.843 -0.2532  0.0718 -0.0607
14924W        W28338  17.520   9.689  15.313 -0.0217 -0.0048 -0.3430
14925W        W28339  14.603  12.261   1.066 -0.3887  0.0388  0.2938
14926W        W28340   7.698  18.067  12.624 -0.0237 -0.1598  0.0840
14927W        W28341  12.694  12.557   1.764  0.1180  0.0597 -0.0482
14928W        W28342   1.055  17.013  12.927  0.0360 -0.3153  0.2156
14929W        W28343  13.356  10.674  11.035  0.0215 -0.0683  0.2160
14930W        W28344  10.702   9.106  15.737 -0.0147 -0.0039 -0.1116
14931W        W28345   4.108  14.678  12.814 -0.2033 -0.1204  0.0536
14932W        W28346  10.978   1.795   4.784  0.2904 -0.3717 -0.1814
14933W        W28347   0.970  16.874   9.941  0.2836 -0.1289  0.2114
14934W        W28348   2.447   0.160  11.391  0.3881  0.0880  0.1032
14935W        W28349   2.601  16.745   2.270 -0.1619  0.1793  0.3847
14936W        W28350   6.598  12.009   0.641  0.1776  0.1258 -0.3538
14937W        W28351  13.514  17.138  10.737 -0.0385  0.1680  0.2005
14938W        W28352   7.872   6.983   5.424 -0.1044  0.1375  0.0513
14939W        W28353  16.801  13.763   5.473 -0.1705  0.0297  0.0126
14940W        W28354   5.712   3.501   1.881  0.3889 -0.1643 -0.0694
14941W        W28355   7.734  17.300   4.728 -0.1864 -0.2032  0.0428
14942W        W28356  12.221   4.097   3.087 -0.0993  0.0199 -0.2169
14943W        W28357   3.430   2.164   4.552 -0.1679  0.0302 -0.0527
14944W        W28358  10.572  17.516  13.112  0.2299  0.2826  0.0970
14945W        W28359  15.497  16.056  11.697  0.2453  0.0503  0.0329
14946W        W28360   9.279   2.136  14.779  0.0092 -0.0976 -0.1777
14947W        W28361   9.230  13.840  10.228  0.2418  0.0573  0.1300
14948W        W28362   9.737   1.568  14.134 -0.1049 -0.0662  0.0437
14949W        W28363   6.681   5.403   4.425 -0.1791  0.0882  0.2141
14950W        W28364   8.691   5.376  12.186  0.0253  0.1818 -0.1800
14951W        W28365   1.663   3.341   5.530 -0.4810  0.0008 -0.2137
14952W        W28366   6.735  14.751   3.841 -0.2203  0.0923 -0.0802
14953W        W28367   0.371   0.991  14.056 -0.1133 -0.1625 -0.2915
14954W        W28368  15.054   3.401   1.783  0.1821  0.2514  0.2079
14955W        W28369  17.540  12.698  15.975  0.0549  0.0454 -0.2183
14956W        W28370  10.411  16.839  11.654  0.3122 -0.0675  0.1492
14957W        W28371  17.549  16.572   1.554 -0.0308  0.0477 -0.0828
14958W        W28372  17.798   0.408  14.335 -0.2756 -0.0394  0.0488
14959W        W28373   9.797   6.369  11.864  0.1973  0.1806  0.0741
14960W        W28374   9.153  17.820   1.838  0.1623 -0.3529 -0.0546
14961W        W28375  10.230  14.075  15.664  0.0296 -0.2068 -0.1055
14962W        W28376  14.484   6.953   0.413 -0.0882 -0.2428  0.1240
14963W        W28377   5.533   9.960   3.063  0.2158  0.3993  0.4332
14964W        W28378   9.218   6.864  11.578 -0.0608 -0.1891 -0.0670
14965W        W28379  13.226   0.922  13.834  0.3442  0.0184 -0.0085
14966W        W28380   9.292  17.397   1.517  0.2832 -0.1380 -0.0746
14967W        W28381   5.885   1.220   3.895  0.0624  0.2606 -0.0252
14968W        W28382  16.807  10.133  13.549 -0.0134  0.0043  0.2251
14969W        W28383   9.754   9.714   1.482  0.2399 -0.0748 -0.1415
14970W        W28384   8.176  17.109  16.372 -0.0699  0.2858 -0.1280
14971W        W28385   0.278   6.822  11.757 -0.2286  0.0092  0.1477
14972W        W28386   2.423   6.705  11.888  0.0789  0.0470  0.1573
14973W        W28387  13.736   1.968   1.900  0.0294  0.1006 -0.1129
14974W        W28388   6.264  16.559  10.851  0.1554  0.0819  0.3806
14975W        W28389   4.733   8.742   3.440 -0.1108 -0.2815 -0.1939
14976W        W28390  12.949   5.731  12.212  0.2989 -0.0086  0.2273
14977W        W28391  10.393  13.922  11.921  0.0594 -0.3234  0.1453
14978W        W28392  10.829  12.857  14.465 -0.0277  0.0490 -0.2341
14979W        W28393   3.647   0.534   5.220 -0.0437 -0.1226 -0.1101
14980W        W28394  16.248  10.135  12.848 -0.5113 -0.0015 -0.1649
14981W        W28395   7.256   1.150   0.750  0.1809  0.0552 -0.1644
14982W        W28396   6.169   3.560  12.388  0.1489  0.1358 -0.0311
14983W        W28397   8.968  15.753  14.145 -0.1749  0.1026 -0.2566
14984W        W28398   2.103   3.716  13.809  0.1988  0.1014  0.0525
14985W        W28399   0.530   6.485   2.824  0.1726  0.0692 -0.0270
14986W        W28400  17.313  14.100   5.491 -0.0303  0.0966  0.0300
14987W        W28401   5.601  11.342   3.756  0.1197 -0.1140 -0.0099
14988W        W28402  13.060   3.058  12.733 -0.1005  0.1992  0.0641
14989W        W28403  10.911   7.611   2.592  0.1016  0.0410 -0.4381
14990W        W28404   4.798  14.133   3.770 -0.0460 -0.2546 -0.2823
14991W        W28405  13.925   9.183  14.045  0.0013 -0.0803  0.0836
14992W        W28406  16.668  12.872   0.338 -0.0735  0.2383  0.1055
14993W        W28407  10.467   5.947   2.121  0.0787 -0.2188 -0.1070
14994W        W28408   1.248   4.526   2.817 -0.3585 -0.2273 -0.5455
14995W        W28409   0.364   0.263  11.683  0.0384 -0.1481 -0.2899
14996W        W28410  16.011   6.786   5.524  0.0545 -0.1549 -0.1157
14997W        W28411   9.567   6.843  16.038  0.2975 -0.1956  0.0283
14998W        W28412   9.374   3.579  13.305 -0.1650  0.0094 -0.0344
14999W        W28413  10.507  17.110  15.857 -0.2669  0.2243  0.0442
15000W        W28414   4.568  13.115   2.490 -0.1239 -0.1401 -0.2043
15001W        W28415   7.338   9.204   2.723  0.0893 -0.0156  0.4351
15002W        W28416  13.335  11.520   0.208 -0.1217 -0.1736  0.1861
15003W        W28417   6.701  15.591   4.217 -0.2104 -0.1264 -0.1574
15004W        W28418   0.821   7.227  16.101  0.1645 -0.1006 -0.0363
15005W        W28419  12.183   4.396  10.647 -0.1979 -0.0317  0.0538
15006W        W28420  16.867   4.702  12.641 -0.2497 -0.3484 -0.2355
15007W        W28421   1.460   4.564  11.158 -0.2338  0.1686  0.0042
15008W        W28422   4.618  12.150  10.639 -0.0461 -0.2066  0.0746
15009W        W28423   9.049  15.102   5.043 -0.1857 -0.0664 -0.2400
15010W        W28424  12.772  13.550   2.955 -0.1798  0.2770 -0.0294
15011W        W28425  17.027  16.230   5.570  0.0337 -0.0026 -0.0130
15012W        W28426  10.427   2.744   2.059 -0.0306  0.3206 -0.3719
15013W        W28427  12.323  11.842   0.972 -0.0600 -0.2170  0.0051
15014W        W28428  12.682  13.184  13.769 -0.0833  0.0407 -0.0570
15015W        W28429   0.797  11.446   3.166 -0.0365  0.0658 -0.0896
15016W        W28430  15.836   1.638  10.863  0.0334  0.0264 -0.1665
15017W        W28431   1.303   7.071   2.004  0.0008 -0.3129 -0.0527
15018W        W28432   5.493   8.524  11.362  0.1688  0.1556  0.1025
15019W        W28433  17.329  17.680   0.959 -0.0274 -0.0967 -0.2316
15020W        W28434   3.049   7.732  12.599  0.0015 -0.2640 -0.0499
15021W        W28435  17.937  12.723   4.682  0.0655  0.0591  0.1811
15022W        W28436   9.613  17.527  13.313 -0.0697  0.2736 -0.2354
15023W        W28437   8.351  12.195   1.792  0.0769  0.1055  0.2449
15024W        W28438   0.129   2.263  11.426  0.1158  0.1243  0.1448
15025W        W28439  16.788  12.113   1.860  0.1262  0.2574 -0.0366
15026W        W28440   5.482  16.932   4.402 -0.0791 -0.1653  0.0612
15027W        W28441   6.008  13.870  11.707 -0.1257  0.0815 -0.1253
15028W        W28442  14.789   7.620  10.526 -0.0074 -0.0824 -0.1276
15029W        W28443  16.320  13.792  12.860 -0.2854  0.0369 -0.1507
15030W        W28444  11.316   7.560   4.682 -0.1281  0.2443  0.0490
15031W        W28445  11.664   7.269   3.037  0.0686 -0.2895 -0.2064
15032W        W28446  14.031  14.382   3.186 -0.2229  0.1061 -0.2125
15033W        W28447  12.561   4.186  10.452  0.0579 -0.1562  0.1458
15034W        W28448   8.233   2.710   0.660  0.4055 -0.1172 -0.0554
15035W        W28449  14.138   7.918   2.053 -0.0959  0.2605  0.2710
15036W        W28450   6.720   1.406   1.438 -0.1023 -0.0324 -0.0788
15037W        W28451   4.564  11.246  11.505  0.1629  0.3250  0.3386
15038W        W28452  12.015   6.556   2.957 -0.1814  0.0432 -0.0362
15039W        W28453   0.947   0.309   0.189  0.1010  0.0931  0.0971
15040W        W28454   1.201   7.828  13.931 -0.1996  0.0531  0.0216
15041W        W28455   6.252   3.561  16.330  0.1408 -0.0997  0.2505
15042W        W28456   3.138  13.681   1.950 -0.1042 -0.1278 -0.0215
15043W        W28457   7.242  14.798   3.803 -0.1956  0.1133  0.0605
15044W        W28458   3.753  11.249  12.627  0.2322  0.0962  0.1321
15045W        W28459   0.088  14.599  16.346 -0.2637  0.0649  0.0672
15046W        W28460  15.506   6.625   4.644 -0.3369 -0.0338  0.3122
15047W        W28461   1.971  16.083   2.821  0.3536  0.1121  0.4412
15048W        W28462   9.865  17.853   5.012  0.3473 -0.2810  0.1155
15049W        W28463   5.469   0.077  14.277 -0.2098 -0.1590  0.1902
15050W        W28464  18.168  16.385   0.033 -0.0478  0.2289 -0.1281
15051W        W28465  10.965   7.541   0.591  0.2479  0.2130  0.2224
15052W        W28466  17.495  16.312  11.623  0.0059 -0.1046 -0.0560
15053W        W28467  14.991   2.817  15.133  0.1106 -0.1635 -0.1502
15054W        W28468  11.622   4.192   1.161 -0.0427 -0.0349 -0.0639
15055W        W28469   5.251   3.885  10.678 -0.1880  0.0465  0.0822
15056W        W28470  11.991   4.405  12.165 -0.1520  0.0666 -0.0870
15057W        W28471  12.673   7.913   2.175  0.2881  0.1324 -0.4421
15058W        W28472   5.465   7.272   3.814 -0.0864  0.2154 -0.1538
15059W        W28473   7.546  11.884   4.030  0.5959 -0.1227 -0.0525
15060W        W28474  17.802   2.583  13.507  0.1422 -0.0788 -0.2624
15061W        W28475  10.334   8.411  11.961  0.5609 -0.1035 -0.0459
15062W        W28476   8.221  12.285   2.716 -0.0651  0.1952 -0.0492
15063W        W28477   4.411  17.581   0.122  0.0269  0.2025 -0.0361
15064W        W28478   6.488  13.260  11.943  0.0435  0.1510  0.1450
15065W        W28479   9.379  12.630  16.038 -0.0200  0.0728 -0.0500
15066W        W28480  10.543   3.355   4.592 -0.0512  0.1324 -0.1103
15067W        W28481  17.128  12.802  12.504 -0.1176 -0.1593  0.2945
15068W        W28482  17.161  18.165   2.794 -0.1837  0.3546 -0.1339
15069W        W28483   5.766   1.627  14.828  0.1451 -0.2915 -0.1090
15070W        W28484   7.921  16.261   1.512  0.0279 -0.1011  0.3364
15071W        W28485   3.960   5.889   2.685  0.0959  0.0081  0.0712
15072W        W28486  18.193   2.336   1.703 -0.1705 -0.3441  0.3844
15073W        W28487  12.702   0.192   2.153  0.2936  0.3245  0.1917
15074W        W28488  11.382   1.430   2.171 -0.2762  0.2336 -0.0588
15075W        W28489   2.103  12.129   5.062  0.0823  0.0155  0.3376
15076W        W28490   7.695  12.070  14.360  0.1886 -0.2902  0.1662
15077W        W28491  15.008   7.941  11.997 -0.0576 -0.2454 -0.1400
15078W        W28492  10.934  15.322   5.655  0.0236 -0.1102 -0.2150
15079W        W28493  12.934  18.078   2.416  0.0284  0.0642 -0.0984
15080W        W28494   0.419  14.278   1.397 -0.1599  0.0355  0.1236
15081W        W28495   4.311   2.692   2.934 -0.0344  0.0776 -0.3280
15082W        W28496   1.462   3.279  12.354  0.4197 -0.0854  0.2343
15083W        W28497  16.563   6.294   4.462 -0.0786 -0.1203  0.0207
15084W        W28498   4.529   8.450  14.358 -0.1491  0.0974  0.1872
15085W        W28499   4.681   9.000   5.217 -0.2029 -0.2052  0.3921
15086W        W28500  11.764   1.430   3.799 -0.2771 -0.2950  0.1224
15087W        W28501  17.979   5.234   5.036 -0.0512  0.1212 -0.0973
15088W        W28502  15.409   3.060  13.500 -0.0412  0.1836  0.0826
15089W        W28503  13.419  12.788   0.709 -0.3678 -0.1385  0.1227
15090W        W28504  12.639  11.957   6.441 -0.1800  0.0404 -0.1325
15091W        W28505   5.282  16.578  16.485  0.1313 -0.2511 -0.4079
15092W        W28506   2.698  13.471   0.612 -0.0619  0.0663  0.2411
15093W        W28507   1.214  10.051  15.757  0.0047 -0.0577  0.1558
15094W        W28508  13.926   5.842   5.122 -0.0614 -0.1805 -0.0146
15095W        W28509  15.838   6.583  10.591  0.2005  0.1527 -0.3234
15096W        W28510   6.447   2.225   0.987 -0.2734 -0.0948 -0.0666
15097W        W28511  13.444  16.445   1.250 -0.1034 -0.1428  0.2749
15098W        W28512  14.685  11.057  12.629  0.1342  0.0364 -0.2116
15099W        W28513  14.990  10.960   4.986  0.2752  0.2336  0.2544
15100W        W28514   9.194   0.549  10.232  0.1014 -0.1318  0.2749
15101W        W28515   7.308  13.471  11.271 -0.0634 -0.0785  0.1527
15102W        W28516   7.524   0.236  15.540  0.1403 -0.1970 -0.0615
15103W        W28517  13.003   2.152  15.442  0.5033 -0.2554 -0.0245
15104W        W28518  17.634  17.675  16.219 -0.2492 -0.1252 -0.0352
15105W        W28519  14.382  16.403   5.239  0.0498  0.1489 -0.1078
15106W        W28520  14.299   1.899   1.863  0.2965 -0.0783 -0.2572
15107W        W28521   2.421  11.027   4.709 -0.1846  0.0434 -0.0382
15108W        W28522   8.709   4.412  10.349 -0.5566 -0.3742  0.2420
15109W        W28523   9.723  17.140   1.887 -0.0899  0.1256 -0.0371
15110W        W28524   0.250  16.790  10.313  0.0797  0.0357 -0.2981
15111W        W28525   4.144   5.979  12.744 -0.0973 -0.6755  0.0584
15112W        W28526   2.219   9.162   0.041 -0.1351  0.2244  0.0121
15113W        W28527   5.878  16.285   3.904  0.3679 -0.0533  0.0292
15114W        W28528   4.609  16.168   1.630  0.0087  0.0471 -0.2424
15115W        W28529  15.947   6.332  14.363 -0.2319 -0.4693 -0.2982
15116W        W28530   4.536   3.019   1.500  0.2024  0.1572 -0.2250
15117W        W28531   8.656  13.315   0.937 -0.1734  0.1914 -0.1161
15118W        W28532  15.293   3.216  11.104 -0.0949 -0.1352  0.1040
15119W        W28533   3.137   6.803   1.126  0.0599 -0.0116  0.1139
15120W        W28534  18.143   2.010   5.168 -0.1268  0.0661 -0.0668
15121W        W28535   1.545   5.189   3.307  0.1438 -0.2812 -0.1320
15122W        W28536   2.351   8.238   4.416 -0.5767 -0.0073  0.0751
15123W        W28537   7.545  16.327  12.613 -0.1904 -0.0998  0.2812
15124W        W28538  17.725   0.905  14.336  0.3336 -0.3776  0.2528
15125W        W28539   0.513   8.644  13.779  0.1778 -0.1457 -0.1478
15126W        W28540   6.810  16.375  14.453  0.0544 -0.0873 -0.0430
15127W        W28541  17.210  13.904  12.536 -0.0844 -0.2448  0.2035
15128W        W28542  14.946  11.112   1.031 -0.1763 -0.1989 -0.0998
15129W        W28543  10.097  12.599   2.905  0.1909  0.2425 -0.0930
15130W        W28544   0.392  14.317   2.252 -0.1342  0.1856  0.0484
15131W        W28545  16.145  15.531  11.567 -0.1929  0.2298  0.3681
15132W        W28546  17.894   7.517   2.803 -0.0914 -0.0706 -0.0989
15133W        W28547  12.589   5.401   0.996  0.1336 -0.0714  0.0603
15134W        W28548   4.059   5.507   1.882 -0.1730 -0.0143  0.2415
15135W        W28549  10.571   4.735   4.582 -0.3725 -0.1369 -0.0370
15136W        W28550   3.788  15.786   2.097  0.1128 -0.0728  0.0308
15137W        W28551   7.175   3.562   0.564  0.0541  0.1530 -0.1293
15138W        W28552   6.517  15.588  12.835 -0.0256  0.0694  0.1943
15139W        W28553  15.711   6.777   3.432  0.2629 -0.0698  0.3878
15140W        W28554   5.001   8.878  13.341  0.1174  0.4301  0.0074
15141W        W28555   8.071   8.394  15.967 -0.0088  0.0475 -0.1645
15142W        W28556   7.636   6.172  14.536  0.0384 -0.2056 -0.0711
15143W        W28557   6.971   9.874   2.902  0.0004  0.2553 -0.0418
15144W        W28558   3.882  16.211   0.258  0.3841  0.0154 -0.1302
15145W        W28559   0.368   3.763  11.842 -0.3232 -0.1922  0.2786
15146W        W28560   9.021  10.083   0.577 -0.1682 -0.3328  0.0945
15147W        W28561  10.807  11.795  15.822  0.2914  0.0089  0.1630
15148W        W28562   1.734   8.983   2.674  0.2081 -0.0930  0.0179
15149W        W28563   0.071  15.378  13.282 -0.0348  0.1209 -0.2290
15150W        W28564   0.300   2.733   2.348 -0.2664 -0.1298  0.0514
15151W        W28565  14.895  10.008  13.673  0.2061 -0.2149  0.2226
15152W        W28566  12.713  15.751   4.547 -0.0398 -0.0480  0.0293
15153W        W28567   7.933   9.968  11.193 -0.0624  0.1178  0.0449
15154W        W28568   2.758  13.377   5.943 -0.0902  0.2941 -0.3226
15155W        W28569   1.253   5.379  11.386 -0.0067 -0.1295  0.1751
15156W        W28570   7.096   3.959   5.302 -0.0259 -0.4374  0.0208
15157W        W28571   4.762   3.135  16.071 -0.1170  0.1673 -0.1488
15158W        W28572  15.709  11.134   3.266  0.1465 -0.2772 -0.1221
15159W        W28573  13.971   1.503  11.954 -0.1106 -0.0904  0.0972
15160W        W28574   8.594  13.832  10.967 -0.0308  0.1316  0.1741
15161W        W28575   7.697   8.023   3.930 -0.2572  0.0600 -0.1897
15162W        W28576  17.988   3.779  14.474 -0.0786 -0.1209 -0.2155
15163W        W28577  17.013  11.869  13.776  0.1732  0.1872  0.0180
15164W        W28578   7.805   6.994  16.358  0.1618  0.1701 -0.1876
15165W        W28579   2.868  17.813  10.663 -0.0885 -0.3089  0.1209
15166W        W28580   7.407  13.577  12.685 -0.0394 -0.0620 -0.1246
15167W        W28581  13.591  10.056  13.155  0.1824 -0.0397 -0.0055
15168W        W28582  15.863  16.336  14.900  0.0087  0.1529 -0.0556
15169W        W28583   8.824   1.810   1.613 -0.2121 -0.1486  0.1647
15170W        W28584   5.210  11.109  12.489 -0.0581  0.0685 -0.0523
15171W        W28585   0.295  16.319   3.834  0.1098 -0.1197 -0.0558
15172W        W28586   6.083   5.644   1.949  0.2824  0.0719 -0.3418
15173W        W28587   5.515  10.567  13.803  0.0596 -0.1604 -0.1586
15174W        W28588  11.716   0.221   1.613  0.1430  0.0848  0.1579
15175W        W28589   7.485   9.732   0.132  0.0329 -0.0166 -0.1722
15176W        W28590   5.641   2.447   0.302  0.0009 -0.0014 -0.0141
15177W        W28591   2.785   2.032  13.703 -0.2872 -0.0530 -0.0454
15178W        W28592  13.766   5.300  13.786 -0.1330 -0.1334 -0.0487
15179W        W28593   7.739   5.822   1.401 -0.2288 -0.1067 -0.2215
15180W        W28594  15.768   7.101   3.036 -0.2201  0.1894  0.0086
15181W        W28595  11.975   8.674   1.297  0.0914  0.1745 -0.0093
15182W        W28596   6.654   8.442   2.956  0.0782  0.0027  0.4137
15183W        W28597   8.696  14.736   0.298  0.1962 -0.1220  0.0580
15184W        W28598   1.325   6.787   0.868 -0.0529 -0.0814 -0.1266
15185W        W28599  13.377  16.139   0.220 -0.0676 -0.1463 -0.0603
15186W        W28600  13.317  17.089   4.157  0.3590 -0.0896 -0.1636
15187W        W28601   5.025   0.900   2.432  0.0323  0.0037 -0.0195
15188W        W28602   0.651   6.063   4.793  0.1562  0.1657 -0.0918
15189W        W28603  15.841  14.898  12.220 -0.0933 -0.0989 -0.0233
15190W        W28604   2.728   2.166   3.505  0.0667 -0.0289  0.3456
15191W        W28605  12.577  18.122  12.690  0.0196  0.0026  0.1112
15192W        W28606   3.703  10.351  10.773 -0.0311  0.1638  0.2978
15193W        W28607  16.911   0.725  15.176 -0.1932 -0.3438 -0.0928
15194W        W28608  12.417  10.663   2.627 -0.3362 -0.4458  0.0355
15195W        W28609  11.688   2.216  11.604  0.0852  0.0672  0.1716
15196W        W28610   1.932   2.118  10.794 -0.1558 -0.1108  0.1944
15197W        W28611  12.389  16.287   0.926 -0.1088 -0.3048  0.0711
15198W        W28612  17.144  14.814   2.972  0.2183  0.1846  0.0491
15199W        W28613  13.660  12.607  12.377  0.1741 -0.1903  0.0920
15200W        W28614   1.743  13.089  11.336 -0.2582  0.0177  0.3749
15201W        W28615   4.737   0.770  13.174  0.1138 -0.1344 -0.0953
15202W        W28616   8.533  16.288  10.078 -0.0660 -0.0940 -0.1274
15203W        W28617   0.833  13.777  12.413  0.1053 -0.2337  0.0787
15204W        W28618   0.529   0.787  13.134 -0.0062 -0.0170 -0.1138
15205W        W28619  13.503   9.180   2.796  0.0830 -0.0838 -0.0994
15206W        W28620   3.604   6.838   2.611 -0.0796  0.0484  0.3027
15207W        W28621  14.826   6.977   3.819  0.1929 -0.3131 -0.6088
15208W        W28622  10.974  11.677   1.523 -0.2199  0.2371 -0.0305
15209W        W28623   3.250   0.002   2.009  0.1365 -0.2733 -0.2027
15210W        W28624  14.116   9.318   6.632  0.3519  0.1207 -0.3215
15211W        W28625  10.290   9.567   3.854  0.3515 -0.2488  0.0906
15212W        W28626   9.882   3.956  10.569  0.0917 -0.1772 -0.0471
15213W        W28627  15.006   0.779   1.480 -0.0274  0.1724 -0.0097
15214W        W28628   7.226  12.629  10.528  0.1089  0.0108 -0.0242
15215W        W28629   0.206   0.728   2.724 -0.0186  0.2924 -0.0187
15216W        W28630   9.199  16.564   0.065 -0.1260 -0.0168  0.0224
15217W        W28631  13.469   2.611   6.107  0.2298  0.1522 -0.0869
15218W        W28632  16.503   4.740   3.226  0.0534 -0.0791  0.3516
15219W        W28633   0.609  14.409  14.919 -0.1710 -0.3255 -0.0089
15220W        W28634   1.048   5.367   3.352 -0.1548 -0.2012  0.2269
15221W        W28635   5.982   4.371   0.569 -0.0019 -0.0811 -0.5035
15222W        W28636  13.064   3.541  12.636 -0.2240  0.0562 -0.0312
15223W        W28637   7.552  12.712  12.783  0.0202  0.3185 -0.1073
15224W        W28638  11.335  11.003   4.794  0.0286 -0.0982  0.3167
15225W        W28639  16.161  13.547  15.130  0.2048 -0.2343  0.0203
15226W        W28640  11.870   6.990  15.608 -0.0781 -0.1993  0.3530
15227W        W28641  16.052   7.175   6.974 -0.1400  0.1842 -0.4675
15228W        W28642   9.011   6.210  15.749 -0.0495  0.2325 -0.2391
15229W        W28643  12.389  15.368  15.925  0.2388 -0.1848 -0.0213
15230W        W28644   7.844  11.710  14.047  0.0622  0.2134 -0.1263
15231W        W28645   2.319  14.653   2.172 -0.0112  0.0775  0.1201
15232W        W28646   1.217  15.040  13.833 -0.0378 -0.2529  0.2798
15233W        W28647   2.534  13.147   5.062 -0.1799  0.0439 -0.2530
15234W        W28648  14.786  14.924   0.237 -0.1688 -0.2484 -0.0699
15235W        W28649  11.577  16.199   3.823  0.2424  0.0321 -0.0613
15236W        W28650  15.490   3.235   1.957  0.1913  0.1254 -0.0407
15237W        W28651   6.860   1.200   0.402  0.1529 -0.1179  0.1295
15238W        W28652  14.424   1.452  12.134 -0.0424 -0.1873 -0.0725
15239W        W28653  11.332  12.072   5.460 -0.0604 -0.1063  0.2103
15240W        W28654  14.306  17.657   4.765  0.0993  0.0823 -0.0069
15241W        W28655   8.298   5.290  10.229  0.0966 -0.4309  0.0502
15242W        W28656   1.890  11.737  13.059  0.1080  0.0065  0.1145
15243W        W28657   9.560   4.434  14.105  0.1505  0.0266  0.0684
15244W        W28658   4.854   0.922   1.117 -0.2228  0.2367  0.0032
15245W        W28659  12.435  14.900  14.581 -0.1790 -0.0991 -0.0731
15246W        W28660   6.394   1.337   0.421  0.2201 -0.1629 -0.1938
15247W        W28661   0.150   8.636   2.448  0.0020 -0.4775 -0.0241
15248W        W28662  15.540   5.312   0.432 -0.2195  0.2356 -0.2424
15249W        W28663   6.452  11.460   1.975  0.1519  0.1405 -0.2590
15250W        W28664   9.095   5.369  11.895 -0.2166  0.0272  0.1147
15251W        W28665  15.686   1.600  13.648 -0.0054 -0.0517 -0.0840
15252W        W28666  15.338   7.320   3.436 -0.0502  0.1009 -0.0809
15253W        W28667   7.768  13.992  15.091 -0.0301 -0.2841 -0.2761
15254W        W28668  18.103  11.512   1.784  0.1518 -0.1141 -0.0775
15255W        W28669   6.779   4.805  14.138 -0.0489  0.1361  0.2405
15256W        W28670  13.225  10.403  15.160 -0.0827  0.1219 -0.0363
15257W        W28671   1.631  10.704  12.199 -0.0926  0.3455 -0.0249
15258W        W28672  15.589   2.703   1.868 -0.3288 -0.2049  0.0785
15259W        W28673   4.745   3.935  12.496  0.1400 -0.1237 -0.0770
15260W        W28674  13.523  11.243  13.858  0.0983 -0.0612 -0.0881
15261W        W28675  13.052  10.693   3.844 -0.2346 -0.2091  0.2607
15262W        W28676   9.980  17.706   3.265  0.3712 -0.0842 -0.0682
15263W        W28677  16.809  17.416  11.058 -0.1566 -0.0402 -0.0468
15264W        W28678   9.314   1.272   5.723 -0.2565 -0.0648  0.0934
15265W        W28679   2.582   0.389  15.005 -0.1299 -0.1803 -0.3559
15266W        W28680   5.582  11.921  16.516 -0.1323 -0.0673  0.1564
15267W        W28681   6.712  17.719  13.536  0.1683  0.0288  0.0271
15268W        W28682  10.567   3.770   4.307 -0.1247 -0.1567 -0.0016
15269W        W28683   8.396   4.017  13.326  0.0278  0.1888 -0.0791
15270W        W28684   7.942   5.233  15.171  0.0534 -0.0318  0.2745
15271W        W28685  15.965  12.010  15.721  0.0329 -0.1501  0.2103
15272W        W28686   7.604  18.067  12.073  0.2037 -0.2639  0.0736
15273W        W28687   5.753  17.256  13.397 -0.1859  0.3963 -0.1180
15274W        W28688  13.232  17.622  14.873 -0.0227 -0.0544 -0.3025
15275W        W28689  14.092   7.095   4.314 -0.2277  0.3008 -0.2292
15276W        W28690   3.530   4.579  13.087  0.1635  0.0536 -0.0103
15277W        W28691   5.797  17.346   2.751 -0.1737 -0.2098 -0.0498
15278W        W28692  16.351   0.195  10.453 -0.0244  0.1642  0.2721
15279W        W28693  10.641   7.228   3.901 -0.2795  0.0776  0.1509
15280W        W28694   6.916  12.345   4.645  0.1229  0.0580  0.1421
15281W        W28695   3.123   1.096  13.325 -0.1256 -0.0343 -0.0838
15282W        W28696   8.096  13.223   2.780  0.5284 -0.1763 -0.1207
15283W        W28697  10.378   3.247  11.789 -0.1125  0.0729  0.5562
15284W        W28698  13.551  11.761  11.960 -0.0723 -0.1207  0.1096
15285W        W28699   2.154   4.864  11.090 -0.0301  0.2403 -0.0864
15286W        W28700   6.083  12.127   1.815  0.0338 -0.1232  0.3834
15287W        W28701   1.163   8.893  11.758  0.0611 -0.3333 -0.1290
15288W        W28702   9.117   3.270  11.638 -0.1379 -0.0974  0.0499
15289W        W28703  17.464  14.677  15.744  0.2371 -0.0119  0.0813
15290W        W28704   8.821  10.865   1.166 -0.1069 -0.2619  0.2864
15291W        W28705  11.980   4.830   2.943  0.0081  0.5502 -0.1197
15292W        W28706  13.945  11.448  15.965  0.3695  0.1888  0.1926
15293W        W28707  13.593  15.608  15.437  0.2089  0.0144 -0.2239
15294W        W28708  12.402   3.248  12.044  0.0784  0.0141 -0.0260
15295W        W28709   4.958  13.535  10.956 -0.3188  0.2987  0.1600
15296W        W28710  17.274   1.731   2.302  0.0100 -0.3743 -0.1463
15297W        W28711   5.879  16.449  15.841  0.1354 -0.0496  0.1427
15298W        W28712  10.063  13.113  13.621  0.0333  0.1602 -0.2904
15299W        W28713   5.260   3.642  13.250 -0.2000  0.0694 -0.2280
15300W        W28714  16.405   2.160  14.482  0.2399  0.0126  0.0199
15301W        W28715   5.907  12.586  12.301 -0.0297 -0.1587 -0.0954
15302W        W28716   1.887   5.892  11.829  0.0985 -0.1006  0.1807
15303W        W28717   0.160  13.227  15.196 -0.1424  0.3549  0.1719
15304W        W28718   0.979  14.340   0.273  0.0801 -0.0035 -0.2889
15305W        W28719   9.868  11.617  14.747 -0.1083  0.0346 -0.0988
15306W        W28720  13.353   0.315   4.642 -0.0157  0.2253  0.0986
15307W        W28721  16.881  17.439   4.553 -0.1250 -0.0487  0.0523
15308W        W28722  13.468  14.956   0.605  0.0720 -0.2841 -0.1829
15309W        W28723  17.406   6.502  15.512 -0.0704  0.1717 -0.0883
15310W        W28724  12.292   1.121  11.373  0.0052  0.3116  0.3194
15311W        W28725  13.428  11.791   2.913 -0.0164  0.1228 -0.3499
15312W        W28726   3.226  11.339   2.493 -0.3351  0.1842  0.5158
15313W        W28727  15.259   4.066  14.619  0.0284  0.1573 -0.1312
15314W        W28728   9.155  17.300   3.639  0.2386  0.2720  0.0891
15315W        W28729   0.576  15.618   0.513  0.1670  0.1638 -0.2439
15316W        W28730   1.797  11.594  12.589  0.1078  0.0086  0.0921
15317W        W28731  11.876   2.719   0.173  0.0674  0.1175 -0.0629
15318W        W28732  10.614   7.349  13.833  0.0578 -0.0900 -0.0660
15319W        W28733   5.886   5.463  13.739 -0.2924  0.0329  0.1642
15320W        W28734   7.027  11.453   6.574  0.0392 -0.0202 -0.1798
15321W        W28735   1.256   4.690  14.660 -0.2364 -0.1837  0.0855
15322W        W28736  14.630   6.742   4.586 -0.2237 -0.2645 -0.1876
15323W        W28737  13.071   5.288   5.097 -0.0487  0.1191 -0.0668
15324W        W28738   6.503  10.157   2.114  0.3485 -0.2353 -0.0374
15325W        W28739   9.601  12.588  11.203 -0.0672  0.1175 -0.1107
15326W        W28740   4.966   6.553  15.215  0.0102 -0.1322 -0.0054
15327W        W28741  14.080  13.624  10.764  0.0773  0.3421  0.0668
15328W        W28742  11.546   5.602  13.587  0.0211  0.0676  0.0790
15329W        W28743   4.206  11.744   5.596  0.3276 -0.1258  0.0216
15330W        W28744   4.067   3.474   4.502 -0.3111 -0.2332 -0.1127
15331W        W28745  13.655   7.459  11.708 -0.2223 -0.1069  0.1753
15332W        W28746   3.784  17.964  12.031  0.1616  0.3995  0.0792
15333W        W28747  11.953  16.997  12.217  0.2854  0.0957 -0.1746
15334W        W28748   2.210   2.555  13.853 -0.3677 -0.0936 -0.0678
15335W        W28749  12.427  13.089   3.523 -0.2560 -0.0664 -0.0669
15336W        W28750  15.314   7.442  14.509 -0.2128  0.2690 -0.1771
15337W        W28751   9.741   9.764   3.711  0.1999  0.0598  0.1185
15338W        W28752   6.189  10.467   5.410 -0.0088 -0.0908  0.2145
15339W        W28753   6.326  10.485  11.236 -0.0991  0.3671  0.1874
15340W        W28754   3.948   4.028   1.600 -0.0290  0.0563 -0.1545
15341W        W28755   2.360  12.474   6.697  0.1317 -0.3085 -0.1677
15342W        W28756   8.065   0.848   5.087 -0.0709  0.2033  0.0770
15343W        W28757   3.767   4.622  14.363  0.0241  0.0233 -0.2842
15344W        W28758  13.762   7.988  13.378 -0.1411  0.1650  0.0006
15345W        W28759  16.988   5.518   1.454 -0.1313  0.2410 -0.1789
15346W        W28760   0.345   6.462  14.085  0.1713 -0.0880  0.0457
15347W        W28761   9.603  17.124   2.328  0.1291  0.1350 -0.0521
15348W        W28762   9.401   0.215   1.318  0.0042  0.2964 -0.0153
15349W        W28763  12.158  12.093   1.709 -0.1956  0.2302  0.0790
15350W        W28764  15.226  13.551   5.022 -0.0342 -0.1328 -0.0304
15351W        W28765  14.964  15.394  12.202 -0.0011  0.3857  0.1858
15352W        W28766   3.259  10.317   0.441 -0.1117  0.0141 -0.1968
15353W        W28767  13.955  13.265  15.425  0.2273 -0.1001  0.2349
15354W        W28768  12.048   9.475   5.406  0.3824  0.4177  0.2816
15355W        W28769   9.684  11.448   0.161  0.1617  0.0065  0.1775
15356W        W28770   7.711   1.124  15.963  0.2056 -0.4678 -0.0851
15357W        W28771   4.231  14.045   5.392 -0.2122  0.0054 -0.2869
15358W        W28772  16.607  10.847  16.352  0.0514  0.2693  0.2361
15359W        W28773  13.898   7.051   1.656  0.2206 -0.0778  0.3244
15360W        W28774  14.288   9.732  14.276  0.0905  0.0145  0.0446
15361W        W28775   3.207  18.139   3.073  0.1815  0.1867  0.2791
15362W        W28776  18.113   7.989  11.590  0.0200 -0.0325 -0.0244
15363W        W28777   6.364   8.787   2.670  0.0035 -0.2050  0.0308
15364W        W28778   0.936   0.303  11.541 -0.0846 -0.0506 -0.0243
15365W        W28779   6.751  17.301   3.536 -0.2377  0.0893 -0.1155
15366W        W28780   9.750  16.720  13.637 -0.2410  0.1260 -0.1078
15367W        W28781   8.030   3.164   4.904  0.2341 -0.0666  0.1296
15368W        W28782   4.680   8.306  10.770 -0.1211  0.1678 -0.3039
15369W        W28783   5.011  13.191   2.691  0.1659 -0.1239  0.3983
15370W        W28784  14.330  11.546   2.548 -0.0940  0.0923 -0.0608
15371W        W28785   2.942   8.462  16.365  0.2476  0.1876 -0.2231
15372W        W28786   7.918  10.565   0.214 -0.0006  0.1437 -0.0169
15373W        W28787  16.906  15.216   4.602 -0.3875  0.1017  0.2001
15374W        W28788   9.043  14.639  13.061  0.1091 -0.2102 -0.0060
15375W        W28789   7.198   1.531   3.351 -0.1191  0.0525  0.2042
15376W        W28790  10.617   7.361  12.632  0.1446  0.2340 -0.0355
15377W        W28791   3.041  18.216  14.326 -0.0433  0.0004 -0.0116
15378W        W28792   9.553   4.604  10.843 -0.1834  0.3029 -0.0712
15379W        W28793  17.864  15.905  14.610 -0.1424 -0.0147  0.0376
15380W        W28794  11.319   9.455   4.641 -0.0044  0.0716 -0.2317
15381W        W28795  10.251   0.386   4.881 -0.3092  0.0948 -0.0947
15382W        W28796   6.821   3.762  16.126  0.0545  0.0314  0.0151
15383W        W28797   0.598  10.066   4.800 -0.0139 -0.0260 -0.0244
15384W        W28798  16.367  15.595  13.064 -0.2154  0.1912  0.0033
15385W        W28799  15.314   7.150   0.244 -0.0239  0.1341 -0.3181
15386W        W28800   7.031   5.517   3.087 -0.0365 -0.2617 -0.0535
15387W        W28801  11.912  15.240   3.542  0.0864 -0.1145 -0.2268
15388W        W28802   8.211  18.176  13.814 -0.0511  0.2123  0.1344
15389W        W28803   1.630  15.500  12.763 -0.0976  0.2868 -0.1207
15390W        W28804   8.084   1.491   0.968  0.1281  0.0572 -0.2556
15391W        W28805   9.968  18.205  12.131  0.1644 -0.0507  0.2067
15392W        W28806   0.703   6.284  14.401  0.1691 -0.0160 -0.1895
15393W        W28807   7.785  15.668  16.328  0.0734 -0.0669  0.1051
15394W        W28808  10.467  15.906  11.323  0.2330  0.0774 -0.2936
15395W        W28809  10.174   6.385   4.999  0.1803 -0.2695  0.2295
15396W        W28810  14.034  17.046   4.530 -0.1997 -0.0828 -0.1556
15397W        W28811  13.704  12.480   4.435 -0.1050 -0.0686 -0.0760
15398W        W28812  13.203   8.901   0.330  0.0890  0.1333  0.1258
15399W        W28813   1.723   4.801   0.977 -0.4338 -0.0340 -0.0934
15400W        W28814   3.603   6.611  13.683 -0.1919 -0.0604 -0.1534
15401W        W28815   8.050   0.059  12.346 -0.0586  0.1467 -0.0059
15402W        W28816   5.710  17.871  15.285  0.0147 -0.0915 -0.3944
15403W        W28817   1.327  13.662   3.894 -0.1132  0.0338  0.0207
15404W        W28818   6.479   1.627   4.963 -0.3133  0.2298  0.0301
15405W        W28819  16.467   7.480  13.566 -0.2772 -0.0698 -0.1114
15406W        W28820  10.693  12.614   0.359 -0.0388 -0.2053  0.1038
15407W        W28821  11.336  11.558  11.199  0.1722  0.1279 -0.0734
15408W        W28822   3.131  16.096  11.144 -0.1464 -0.0925  0.2108
15409W        W28823   5.296  13.891   4.750  0.0524 -0.1723  0.2539
15410W        W28824  16.067   1.546   3.251  0.3275  0.0354  0.0609
15411W        W28825   1.643   4.436  16.188 -0.0171  0.0158  0.0820
15412W        W28826   7.216  13.590   3.678 -0.0257 -0.0580  0.1228
15413W        W28827  11.106  14.564   5.544 -0.0271  0.1981  0.1147
15414W        W28828  13.559  11.239   5.139 -0.1252 -0.0807  0.1600
15415W        W28829  16.491   9.728  15.139  0.2437  0.1727  0.1829
15416W        W28830   7.157   1.084  13.702  0.0605 -0.0547 -0.0069
15417W        W28831  10.482   0.950   2.365  0.0966  0.0729  0.1397
15418W        W28832  11.169  12.705  12.117 -0.0242 -0.0862  0.1483
15419W        W28833   5.675  17.586   5.156  0.2519 -0.2534 -0.3550
15420W        W28834   9.647   3.808   4.813  0.1845 -0.1108 -0.1417
15421W        W28835   6.515   6.135   6.596 -0.0123 -0.0802 -0.1147
15422W        W28836  12.141   1.529   5.063 -0.0259  0.2064  0.2136
15423W        W28837  16.736   7.397   3.075  0.2367 -0.1385 -0.1740
15424W        W28838   0.687  10.085  13.961 -0.0536  0.1592 -0.1412
15425W        W28839  14.532  12.255   3.457  0.0207  0.0140 -0.2419
15426W        W28840   0.991  12.342  16.092 -0.0608  0.0537  0.1777
15427W        W28841  12.442   9.519   0.884 -0.0047 -0.0685 -0.2344
15428W        W28842   1.674   3.939  13.687 -0.1128  0.0099 -0.0631
15429W        W28843   0.847   4.114  16.384  0.4380 -0.2319 -0.1152
15430W        W28844  14.346  17.571  11.391  0.0886  0.0267  0.0055
15431W        W28845   0.214   9.355  15.073  0.1171 -0.0788 -0.0877
15432W        W28846   0.674   5.027   1.418 -0.0190  0.1001 -0.0165
15433W        W28847  16.095   6.731   3.140 -0.2159  0.0828 -0.0896
15434W        W28848  11.881  12.015  12.912  0.1996 -0.1517  0.0131
15435W        W28849   7.324   4.297  11.882 -0.1019  0.0683 -0.0909
15436W        W28850  13.585  16.461  12.811 -0.1017  0.0848  0.2872
15437W        W28851  12.455   5.169   0.594 -0.0614 -0.0868 -0.0004
15438W        W28852  15.617   1.061   6.294 -0.2034 -0.2392 -0.0008
15439W        W28853  17.923   5.115   0.520 -0.0172 -0.2553  0.2541
15440W        W28854  15.474  13.669  16.424  0.1476  0.2481 -0.2692
15441W        W28855  13.654  14.593   4.650 -0.1279 -0.0639  0.0683
15442W        W28856   7.014   7.659  16.396 -0.2785  0.0146  0.1083
15443W        W28857   4.179  16.127   0.712 -0.1971 -0.0129  0.0033
15444W        W28858   2.859   7.453   4.049  0.1363  0.3207 -0.0616
15445W        W28859   1.937   7.854   2.262  0.0720  0.1409 -0.4347
15446W        W28860   0.661  12.312  15.733  0.1720 -0.1274 -0.1908
15447W        W28861   0.527   3.133   4.634 -0.0063  0.0925  0.1385
15448W        W28862   8.485  16.719   4.506 -0.0022 -0.1805  0.0623
15449W        W28863  16.422  12.023  15.966  0.0992 -0.1571  0.1621
15450W        W28864   6.815  12.092   2.572  0.0468 -0.1258  0.4610
15451W        W28865  10.347  10.728   0.115 -0.1158 -0.1345 -0.0075
15452W        W28866   8.199   9.631  12.081  0.0186 -0.0489  0.2045
15453W        W28867  10.113   8.278  10.605 -0.1036 -0.4501  0.0552
15454W        W28868   0.363   8.643   5.722 -0.0204 -0.1845 -0.0251
15455W        W28869   3.487  16.757  10.867  0.3130  0.2032  0.2798
15456W        W28870   6.483   1.762   0.754  0.0250 -0.0659  0.0178
15457W        W28871  12.163  14.798  13.400 -0.2317  0.3031  0.1478
15458W        W28872  12.461   5.568  12.454  0.0901 -0.1877  0.0817
15459W        W28873  13.897  16.934  15.641  0.1882 -0.0138 -0.2505
15460W        W28874  13.816  14.616  14.009 -0.0675  0.0227  0.2304
15461W        W28875   2.676   4.407   1.610 -0.0899  0.0746  0.2503
15462W        W28876  10.647   8.574  12.338  0.1811 -0.0626  0.1942
15463W        W28877   0.340  12.075  11.534 -0.2729  0.2223 -0.1028
15464W        W28878  15.773  10.292  11.613 -0.0750 -0.1003 -0.2766
15465W        W28879   5.251  15.555  16.255  0.1850 -0.1702 -0.0944
15466W        W28880  14.334   4.763   3.506  0.2382 -0.1458  0.0910
15467W        W28881  15.448   8.097  11.783 -0.0568  0.0241  0.2461
15468W        W28882  18.097   7.578   1.458 -0.1863  0.2203 -0.0758
15469W        W28883  14.330   1.892   5.268 -0.0753  0.2003  0.1910
15470W        W28884  11.322   4.581  14.974 -0.0955 -0.1672 -0.1541
15471W        W28885  13.880   3.546   3.164  0.1132 -0.0708 -0.1882
15472W        W28886  16.025   3.753   0.097  0.0276  0.0408 -0.2092
15473W        W28887   4.294  10.832  13.787 -0.0999 -0.0686 -0.1911
15474W        W28888  14.075   9.268  15.220 -0.2614 -0.2932  0.0818
15475W        W28889   6.009  10.431  11.632  0.0727 -0.0180  0.0889
15476W        W28890   5.496  16.720  11.621 -0.0705  0.3618  0.4687
15477W        W28891  10.359   4.699  16.473 -0.0128  0.2305  0.2865
15478W        W28892   6.905   0.276  11.425  0.0201  0.2167 -0.2399
15479W        W28893  11.586   7.300  13.259  0.0226 -0.1774 -0.1924
15480W        W28894   3.512   5.390   3.835 -0.1246 -0.3928 -0.0489
15481W        W28895  17.853   6.261  14.243  0.1165 -0.0110 -0.0010
15482W        W28896   5.219   1.833   3.562  0.1054  0.2228 -0.0262
15483W        W28897   2.795   7.540  13.671  0.1299 -0.0089  0.2200
15484W        W28898  17.345   4.814  11.790 -0.3048  0.0844  0.0626
15485W        W28899   3.538  10.816  10.938  0.1567 -0.2026 -0.0934
15486W        W28900  14.915  17.935   0.951  0.0216 -0.0277  0.1356
15487W        W28901  10.745  11.517   5.369  0.3791 -0.0798 -0.1937
15488W        W28902   7.207   2.931   4.735 -0.0143  0.0859 -0.3289
15489W        W28903  11.686   7.687  10.959 -0.1967 -0.2244  0.0020
15490W        W28904  17.090   9.307  14.523  0.0696  0.0458  0.0534
15491W        W28905   1.473  14.870   1.592 -0.0031 -0.0334  0.0085
15492W        W28906  16.246  11.786  13.624  0.0712 -0.0260 -0.1557
15493W        W28907   2.711  10.169  12.683 -0.1970 -0.1991  0.0312
15494W        W28908   0.815  15.185   2.577  0.2029 -0.0208 -0.3423
15495W        W28909   5.279   9.932  15.009 -0.0339 -0.1258  0.2017
15496W        W28910  10.040  16.418   1.703  0.1086  0.2476  0.2587
15497W        W28911   4.537   6.855  13.929  0.4654 -0.1284 -0.0955
15498W        W28912   3.766   9.402   2.423 -0.2574  0.2601  0.4465
15499W        W28913   8.706   1.473  14.505 -0.0122 -0.1655 -0.0420
15500W        W28914  12.422  10.168  15.545 -0.2507 -0.0587 -0.1157
15501W        W28915  14.479  13.636  16.021  0.0648 -0.1311  0.0528
15502W        W28916   8.718   7.250   5.447  0.0115  0.1737 -0.2665
15503W        W28917  10.640  13.298  12.707  0.1528 -0.0328 -0.4578
15504W        W28918   6.496   9.296   0.933  0.0133 -0.1971  0.0332
15505W        W28919   5.066  15.974   0.081 -0.0144  0.2651 -0.1509
15506W        W28920   2.118   7.851   5.427 -0.2523  0.0201  0.2374
15507W        W28921  16.010   4.948   0.337  0.1499 -0.0431 -0.0507
15508W        W28922   1.465  11.976  15.741  0.2322 -0.0700  0.3372
15509W        W28923   2.704  10.503   4.046  0.0239 -0.1311 -0.0198
15510W        W28924   5.746   2.316  12.111  0.0003  0.2566  0.2801
15511W        W28925  17.250  10.361   5.863 -0.0765  0.1039 -0.0567
15512W        W28926   6.957  14.116   5.269 -0.2809 -0.0582 -0.1454
15513W        W28927   8.989  13.101  11.649  0.2356  0.1842  0.0817
15514W        W28928   4.414  13.457   4.199  0.0814 -0.0679 -0.2511
15515W        W28929   8.910   5.887   3.718  0.1426  0.1591 -0.1433
15516W        W28930   0.777  12.358  10.742 -0.0469  0.0271 -0.0212
15517W        W28931  13.561  12.128  13.939  0.1261  0.0379  0.0747
15518W        W28932  14.713   6.525  13.053 -0.0557 -0.2327 -0.1690
15519W        W28933   4.472  15.261   3.384 -0.0385  0.0899  0.1285
15520W        W28934  11.022   1.971  12.096  0.0375 -0.0345 -0.0369
15521W        W28935   2.944  14.002   3.674 -0.0173 -0.0257 -0.1719
15522W        W28936   4.135  13.448   0.248 -0.0410 -0.2439 -0.0895
15523W        W28937  12.877  11.468   4.525 -0.2101  0.1618 -0.0017
15524W        W28938  16.943  14.410  11.651  0.0784 -0.0671  0.0573
15525W        W28939   6.027   0.058   3.268 -0.1749 -0.1486  0.0275
15526W        W28940   8.235  10.096   1.165 -0.2537  0.0332  0.2408
15527W        W28941   7.936   6.562  12.995 -0.1431 -0.2499 -0.3225
15528W        W28942   6.849  12.906  11.834  0.0857  0.0593  0.1987
15529W        W28943  12.946   2.623  12.461  0.2674 -0.0808  0.2505
15530W        W28944  16.801   3.184  16.312 -0.0650  0.0415  0.0761
15531W        W28945   9.900  10.534  15.325 -0.2979  0.2420  0.0997
15532W        W28946  16.081  14.354   0.713 -0.1124  0.2505 -0.0436
15533W        W28947   7.282   8.663   4.474 -0.1208 -0.0288  0.0052
15534W        W28948   9.744   8.193  11.432  0.2459 -0.0967 -0.3827
15535W        W28949  11.883   1.438   0.871 -0.0982 -0.3477  0.1145
15536W        W28950   2.921  17.349   3.530 -0.0629  0.0321  0.0899
15537W        W28951  12.628  14.435  15.696  0.3384  0.1427  0.0483
15538W        W28952   1.741  10.066   0.534  0.0640 -0.2121  0.0547
15539W        W28953  11.611   3.098   1.809 -0.0079 -0.2188 -0.1151
15540W        W28954   7.453   6.116   0.149  0.2302 -0.0683 -0.0527
15541W        W28955   2.542  14.127   4.060  0.0475  0.0807 -0.1120
15542W        W28956  15.068   9.751  13.246  0.0804  0.1414 -0.0350
15543W        W28957  16.240   3.631  12.360 -0.0487 -0.1944 -0.0653
15544W        W28958  16.199  12.274  12.358 -0.0360  0.0199  0.2228
15545W        W28959  11.633   5.386   0.981 -0.0192  0.0856  0.0156
15546W        W28960   3.590   0.791   1.641  0.2418 -0.1676  0.1479
15547W        W28961  17.003  15.164   3.268 -0.2294 -0.0904  0.0789
15548W        W28962  17.335   3.965   2.969  0.2981 -0.0841 -0.0122
15549W        W28963  15.236   8.757  14.065 -0.0119 -0.0247  0.2354
15550W        W28964  17.662  14.712  13.317  0.1216 -0.0054 -0.0229
15551W        W28965   3.254   9.785  15.715 -0.0273 -0.1074 -0.0136
15552W        W28966   2.299   6.314   1.809 -0.4375 -0.3988 -0.2638
15553W        W28967  11.358  10.883  11.675 -0.1586 -0.2669 -0.0938
15554W        W28968   6.935   2.429  12.611  0.0068 -0.0848 -0.0410
15555W        W28969  15.092   9.256   5.759 -0.0146  0.2562 -0.0509
15556W        W28970  14.369   3.973   5.282  0.1735 -0.0046  0.3114
15557W        W28971  10.433  15.255   4.730 -0.2191  0.0690 -0.1301
15558W        W28972  11.727   1.317  13.919  0.1755  0.0243 -0.1044
15559W        W28973   2.941  12.474   1.686  0.1794 -0.2424  0.1992
15560W        W28974  13.847   1.203  15.371 -0.0093  0.1493 -0.2856
15561W        W28975   6.283   6.662   3.334  0.0507 -0.2482 -0.0669
15562W        W28976  10.008   7.759  10.656 -0.0183 -0.1789  0.1821
15563W        W28977   9.135   6.004  11.242  0.1681  0.2161  0.2608
15564W        W28978   7.270   6.497  14.128  0.0289  0.0459 -0.1370
15565W        W28979  13.704  16.429  15.424  0.0274  0.0886 -0.1232
15566W        W28980  13.627   1.092   3.204  0.0165 -0.0083  0.3791
15567W        W28981   7.636   7.613   5.057  0.1208  0.1118 -0.3155
15568W        W28982  11.740   1.114   1.819 -0.1959 -0.1471 -0.2022
15569W        W28983  11.079  14.522  13.895  0.0141  0.1414  0.1551
15570W        W28984  12.260  15.328  15.420  0.2869  0.0784 -0.0868
15571W        W28985  11.547  13.971   2.452  0.4265 -0.1904  0.0097
15572W        W28986   4.787  13.252  11.598  0.0045 -0.1883  0.2272
15573W        W28987   6.358   9.010  15.181 -0.1637  0.1255  0.0739
15574W        W28988  12.174   2.756  13.143 -0.1442 -0.1909  0.1310
15575W        W28989  12.099   5.797  15.034 -0.1200  0.2658  0.4149
15576W        W28990   4.868  13.270   0.915 -0.2994  0.0144 -0.0877
15577W        W28991  17.441  11.147   1.249  0.0533 -0.1864  0.1832
15578W        W28992   0.164   5.661   0.055 -0.3341  0.0328 -0.1698
15579W        W28993  12.836   5.645  15.241  0.0307  0.0120 -0.1507
15580W        W28994  15.888   0.603  16.423 -0.3512  0.0997 -0.2979
15581W        W28995   1.843  15.068   4.693  0.2254  0.0510 -0.2041
15582W        W28996  11.977   5.994  14.545  0.1523 -0.0674 -0.0080
15583W        W28997   4.389   4.981   2.673  0.1524  0.3561  0.2039
15584W        W28998  12.067  13.318  14.341 -0.0757 -0.1363  0.1247
15585W        W28999  11.146  15.291   3.208  0.2773 -0.2331  0.0677
15586W        W29000  11.521  16.892  14.347 -0.2164 -0.3897  0.2163
15587W        W29001   0.458   6.671  14.590  0.1118  0.1540  0.1424
15588W        W29002  10.079   6.280  14.327  0.1059 -0.3063  0.1101
15589W        W29003   4.182  10.403  11.718  0.0292 -0.0080 -0.4083
15590W        W29004   9.606  16.992   9.289 -0.0755 -0.0359  0.1522
15591W        W29005   3.374   3.537  13.314 -0.1981  0.2057 -0.1658
15592W        W29006  10.347  16.660   5.289  0.1986 -0.1384 -0.3912
15593W        W29007   9.914  15.513  13.246  0.1136  0.3028 -0.4782
15594W        W29008  17.191  13.964   4.072  0.0762  0.1890 -0.2729
15595W        W29009   9.646   4.991   2.738 -0.0246 -0.0714  0.1953
15596W        W29010   0.064  10.939  11.841  0.1167  0.2549  0.0169
15597W        W29011  11.330  15.202   0.978  0.0545  0.3997  0.0832
15598W        W29012   8.192   9.192  16.467 -0.2389 -0.0256 -0.0022
15599W        W29013   6.832  11.590   6.089 -0.0259  0.2341 -0.2055
15600W        W29014   6.727   2.732  15.327 -0.2201 -0.0366  0.0587
15601W        W29015   9.305   6.131  13.190 -0.2746 -0.2430  0.0282
15602W        W29016   4.526   9.136   4.221  0.1651  0.0615 -0.0055
15603W        W29017   0.995  12.768   1.176  0.2675  0.2494 -0.2113
15604W        W29018   2.453   4.333   5.301  0.0906  0.3463  0.0829
15605W        W29019   4.162   5.336   6.318 -0.5773 -0.1286  0.0532
15606W        W29020   7.068   3.454  12.157  0.0550  0.0789  0.2739
15607W        W29021  13.728   7.463  15.831 -0.2750 -0.3941  0.1212
15608W        W29022  13.151  10.229   0.985 -0.2525 -0.3232 -0.0965
15609W        W29023   9.733  16.173  11.854  0.2383 -0.2030 -0.3091
15610W        W29024   8.702  16.991  13.416  0.1027 -0.0067 -0.0464
15611W        W29025   1.141  12.744  14.350  0.1250  0.4424 -0.3100
15612W        W29026   8.799   4.585   0.635  0.2775  0.2154  0.2973
15613W        W29027   7.526  11.423  14.299  0.1457 -0.0147 -0.0906
15614W        W29028  17.565   8.761   2.523 -0.1827 -0.2256 -0.2233
15615W        W29029   6.355   5.339   3.850 -0.2679  0.0896  0.0977
15616W        W29030  15.650  10.949   6.202 -0.0955  0.0336  0.1438
15617W        W29031   5.198   0.703   0.177 -0.1853 -0.0130 -0.1929
15618W        W29032  13.432  10.070  14.332 -0.1795  0.0421 -0.1852
15619W        W29033  16.723   2.173   4.856 -0.3154 -0.1215  0.2088
15620W        W29034   2.376   4.757   3.432 -0.1592  0.0209  0.1760
15621W        W29035  16.355   0.835   4.015  0.0432 -0.1536 -0.0743
15622W        W29036   9.681   2.908  12.915 -0.0625  0.2509  0.2462
15623W        W29037   7.994   0.377  15.539 -0.2812 -0.0595 -0.4097
15624W        W29038   0.943   8.373  14.636 -0.0439  0.3359  0.2163
15625W        W29039  13.013   8.201  12.130  0.0119  0.1491 -0.0989
15626W        W29040   4.500   3.877   1.672 -0.1430 -0.0585  0.2793
15627W        W29041   7.787  12.317  12.841  0.1308  0.0171 -0.1205
15628W        W29042   3.301   1.726  10.318 -0.1390  0.0304  0.0448
15629W        W29043  10.629   1.035  11.964 -0.0831  0.1505  0.0101
15630W        W29044   3.071  15.319   1.212 -0.2117 -0.1307  0.0126
15631W        W29045  17.328   6.112  15.891 -0.1157  0.0773 -0.0033
15632W        W29046   7.770   2.678   0.349  0.0097 -0.1493  0.1314
15633W        W29047   6.603  14.155   0.960 -0.2082 -0.1720  0.2217
15634W        W29048  10.986  12.239   1.717 -0.2018  0.3054  0.2071
15635W        W29049   9.669   6.918   4.945  0.0018  0.0482  0.0630
15636W        W29050  14.317  11.542  11.516  0.1842  0.3154 -0.3836
15637W        W29051  10.662  14.708  13.402 -0.0984 -0.1188  0.1165
15638W        W29052  15.260   5.247  11.114 -0.2129 -0.0324 -0.2446
15639W        W29053   6.559   3.110  12.145  0.0315  0.0557 -0.1134
15640W        W29054  12.355   3.757  16.013  0.0221 -0.0367 -0.4036
15641W        W29055   3.074   6.453   7.530 -0.0800 -0.1244  0.1043
15642W        W29056   6.610  14.383  14.780 -0.0913  0.1561  0.0204
15643W        W29057  13.195  17.323   2.783 -0.0367  0.2654  0.0029
15644W        W29058  12.995   3.936  14.391  0.4268 -0.0349 -0.0311
15645W        W29059  10.163   3.388   5.511  0.2228  0.2310 -0.1762
15646W        W29060   9.915   1.475  15.064 -0.1452 -0.0965  0.1838
15647W        W29061  15.251   9.800  14.768 -0.1885  0.3285 -0.1701
15648W        W29062  13.402  17.817   5.271 -0.0420  0.2167 -0.0695
15649W        W29063   3.066   2.172   3.162 -0.0247 -0.0141 -0.4134
15650W        W29064  11.338   3.313   2.305  0.1502 -0.0029  0.2635
15651W        W29065   5.467   1.181   2.983 -0.1083 -0.0271  0.0815
15652W        W29066   8.325   2.953  10.989 -0.0874 -0.0224 -0.0702
15653W        W29067   4.757  16.093   5.364  0.3007  0.1492 -0.1736
15654W        W29068   9.125   6.104  14.826  0.2301 -0.0996 -0.1844
15655W        W29069  15.464   5.955  14.023  0.0809 -0.0495  0.1105
15656W        W29070   2.343  16.385  10.377  0.0817  0.0576  0.2350
15657W        W29071   1.897   5.421   0.377  0.1182  0.2978 -0.1113
15658W        W29072   8.319   5.791   1.244  0.1090  0.2790  0.0395
15659W        W29073   2.756   9.623  12.689 -0.0504 -0.3825 -0.2812
15660W        W29074  12.478   7.951   1.683 -0.0994  0.1705  0.0220
15661W        W29075   6.610  10.184   1.505  0.0106 -0.0249 -0.2270
15662W        W29076  15.874  17.008   2.310  0.0722 -0.0600 -0.0499
15663W        W29077   6.833  13.278   3.137  0.2724 -0.2284  0.1120
15664W        W29078   4.666   3.194   2.667  0.2413  0.0483 -0.1109
15665W        W29079  16.360   2.344   4.550  0.0274 -0.0583 -0.0889
15666W        W29080   8.455  11.695  11.833 -0.1279 -0.3239  0.1536
15667W        W29081  17.506   7.694  14.507 -0.1438  0.0605  0.0619
15668W        W29082  13.982  15.037   0.770  0.2150  0.1565  0.1731
15669W        W29083  13.374  15.802  12.402  0.1263 -0.1801  0.0112
15670W        W29084   5.286   4.013   0.059 -0.0586 -0.0824 -0.0066
15671W        W29085   1.780   7.701   5.779  0.0712 -0.3600  0.3336
15672W        W29086   3.498  16.176   2.184 -0.3491 -0.1072 -0.2518
15673W        W29087  15.500   8.481  14.491  0.3340  0.0557 -0.0347
15674W        W29088   4.884  10.292  11.224  0.0147 -0.1151  0.2115
15675W        W29089  11.114  16.891  15.107 -0.2850  0.0823  0.3188
15676W        W29090   5.283  17.986  13.908  0.0072 -0.2165  0.0695
15677W        W29091   4.534  15.210   3.924  0.4049 -0.2261  0.0544
15678W        W29092  10.989  13.761  14.486 -0.2196  0.0617 -0.0638
15679W        W29093  16.983   9.216  11.085 -0.0430  0.0386 -0.1633
15680W        W29094   3.059   0.533   5.196  0.1423 -0.4769  0.2078
15681W        W29095  12.390  17.963  14.818  0.0791 -0.0246 -0.1069
15682W        W29096  12.213  11.367   4.754  0.1205  0.1277 -0.0298
15683W        W29097  16.144   4.322  14.693  0.2131  0.1591  0.1946
15684W        W29098  16.350   5.718   3.874  0.0313 -0.1626 -0.0540
15685W        W29099  15.385   2.014  13.488  0.0725  0.1647 -0.0072
15686W        W29100   9.380  10.902  10.786  0.2952  0.2082 -0.2538
15687W        W29101  15.946  14.843  16.364 -0.1628 -0.0263 -0.0394
15688W        W29102  11.696  11.226   2.514 -0.1315  0.0275  0.2795
15689W        W29103  13.245  16.838  12.591 -0.3139  0.0626 -0.2437
15690W        W29104  16.340  11.633   2.299  0.2911  0.1926  0.2069
15691W        W29105   4.645   6.065  10.947  0.2733 -0.1690  0.1332
15692W        W29106  14.281   6.726   1.175  0.0131 -0.1770 -0.1908
15693W        W29107   2.781   4.816   4.259  0.0409  0.1341  0.0223
15694W        W29108  15.538   5.540  15.433 -0.1292  0.2700  0.0095
15695W        W29109  12.526   9.770   2.329  0.0374  0.0001  0.3191
15696W        W29110  13.638  16.629  10.767  0.0894  0.0257 -0.2624
15697W        W29111  10.263   7.370  14.932  0.0303 -0.1107 -0.0411
15698W        W29112   8.750  13.573   3.365  0.1687 -0.1432  0.0882
15699W        W29113   8.266   0.415  16.311 -0.0078 -0.1979 -0.2829
15700W        W29114  13.006  15.789  11.188 -0.1167  0.1382 -0.2887
15701W        W29115  17.639   4.169  13.440 -0.1645 -0.2599  0.0832
15702W        W29116   1.363   4.045  16.364  0.1497 -0.2695 -0.1863
15703W        W29117   3.368  16.501   4.147  0.0719 -0.0575  0.0034
15704W        W29118  10.120   0.753   0.005 -0.1938  0.3307  0.1240
15705W        W29119   1.210  14.429   4.982 -0.1522 -0.1278  0.1216
15706W        W29120  13.033  15.537   1.061  0.1518 -0.0315  0.2187
15707W        W29121  12.237   3.224  14.662 -0.1897  0.1882 -0.0657
15708W        W29122  11.193  17.936  16.213  0.0252  0.1528 -0.0742
15709W        W29123   8.785  17.493   5.824 -0.1834  0.2615 -0.2947
15710W        W29124  12.339   7.053  10.950  0.3454 -0.0314  0.0911
15711W        W29125   4.059  10.312  15.394 -0.3165 -0.2434 -0.2128
15712W        W29126   2.033   4.383   3.238 -0.2296  0.0104  0.0194
15713W        W29127  10.895   4.469  14.676 -0.2103 -0.0144 -0.1488
15714W        W29128  14.792   7.439   1.619 -0.0168 -0.0721 -0.2134
15715W        W29129   4.216   5.460   3.960  0.2781  0.0385 -0.0262
15716W        W29130   2.064  14.216   4.133 -0.1772  0.1310  0.0237
15717W        W29131   6.513   7.692   4.566 -0.4415  0.1991 -0.0366
15718W        W29132   7.974   9.052  10.727 -0.6041 -0.1725 -0.2923
15719W        W29133   0.252  17.415   3.119 -0.0184  0.3190 -0.0226
15720W        W29134   5.519   0.708   3.248 -0.1173 -0.4023 -0.1433
15721W        W29135  12.358  15.949   0.370 -0.2007  0.0572  0.3447
15722W        W29136   2.972   7.611  11.318 -0.1391  0.0379 -0.1122
15723W        W29137  16.708  12.112  12.437  0.0357 -0.0238  0.3316
15724W        W29138   6.618   6.672   5.077  0.0745  0.1093  0.0495
15725W        W29139  16.739  14.000  11.499  0.0676 -0.0679  0.2730
15726W        W29140  17.135  12.623   6.306 -0.1851  0.1315  0.4887
15727W        W29141  10.523  17.621   2.238  0.0164 -0.0399  0.3302
15728W        W29142   4.401   8.388  15.364  0.6581  0.1266 -0.0177
15729W        W29143   8.523   4.153   0.951  0.0079 -0.0299  0.1341
15730W        W29144  17.837   0.323  16.023 -0.1029  0.1228  0.0292
15731W        W29145   2.197  17.550  11.872 -0.0255 -0.0094  0.2916
15732W        W29146  14.043  17.911   0.322  0.3000 -0.0846 -0.1589
15733W        W29147  15.566  14.625   5.574 -0.0721 -0.1430  0.1182
15734W        W29148   2.795   5.343   0.114 -0.1233  0.0505 -0.1583
15735W        W29149   0.081   0.373   0.709  0.1075 -0.2167  0.2068
15736W        W29150   9.450   9.856  12.897 -0.0588  0.0945  0.0065
15737W        W29151   2.446  18.222   2.922  0.0417  0.0174 -0.0234
15738W        W29152   5.425  16.413  10.611 -0.2530  0.2409 -0.2867
15739W        W29153  14.677  17.920  11.226 -0.0162 -0.1180 -0.2714
15740W        W29154  17.723  17.649  14.565 -0.0668  0.0269 -0.0223
15741W        W29155   4.196  10.172  14.972 -0.3107  0.0790  0.2150
15742W        W29156  14.989   9.189  13.228 -0.0151  0.1339 -0.2550
15743W        W29157  13.331   9.871   1.944  0.0588  0.0496 -0.0736
15744W        W29158  16.360  15.313   4.243 -0.0106  0.0440 -0.0321
15745W        W29159  15.110   9.445  12.005 -0.0363  0.3569 -0.3344
15746W        W29160   6.503   4.903  15.563  0.2930  0.0038 -0.0869
15747W        W29161  13.009  16.206  10.356  0.0452 -0.1006  0.0432
15748W        W29162  12.221  13.384  16.144 -0.0824 -0.0017  0.1272
15749W        W29163   9.440   3.937  15.746  0.0940  0.0197 -0.1838
15750W        W29164   9.461  11.184  14.725  0.1130  0.0654 -0.1061
15751W        W29165   6.102   3.876   2.095  0.1090  0.2034  0.3550
15752W        W29166  15.626   4.221   4.721  0.1540  0.0948 -0.2498
15753W        W29167   1.815   9.390   4.402  0.0468  0.0446  0.2056
15754W        W29168   2.250  13.708  16.393 -0.1076  0.0446 -0.2485
15755W        W29169   5.327   2.844   4.027  0.0826 -0.0566 -0.1897
15756W        W29170   6.333  10.733  12.749 -0.1931 -0.0570 -0.1432
15757W        W29171  11.040   9.800  15.145  0.2152  0.1961  0.3915
15758W        W29172   4.704   7.956  15.164 -0.1531 -0.3725  0.1234
15759W        W29173   7.358  16.154  15.562 -0.0451 -0.0470 -0.1645
15760W        W29174   2.211  11.167   3.562 -0.0279  0.1370  0.2901
15761W        W29175   5.622  11.809   2.351 -0.1774  0.1251 -0.0726
15762W        W29176  16.850   6.314   0.173  0.3377  0.0723  0.0283
15763W        W29177  15.088   1.569   1.959  0.2519 -0.0942 -0.0914
15764W        W29178  15.505  13.663   5.435  0.0062  0.0812 -0.0270
15765W        W29179  12.645  17.557  11.970  0.0441  0.2202 -0.1764
15766W        W29180   8.371   4.010   0.164 -0.1343  0.0943 -0.3256
15767W        W29181  17.413  10.621   0.391 -0.2805  0.0527  0.0781
15768W        W29182  17.140   4.726   4.219 -0.0395  0.0904  0.3287
15769W        W29183   1.838  17.963  12.024 -0.0892 -0.2388  0.2532
15770W        W29184   7.545   8.486  11.459 -0.2743  0.0499 -0.1938
15771W        W29185   2.843   8.458   5.327 -0.1063  0.2035  0.0069
15772W        W29186  17.005   0.101   4.469 -0.1441 -0.1048 -0.2567
15773W        W29187  10.397   0.452   1.537  0.2007  0.0699 -0.0136
15774W        W29188   8.252  11.381   3.711  0.0867  0.1061 -0.1510
15775W        W29189  11.766  10.098  10.567 -0.0734  0.1544 -0.0148
15776W        W29190  14.639   6.255   3.185 -0.0955 -0.0672 -0.3361
15777W        W29191   8.224  17.991  12.765  0.1346 -0.0780  0.0869
15778W        W29192  12.011   8.635  16.068  0.0979  0.1941  0.2106
15779W        W29193   4.268  16.894  13.921 -0.1422 -0.2509 -0.4436
15780W        W29194   9.394  15.056  12.597  0.1366  0.3527 -0.2363
15781W        W29195  10.686   8.585   0.542 -0.1362  0.0908  0.3293
15782W        W29196  10.655  16.082   3.435  0.0797 -0.0213  0.0766
15783W        W29197   0.939  10.338   5.523 -0.1068  0.0815  0.1602
15784W        W29198   7.467   0.491  14.628  0.0362 -0.1542 -0.4170
15785W        W29199   8.692   4.869   5.627 -0.1018 -0.1562 -0.1311
15786W        W29200   9.027   8.495  12.578 -0.2686  0.1759 -0.0073
15787W        W29201   4.904  10.678   1.289 -0.1579 -0.1126  0.1393
15788W        W29202  13.023   4.219  15.252 -0.1157  0.0124  0.2478
15789W        W29203   1.824  12.209   0.982  0.0499 -0.1210  0.1824
15790W        W29204  14.198   7.454  15.976 -0.0286 -0.0020  0.0704
15791W        W29205  15.138   5.683  13.186  0.1271  0.1090  0.0020
15792W        W29206   1.286  13.310  15.949 -0.0289  0.2311 -0.3110
15793W        W29207   1.259  17.298  13.771  0.2127 -0.1746  0.1636
15794W        W29208   9.327   8.148  15.831 -0.2109 -0.0624 -0.1287
15795W        W29209  17.643  17.015  10.202  0.0643  0.1083  0.1318
15796W        W29210   7.385  17.919  14.241 -0.2333  0.0595  0.1566
15797W        W29211  15.326   0.806  10.494  0.0576  0.1252 -0.2111
15798W        W29212  17.938  12.120  10.871 -0.0659 -0.1854 -0.2794
15799W        W29213  13.851  11.469   0.410 -0.4255  0.2586  0.0229
15800W        W29214  14.024   5.158   1.833 -0.0373  0.1938 -0.1580
15801W        W29215  11.455   1.432  13.480 -0.0253  0.2515  0.0012
15802W        W29216  12.475   0.917   1.314  0.2283  0.1252 -0.1240
15803W        W29217  12.466  14.813   2.964 -0.1237 -0.0507  0.1901
15804W        W29218   4.216  10.225   3.730  0.4420  0.1715  0.1555
15805W        W29219   2.906   7.774   3.663 -0.2565 -0.0747 -0.0285
15806W        W29220   7.990   3.249   5.405 -0.2024  0.1739 -0.2666
15807W        W29221   1.074   0.867   4.038  0.1100 -0.1507  0.2886
15808W        W29222   2.593  11.917   5.003  0.1028  0.1942 -0.2538
15809W        W29223   6.009  16.016  15.613  0.1428  0.0456 -0.1396
15810W        W29224   2.059   6.696  11.486  0.2547  0.2171  0.0901
15811W        W29225  15.841   8.469  13.593 -0.2263 -0.1205 -0.2246
15812W        W29226   4.707   0.490  14.920 -0.1589  0.0515  0.2116
15813W        W29227   6.375  10.248  12.794 -0.0698  0.0948  0.2496
15814W        W29228   9.082   5.422  16.474 -0.0415  0.0926 -0.1262
15815W        W29229   3.153  15.045  12.460  0.1342 -0.1147 -0.0250
15816W        W29230   4.181   7.604   4.147  0.1530 -0.0446  0.2382
15817W        W29231   3.721   0.345  13.081  0.3625  0.2313  0.1809
15818W        W29232  10.319   4.337   0.290  0.2731  0.0230 -0.0263
15819W        W29233   3.827   8.869  12.704 -0.2041 -0.0146 -0.0962
15820W        W29234  16.117   0.359  13.656  0.0527 -0.1590  0.1419
15821W        W29235   2.248   3.561   2.721  0.0287 -0.2779 -0.1643
15822W        W29236  15.298   1.426   2.386  0.2227  0.0616  0.3253
15823W        W29237  10.326  10.849   6.603  0.0116 -0.0193 -0.0112
15824W        W29238   6.963   9.269   3.887 -0.1511 -0.1730  0.1299
15825W        W29239   6.865   8.885   2.808 -0.1407  0.1219  0.0260
15826W        W29240   2.306   0.214  10.868 -0.3521 -0.1240  0.2760
15827W        W29241  11.511  16.316  12.576 -0.0186 -0.2535 -0.3025
15828W        W29242  12.718  16.483  11.762  0.0259  0.0324  0.3324
15829W        W29243  16.188  12.962   0.454  0.2307 -0.3031 -0.0129
15830W        W29244  13.341  17.278  15.652  0.2525 -0.0580  0.1614
15831W        W29245  16.821   8.272  14.988 -0.0696 -0.4291  0.0594
15832W        W29246  10.171  13.190   2.196 -0.4160 -0.1760 -0.2636
15833W        W29247   0.219  11.820  16.425  0.2338 -0.1212  0.0533
15834W        W29248   8.257  10.903   0.504  0.1134 -0.0923 -0.0101
15835W        W29249   6.626  10.578   4.477 -0.1158  0.0122  0.0364
15836W        W29250  17.726  13.377   0.847 -0.2501  0.0540  0.0260
15837W        W29251  15.058  13.935   0.066  0.1123 -0.0200 -0.0720
15838W        W29252   6.512   8.512  15.156  0.0387  0.0158 -0.0010
15839W        W29253  12.871  13.032  11.595 -0.0788  0.0755 -0.0952
15840W        W29254  11.930  13.830   0.066 -0.1361  0.0458  0.1518
15841W        W29255   1.945   9.228   5.708 -0.0930 -0.3889  0.0538
15842W        W29256   3.142   9.142  14.811 -0.4984  0.0850  0.1459
15843W        W29257  13.867   8.154  14.214 -0.0796 -0.0454 -0.1767
15844W        W29258  13.109   2.379   4.882 -0.1544  0.0824 -0.0069
15845W        W29259  11.604   8.175  15.775 -0.1090 -0.0653 -0.1021
15846W        W29260   9.861  16.998  12.055 -0.0129 -0.1172  0.0014
15847W        W29261   6.161  11.398  15.696  0.0005 -0.1487 -0.1805
15848W        W29262   6.277  15.968  10.813 -0.2629  0.0999 -0.1648
15849W        W29263  11.670  11.836   3.756 -0.0736  0.2226  0.0805
15850W        W29264  12.680  17.699  12.932  0.0407  0.2091 -0.3547
15851W        W29265   0.620  12.029   0.108  0.1363  0.1815  0.0808
15852W        W29266   1.740  11.816   1.438  0.0379  0.2134 -0.0365
15853W        W29267   7.611   5.348  11.491 -0.0778  0.2929  0.1888
15854W        W29268  10.080   9.986   3.994  0.1823 -0.2111 -0.0310
15855W        W29269   2.920  17.796  12.005 -0.2375  0.2041 -0.0579
15856W        W29270  12.872   0.343   0.173  0.0339  0.0162  0.1503
15857W        W29271  12.794   6.928   4.817  0.0080  0.0966  0.1903
15858W        W29272  14.350   9.750   5.491  0.3546  0.1742  0.1371
15859W        W29273  13.239   4.206  13.242 -0.1139  0.0541  0.3721
15860W        W29274   5.300  15.800   5.347  0.2105  0.1768  0.2033
15861W        W29275  10.092  16.403  16.441  0.1293  0.0194  0.1744
15862W        W29276  16.982   2.011  13.465 -0.1613  0.2077  0.1238
15863W        W29277   2.496  12.282  16.317  0.2648 -0.0043 -0.2951
15864W        W29278  14.357  10.743  11.024  0.0579  0.1484 -0.1733
15865W        W29279   9.597   1.430   0.833 -0.1626  0.6442  0.2101
15866W        W29280   3.091   7.514  12.145 -0.0901 -0.1035  0.1356
15867W        W29281  12.508  13.953   1.680 -0.0499 -0.2212 -0.0884
15868W        W29282  12.897   5.110  10.177 -0.1387  0.0100  0.1443
15869W        W29283   9.161   5.498   5.394  0.0243 -0.1244  0.2037
15870W        W29284   3.209   4.609   3.947 -0.0524  0.2397  0.1649
15871W        W29285  10.633   4.740   5.081 -0.1205 -0.1308 -0.0155
15872W        W29286  11.243   1.346  15.498 -0.0492 -0.1347  0.3383
15873W        W29287   3.058   3.672   3.620 -0.2196 -0.0295 -0.2744
15874W        W29288   6.275   8.058   1.917 -0.1424 -0.0750 -0.3635
15875W        W29289  10.965  17.480   1.902  0.1388 -0.0152 -0.1816
15876W        W29290   2.531   5.122   5.174 -0.1520  0.4027  0.2959
15877W        W29291  17.343   9.781   0.172  0.3598 -0.0355  0.3389
15878W        W29292   1.251   7.464  14.618 -0.1427  0.0652 -0.2123
15879W        W29293  11.538  15.722   0.008 -0.3902  0.0741 -0.0155
15880W        W29294  17.396   9.917  11.831 -0.1040  0.0933  0.2286
15881W        W29295   8.894   9.282  14.601  0.2128  0.0638  0.2635
15882W        W29296   8.489  15.571  12.397 -0.0460  0.1737  0.0419
15883W        W29297  17.162  12.919   0.201  0.2045 -0.3064 -0.3831
15884W        W29298   9.525   6.900   1.799  0.0815  0.0934  0.0676
15885W        W29299  13.574  15.039   2.137 -0.1731  0.1802  0.2213
15886W        W29300  18.193   4.742   2.633  0.1890 -0.0062 -0.1131
15887W        W29301  13.079   4.409  11.693 -0.0265 -0.4400 -0.0327
15888W        W29302   4.916   2.840  11.404 -0.3398 -0.0409 -0.0484
15889W        W29303   4.219   6.161  13.694  0.1183  0.2295  0.2408
15890W        W29304  13.602  14.267  13.636 -0.1949 -0.1483 -0.0461
15891W        W29305  17.571   8.218   3.935  0.1210 -0.2165  0.3883
15892W        W29306   5.258  11.666  11.670  0.2448 -0.1004 -0.1262
15893W        W29307  17.595  13.591   4.264  0.0702 -0.3702  0.2137
15894W        W29308  14.464  13.105   3.054 -0.2614  0.0966  0.1239
15895W        W29309   0.710   5.583  15.519  0.2226 -0.0583 -0.1135
15896W        W29310   5.955  15.703   1.398 -0.0112 -0.1553  0.4034
15897W        W29311  10.031  12.367  14.258 -0.1221 -0.0610  0.0114
15898W        W29312  15.693  17.884  15.941  0.1499  0.1800 -0.4317
15899W        W29313   9.869   4.756   5.225 -0.0025  0.2251  0.1489
15900W        W29314   0.420  15.077   4.059 -0.0302  0.2871 -0.1898
15901W        W29315  13.122   0.128   1.207 -0.1561 -0.1062 -0.0788
15902W        W29316   4.208  14.855   6.003  0.2456 -0.0211  0.0050
15903W        W29317   8.206  13.480   1.106 -0.0287  0.2436  0.1532
15904W        W29318  11.462   7.472   2.523 -0.0793 -0.0264  0.0716
15905W        W29319  12.297   4.192   4.927  0.5481  0.1167 -0.2986
15906W        W29320  14.372   4.160  14.032  0.2542 -0.2210  0.2026
15907W        W29321   3.507  13.996  13.846  0.1592 -0.0718 -0.1954
15908W        W29322  17.119   3.303  14.675 -0.0612  0.1015  0.2092
15909W        W29323   5.529   1.624   3.262 -0.3981  0.2072  0.0154
15910W        W29324   3.198   9.077   1.513 -0.1833  0.4493 -0.0817
15911W        W29325   2.453  14.483   3.726 -0.0260  0.2908 -0.0178
15912W        W29326  16.769  13.515  14.087  0.0475 -0.2889 -0.0764
15913W        W29327  11.312   2.492   2.935 -0.1927 -0.2452  0.2899
15914W        W29328   1.765   7.525   4.784  0.2342  0.2797  0.2008
15915W        W29329  13.462   6.525  11.889 -0.0950  0.0916  0.1920
15916W        W29330   0.889  15.938  14.067  0.1324 -0.3069  0.3212
15917W        W29331   5.930   1.135  12.354  0.0623  0.2447  0.0944
15918W        W29332   0.483  15.781  14.730 -0.0914 -0.3446 -0.3313
15919W        W29333   8.538   5.987   1.992 -0.3133  0.1346  0.0206
15920W        W29334  12.861   3.440   3.446 -0.0592 -0.0302  0.0922
15921W        W29335  11.479   4.706   2.040 -0.0059  0.2920 -0.3438
15922W        W29336  12.672   1.453  14.279  0.1731 -0.0207  0.0731
15923W        W29337  10.701  11.927   3.260 -0.0832  0.2512  0.0061
15924W        W29338  12.528  10.568  12.948  0.0132  0.0596  0.0942
15925W        W29339   6.172   5.862  15.560  0.4067 -0.0096  0.3259
15926W        W29340  17.192   9.170   6.011  0.2361  0.1977  0.0673
15927W        W29341  16.550   4.514  15.078  0.2130  0.0126 -0.1792
15928W        W29342   8.251   1.936  11.188  0.0366 -0.1129 -0.2687
15929W        W29343  18.192   8.063   4.489  0.1212  0.1889 -0.2173
15930W        W29344   4.874   9.893  13.164 -0.0650  0.2356  0.0226
15931W        W29345   1.039  14.255   0.781  0.0025  0.0394 -0.0821
15932W        W29346   7.022   1.584   4.752  0.0196  0.1288  0.1063
15933W        W29347   0.428   2.334  14.122 -0.0255  0.0730 -0.1333
15934W        W29348  17.536  12.073   2.258  0.1894  0.0719 -0.2016
15935W        W29349   9.302   8.015  11.176 -0.0982 -0.1587 -0.3894
15936W        W29350   3.648  12.710  15.014 -0.2383 -0.0843 -0.2407
15937W        W29351   8.174   7.203  13.982 -0.0512  0.1976 -0.1786
15938W        W29352   8.159  11.241   2.810 -0.2579  0.1017 -0.2098
15939W        W29353  11.858   0.320  14.846 -0.0136 -0.1131  0.1148
15940W        W29354   6.256   3.581   3.216  0.0059  0.1847  0.0778
15941W        W29355   0.181  16.771  11.887  0.1450 -0.0836  0.0702
15942W        W29356  17.884   7.228  16.111 -0.2169  0.1585  0.3107
15943W        W29357  10.772   3.695  12.723 -0.2291 -0.1152  0.1371
15944W        W29358  11.463  17.448   2.530 -0.3380 -0.2730  0.0348
15945W        W29359   6.171   0.432  13.369 -0.1757 -0.0635 -0.1631
15946W        W29360   2.976  13.184   4.810  0.2300  0.2543 -0.2961
15947W        W29361   3.019   1.407   3.922  0.2212  0.0039  0.2875
15948W        W29362  14.111   1.610  10.068  0.2372  0.1324 -0.2641
15949W        W29363  18.118   5.114  11.534  0.1126  0.0037  0.0474
15950W        W29364   4.579  13.179  13.245 -0.1781  0.0359  0.0760
15951W        W29365   2.676   0.087   2.462  0.0922 -0.0026  0.1721
15952W        W29366  16.996  15.474  11.534  0.1872 -0.3142 -0.1224
15953W        W29367  14.492  15.145  14.327  0.0757 -0.1458 -0.1566
15954W        W29368   5.772   6.606  16.161  0.0430 -0.0330  0.1279
15955W        W29369   0.223   2.495  14.627 -0.1705 -0.0406  0.2229
15956W        W29370  14.922   4.989  10.351  0.4757  0.2104 -0.2792
15957W        W29371   8.462   1.850  13.698  0.1484  0.4369  0.1158
15958W        W29372   9.836   7.606  11.225  0.1462 -0.2103 -0.2052
15959W        W29373  13.167   4.069  12.473  0.0343  0.2584 -0.0203
15960W        W29374   5.828   1.842   2.762  0.0402 -0.0951  0.2677
15961W        W29375   4.819   7.334  12.776  0.2580  0.1291 -0.1129
15962W        W29376  13.856  10.389  10.340 -0.1440  0.2405 -0.3635
15963W        W29377  16.170   4.879   3.483  0.2122 -0.1193  0.0621
15964W        W29378   7.152   6.454   1.452  0.0581  0.0085  0.2843
15965W        W29379   8.287  14.974   5.037 -0.1207  0.2001  0.2647
15966W        W29380  11.088  15.421  12.796 -0.2868  0.1781  0.0164
15967W        W29381   0.351   8.779   6.294 -0.0477  0.1810  0.0576
15968W        W29382   7.752  15.930   6.177 -0.0017 -0.0203 -0.0360
15969W        W29383  16.570   4.008  13.660 -0.2606 -0.1794 -0.1579
15970W        W29384  11.514  14.171   6.090 -0.0357 -0.3861 -0.1962
15971W        W29385   1.042   4.353  15.043 -0.0750  0.2909  0.0353
15972W        W29386   4.339  10.064  14.519  0.1713  0.0286 -0.1174
15973W        W29387   6.327   4.667   3.119  0.1675  0.1546 -0.1079
15974W        W29388   7.523  16.991   2.113 -0.0617 -0.1158  0.0782
15975W        W29389  13.678  12.548   3.927  0.1794 -0.2744  0.0220
15976W        W29390  16.744  16.043  12.158  0.1664  0.1057  0.1493
15977W        W29391  14.951  12.871   5.668  0.0599  0.2073  0.2895
15978W        W29392   2.195   1.978   3.399  0.3410 -0.1068 -0.0290
15979W        W29393   3.304   6.855  11.730  0.1399  0.2812 -0.1157
15980W        W29394  12.757  17.228  15.689  0.1480 -0.2766  0.2141
15981W        W29395  13.025  12.640   2.504 -0.1430 -0.1778 -0.2715
15982W        W29396  12.333   1.681  14.563 -0.0512  0.2438  0.0038
15983W        W29397   8.739  12.878   1.149 -0.0824  0.2731 -0.0269
15984W        W29398   8.274  10.075   3.016 -0.0001 -0.0223 -0.0030
15985W        W29399   9.445  13.127   3.506 -0.0637  0.3633 -0.1127
15986W        W29400   4.921   3.790   0.383  0.1020 -0.1794 -0.1527
15987W        W29401   6.195  18.163  12.986  0.2497  0.0767  0.0226
15988W        W29402   7.485  13.128  14.741 -0.0795  0.3868  0.1644
15989W        W29403   9.954  15.873  15.467 -0.0062  0.0306 -0.1272
15990W        W29404   1.520  16.628  14.907  0.1289  0.1041  0.1216
15991W        W29405   7.237   7.098   4.028  0.1478  0.0247 -0.0001
15992W        W29406   3.118  10.115   1.978 -0.2677  0.1624  0.1003
15993W        W29407  13.273   3.024  15.670  0.1710  0.1372 -0.0547
15994W        W29408  12.811   0.622  12.084 -0.0191 -0.1179  0.0981
15995W        W29409  10.430  13.633  15.037  0.0460 -0.0816 -0.0308
15996W        W29410   5.427   2.600   5.844 -0.2808 -0.2267 -0.1007
15997W        W29411   7.733  12.269   1.293  0.0114  0.2940 -0.0111
15998W        W29412   3.615  14.489  13.691 -0.0404  0.0403  0.0207
15999W        W29413   0.383   9.172   5.863  0.1420 -0.1115 -0.1646
16000W        W29414   4.859  15.103   4.878  0.1011  0.1083 -0.2917
16001W        W29415  18.112  14.494   4.387 -0.0691  0.1784 -0.2775
16002W        W29416   6.236  16.874  13.317  0.2172 -0.0954  0.3342
16003W        W29417   5.203   5.941   1.963 -0.1628  0.1404 -0.1329
16004W        W29418  13.124  11.177   2.203 -0.4676 -0.3315  0.0385
16005W        W29419   8.947  11.357  11.948  0.0379 -0.1044 -0.1681
16006W        W29420  15.163   0.645  13.580 -0.0268  0.2046 -0.0989
16007W        W29421   5.610  15.897  12.723 -0.2766 -0.1494 -0.0710
16008W        W29422   6.947  16.866   4.495  0.1102 -0.1504 -0.0599
16009W        W29423   5.577  10.438   0.781  0.3422  0.3172  0.0352
16010W        W29424  16.243   7.668   2.639  0.0493 -0.0571  0.2238
16011W        W29425   9.647   9.261   2.261  0.3734  0.1465  0.0666
16012W        W29426   6.008   9.300  13.257 -0.0449 -0.1153  0.1989
16013W        W29427   6.754  14.761  12.462  0.1135  0.1095 -0.1623
16014W        W29428   9.116  14.365  14.415  0.0397  0.0741  0.0573
16015W        W29429   0.163  17.564  12.728  0.2359  0.0027 -0.0490
16016W        W29430   9.597  16.672  15.071 -0.2630  0.2616  0.2010
16017W        W29431  11.025  15.631   3.584 -0.0879 -0.3493  0.0116
16018W        W29432   1.887   8.491   3.244 -0.0766  0.1246  0.0812
16019W        W29433   8.507   0.533  11.653  0.1674 -0.0155 -0.1685
16020W        W29434  12.244   2.720  15.097  0.1276 -0.2698  0.0597
16021W        W29435   3.812   4.400  10.977  0.6712 -0.1838 -0.1091
16022W        W29436  16.717   6.658   3.067  0.1155  0.0086 -0.1282
16023W        W29437  18.066   6.689   4.178  0.0291 -0.1165 -0.0756
16024W        W29438   4.771   9.643  15.733  0.1466  0.2894 -0.0963
16025W        W29439   6.815   7.986   1.293  0.1737  0.1309  0.0975
16026W        W29440   9.987  10.156   3.239 -0.2927  0.0266 -0.0786
16027W        W29441   3.323  16.334  10.706  0.0458  0.1590 -0.1597
16028W        W29442  18.188  16.731  14.496  0.0622 -0.0190 -0.0640
16029W        W29443   6.167  17.910   0.855  0.0742  0.3017 -0.0436
16030W        W29444   6.752   5.485   5.832 -0.0161  0.0712 -0.0018
16031W        W29445   1.987  16.733   2.970 -0.0012 -0.2488 -0.1154
16032W        W29446  12.641   9.848   3.764  0.0801  0.0370  0.0085
16033W        W29447  13.068   3.440  15.060 -0.0014  0.0739 -0.2557
16034W        W29448  15.524   3.808  10.226  0.3122  0.1237  0.0614
16035W        W29449  11.629   9.913  13.929  0.2073  0.0369  0.1374
16036W        W29450   1.170   7.304   3.620 -0.3838 -0.1694 -0.3592
16037W        W29451   6.875   6.944  15.089 -0.3515 -0.0062  0.0901
16038W        W29452  16.247   1.004   1.294  0.1080  0.0372  0.1113
16039W        W29453   8.505  11.645   1.076 -0.0367  0.1526  0.0990
16040W        W29454  14.026   8.494   4.086  0.1501 -0.1394 -0.0001
16041W        W29455  12.790   2.943  15.887 -0.0935  0.0437  0.1789
16042W        W29456  16.350  10.086   0.265 -0.0198  0.0198  0.1232
16043W        W29457  10.910   7.223   3.457  0.0324 -0.1483 -0.0498
16044W        W29458  14.667  14.673  16.227  0.0364  0.2730 -0.3473
16045W        W29459  14.509  10.849  15.457  0.1174  0.3051  0.1100
16046W        W29460  11.394   7.825   0.002 -0.1742 -0.3301 -0.0211
16047W        W29461   9.535   9.953   3.257 -0.1286  0.2523  0.1016
16048W        W29462  11.662  17.892  14.233  0.0628 -0.1451  0.4292
16049W        W29463   3.882  15.275  11.715  0.1349  0.1120 -0.3716
16050W        W29464  17.319  10.506  15.405  0.1192  0.2261  0.1431
16051W        W29465  10.148   5.911   5.346 -0.1037  0.0992 -0.1801
16052W        W29466   0.088   8.959  16.232  0.1648 -0.0224  0.1066
16053W        W29467  15.609   3.485  15.287  0.1021  0.1954  0.0083
16054W        W29468   0.715  14.244   3.756  0.0823  0.0554  0.1715
16055W        W29469   9.800   2.736  11.604  0.0567 -0.0517  0.5583
16056W        W29470   6.812   8.607   4.293  0.3651 -0.0919  0.1686
16057W        W29471   4.767   9.228  12.372 -0.0772 -0.3282 -0.4782
16058W        W29472  16.849   5.036   4.983  0.0337  0.1887  0.0638
16059W        W29473  15.180  14.949   3.473 -0.0632  0.1293 -0.0165
16060W        W29474  18.040   2.691   2.270 -0.0250 -0.1134 -0.3003
16061W        W29475   4.219   2.940  12.626 -0.0610 -0.0296 -0.1731
16062W        W29476  13.480   3.947  10.879  0.0264  0.1927  0.0172
16063W        W29477  12.770  11.656   3.444 -0.0868  0.0102 -0.0490
16064W        W29478  15.178   6.129   0.182 -0.1551  0.1943  0.2414
16065W        W29479  12.056  16.230  10.202  0.1528  0.4008  0.3264
16066W        W29480   4.493  15.252  12.315  0.3481  0.3937  0.0641
16067W        W29481   8.871   7.361  11.647 -0.0550  0.0418  0.4884
16068W        W29482   5.411  12.724   1.078 -0.1147  0.0450 -0.0848
16069W        W29483  13.894   4.028   3.475 -0.2601 -0.0460  0.3539
16070W        W29484   5.258   2.131   0.350 -0.2086  0.0955 -0.1234
16071W        W29485   1.728   6.264  11.502  0.0590 -0.1221 -0.2083
16072W        W29486   4.675   9.682  14.542 -0.2267  0.0016 -0.0709
16073W        W29487   9.016  17.198  14.340 -0.2150 -0.0128 -0.1545
16074W        W29488  15.369  12.836  12.439 -0.0585  0.1198 -0.0171
16075W        W29489   9.760   4.316  15.995 -0.0478 -0.0405  0.0528
16076W        W29490   0.630  15.618   2.685  0.4219 -0.1249  0.1281
16077W        W29491  14.910  13.167   4.577  0.1051  0.0364 -0.0685
16078W        W29492   5.562  13.373   1.583  0.3039  0.0289 -0.1008
16079W        W29493   3.132   7.125  15.442  0.0173  0.2471  0.3321
16080W        W29494   8.250  12.928   1.352  0.0483  0.3222  0.3292
16081W        W29495  10.121   0.049  11.700  0.3637 -0.1378  0.0807
16082W        W29496   6.297  13.480   5.533  0.1903 -0.0090  0.2348
16083W        W29497  12.877  17.709   2.787 -0.0604  0.0381  0.1071
16084W        W29498   9.206   5.886  16.146  0.2243 -0.0320  0.0261
16085W        W29499  13.777  15.619   2.351 -0.0748  0.0287  0.0769
16086W        W29500  10.756  16.141   4.599 -0.1915 -0.0367  0.1786
16087W        W29501   2.948  13.756  15.766 -0.0551 -0.1154  0.1525
16088W        W29502  11.793  12.358   4.669 -0.1470 -0.1793  0.0779
16089W        W29503   3.427  12.411  13.879 -0.1663 -0.0772 -0.3081
16090W        W29504  13.773   0.233  12.667 -0.1555  0.2394  0.1161
16091W        W29505  12.563  15.043   2.457  0.1394  0.2419 -0.0101
16092W        W29506  13.876   7.558   5.941  0.1810  0.1956 -0.2732
16093W        W29507  10.703  16.539  11.939 -0.1926  0.1101 -0.2465
16094W        W29508  18.012   6.225  10.190  0.0547  0.2750 -0.0741
16095W        W29509   1.988  16.019   1.827  0.1731  0.3346  0.1109
16096W        W29510   0.774  13.362  15.978 -0.0601  0.1289  0.2314
16097W        W29511  15.644   6.523  14.039 -0.1268  0.1655 -0.0278
16098W        W29512   9.193   0.689  16.253  0.1556  0.3131 -0.1585
16099W        W29513   8.662  15.396   2.639 -0.1201 -0.4899  0.0510
16100W        W29514   2.405  10.279   2.554 -0.1572 -0.5418  0.0130
16101W        W29515   8.834   5.869  15.345 -0.0256  0.2880  0.1180
16102W        W29516  16.750   6.768  16.375  0.1359 -0.0392 -0.0837
16103W        W29517   1.832  12.617   4.192  0.1266  0.0240 -0.1510
16104W        W29518   8.216  17.635   9.820 -0.0168 -0.1843 -0.2891
16105W        W29519  14.214   8.804   1.637 -0.5002  0.0666 -0.0891
16106W        W29520  14.246   8.359   3.709  0.0066  0.2425 -0.1189
16107W        W29521  13.486  10.679  12.406  0.0945 -0.0881  0.0646
16108W        W29522   5.204  15.334   5.522  0.1170  0.1377 -0.1386
16109W        W29523   8.677   3.253  11.329 -0.2380  0.1215  0.0980
16110W        W29524   4.083   1.281   4.388  0.0119 -0.3217 -0.0892
16111W        W29525   3.050  11.008   6.300 -0.4310  0.0758  0.1683
16112W        W29526   5.368  14.403  14.478  0.1000 -0.3533  0.0442
16113W        W29527  10.669  13.022   0.789  0.5255 -0.0515 -0.0230
16114W        W29528   4.972  11.250  12.914  0.2668  0.2231  0.1994
16115W        W29529   4.664  14.585  12.871 -0.1067 -0.0449  0.0078
16116W        W29530   5.117   0.891  13.810 -0.1668  0.3448 -0.1513
16117W        W29531   2.829   3.335  14.169  0.1795 -0.0867  0.0744
16118W        W29532  16.886  16.846  11.002 -0.3140 -0.1230  0.0005
16119W        W29533  17.410  10.710  14.022  0.0993  0.1381 -0.0666
16120W        W29534  13.798   8.863  13.612 -0.0881 -0.1997 -0.2836
16121W        W29535  12.455   2.895   4.978 -0.2362 -0.5041 -0.0278
16122W        W29536   3.703  12.759   1.121  0.1639 -0.2750  0.2335
16123W        W29537   6.793  11.403  12.396  0.0545  0.2009 -0.1812
16124W        W29538  12.572   7.920   3.800  0.0075  0.1704 -0.0553
16125W        W29539  10.812  10.816  14.318 -0.0562 -0.1918  0.0109
16126W        W29540  17.470  11.084   3.128 -0.4148  0.3649  0.3004
16127W        W29541  10.642  14.489   1.307  0.0837 -0.0236 -0.2504
16128W        W29542  10.620  10.445  12.500  0.0316  0.1557  0.0441
16129W        W29543  12.832   5.792  12.882 -0.0348  0.0459 -0.2853
16130W        W29544   4.001   8.829   4.948 -0.0954 -0.0057  0.2873
16131W        W29545  11.737   3.264   0.083 -0.0665  0.0132 -0.2127
16132W        W29546  17.834  12.420   3.560 -0.0720 -0.0027 -0.1513
16133W        W29547  10.297  14.612   0.077 -0.0314 -0.0469 -0.0138
16134W        W29548   2.277   4.998   1.007  0.2468 -0.0393 -0.2106
16135W        W29549  11.981  13.498   0.955  0.3016  0.0910  0.1302
16136W        W29550   0.698  12.091   1.738 -0.1288  0.2449  0.1080
16137W        W29551   7.157   5.997  14.426 -0.3081  0.5331 -0.1386
16138W        W29552   9.689   9.088   3.155  0.4767 -0.0710  0.1846
16139W        W29553   6.271   6.138  12.664 -0.2947 -0.1511  0.1177
16140W        W29554   8.356  15.838  11.753 -0.0512 -0.2767  0.0789
16141W        W29555  12.392   6.411  10.127  0.4397 -0.4217  0.0919
16142W        W29556   0.160   0.881   0.650  0.1580  0.3322 -0.0404
16143W        W29557   7.477   4.825   1.112 -0.0661  0.1405  0.0092
16144W        W29558   5.454  16.688  15.095 -0.2138 -0.1600  0.1429
16145W        W29559   9.044   8.033   5.364  0.0238  0.2412  0.0963
16146W        W29560   1.759  11.639  15.969  0.0718  0.1107 -0.0741
16147W        W29561  11.872   0.224  16.505 -0.2363 -0.1334  0.0003
16148W        W29562   1.807  11.119  12.505  0.0163  0.3182  0.1351
16149W        W29563  10.715   1.401   3.491 -0.0313  0.0198 -0.0495
16150W        W29564   5.270   6.069  10.980 -0.2755  0.2049 -0.0650
16151W        W29565  13.506   4.035   3.167  0.1747  0.3584  0.0084
16152W        W29566   8.713   4.714  13.031 -0.2200  0.0389  0.3898
16153W        W29567   4.311  13.488   2.120 -0.2329 -0.1744 -0.1600
16154W        W29568  10.759  14.136  12.338 -0.2505  0.0693 -0.1501
16155W        W29569  14.385   5.376  12.139 -0.0937  0.4230 -0.1556
16156W        W29570  16.688  11.352  11.661 -0.1503  0.3125  0.1755
16157W        W29571  14.743  10.314  10.984 -0.1703 -0.1062 -0.0216
16158W        W29572  12.546   1.937   4.161  0.2385 -0.0042  0.1815
16159W        W29573   3.006  17.670   5.142 -0.1008  0.0766 -0.0884
16160W        W29574  14.091  18.222  13.010 -0.0061  0.1047  0.1413
16161W        W29575   7.888  16.337   4.057  0.2810  0.1218 -0.0661
16162W        W29576  10.612  11.625  15.015  0.0015  0.0438  0.0065
16163W        W29577   2.505  13.241  15.082 -0.1657 -0.2258  0.0977
16164W        W29578  13.858   1.218   4.678  0.0650  0.3615 -0.1602
16165W        W29579   6.613   5.717  12.429  0.0062  0.0670  0.0645
16166W        W29580   8.271  12.464  11.522 -0.2024 -0.0088 -0.1007
16167W        W29581   0.903   6.226   2.101  0.4178 -0.0296 -0.2037
16168W        W29582  13.482  14.074  12.230  0.0223 -0.0659 -0.0305
16169W        W29583  13.484  16.718  14.872 -0.0108 -0.1925 -0.3715
16170W        W29584  10.173   0.385  15.265 -0.0989 -0.0062 -0.1060
16171W        W29585  12.472  14.927  16.274  0.2961 -0.2228  0.0397
16172W        W29586   7.911   9.159  14.892 -0.3704  0.0764 -0.4594
16173W        W29587  13.871  15.250  12.161 -0.1736  0.1619  0.3700
16174W        W29588  10.519   5.200   3.530 -0.1756 -0.1471 -0.0935
16175W        W29589  18.036  11.549  12.640  0.1423 -0.1035  0.0217
16176W        W29590   7.566   9.880  14.301  0.0148 -0.0979 -0.2184
16177W        W29591   8.897  14.688  15.218 -0.2553 -0.2239  0.2226
16178W        W29592   1.792  14.216  11.690  0.0557  0.1875 -0.0317
16179W        W29593   8.263   4.470   1.921 -0.2984  0.0102 -0.0218
16180W        W29594   8.022  15.915   1.118  0.2726  0.0628 -0.0666
16181W        W29595  14.340   8.546   4.537 -0.1259  0.0595 -0.2244
16182W        W29596  13.383   1.822  13.705 -0.0783 -0.2511 -0.0557
16183W        W29597  16.313   8.099   1.285  0.0237 -0.2596  0.0375
16184W        W29598   9.142   9.689  13.274  0.1709 -0.3042  0.0368
16185W        W29599  15.518  15.326   4.880 -0.0636  0.0307 -0.3432
16186W        W29600   3.543  16.591  16.063  0.0114 -0.3144 -0.0375
16187W        W29601   3.191  11.854  12.736 -0.1757 -0.0253  0.3127
16188W        W29602  15.267   6.795   1.190 -0.2781  0.0165  0.0761
16189W        W29603  15.327   0.444   0.480  0.3008  0.1736  0.3341
16190W        W29604   5.702  11.964  13.526 -0.0856  0.2633 -0.1560
16191W        W29605  14.620  15.084  12.210  0.2975 -0.0200 -0.1026
16192W        W29606  12.126  16.941  14.381 -0.2076 -0.3902 -0.2839
16193W        W29607  15.838   0.183  16.097 -0.0821  0.0267 -0.0934
16194W        W29608   4.727  11.004  13.590  0.0618  0.1118 -0.0580
16195W        W29609  17.574   2.522  15.004 -0.0022 -0.0439  0.1810
16196W        W29610  15.487  13.338   2.656  0.1373  0.4409 -0.1639
16197W        W29611   4.100   4.545  12.647  0.1421  0.1427  0.0990
16198W        W29612   6.224   4.859   1.854 -0.0530  0.1390 -0.2650
16199W        W29613   9.697   4.767  15.734 -0.2076  0.3835  0.4371
16200W        W29614  15.850   9.333  13.802  0.0634  0.0971  0.1419
16201W        W29615  16.963   1.439  16.294 -0.0929  0.0113 -0.2456
16202W        W29616   3.374  16.545   5.551 -0.2744 -0.0151 -0.2869
16203W        W29617  12.532   7.106  13.292 -0.1668 -0.1962 -0.0609
16204W        W29618  12.601   2.928  14.864  0.1010  0.2744  0.1473
16205W        W29619   2.849   3.919  14.241 -0.1459  0.0264  0.0552
16206W        W29620  17.301   2.636   3.538  0.2522 -0.0305 -0.2550
16207W        W29621  12.139   0.130  11.867  0.0318 -0.1238 -0.2388
16208W        W29622   6.631  10.008   4.467  0.0716 -0.3278 -0.0172
16209W        W29623   3.205  17.252   2.982 -0.2445 -0.0857  0.0643
16210W        W29624   6.165  13.683  11.192  0.0196 -0.2547  0.0543
16211W        W29625   3.493  15.764  13.040 -0.1575 -0.1539  0.0114
16212W        W29626  14.174   3.256  11.433  0.2063  0.1185 -0.0352
16213W        W29627   5.916  16.808   1.469  0.1726 -0.1818 -0.3390
16214W        W29628   7.927   3.135  13.169  0.0512  0.1008 -0.0684
16215W        W29629   1.660  10.326  15.561  0.0771  0.0590  0.2991
16216W        W29630  16.506   7.960   1.761 -0.1852 -0.0878  0.0067
16217W        W29631  11.825   9.710  13.461 -0.2450 -0.2000  0.0668
16218W        W29632   6.433   3.502   5.986 -0.1907  0.3029 -0.4057
16219W        W29633  10.849   1.503  12.142 -0.1783  0.2136 -0.0353
16220W        W29634   1.077  13.875   4.668  0.0008 -0.3436 -0.0612
16221W        W29635  16.401   6.879  14.564 -0.0119 -0.1016  0.3237
16222W        W29636   1.049   2.098   2.126 -0.0690  0.0237  0.1011
16223W        W29637   4.327  11.720  11.500 -0.2386  0.1248 -0.2891
16224W        W29638   5.744   8.057   4.285 -0.1482  0.2266  0.1890
16225W        W29639  12.664   8.766  16.333  0.0468  0.1106  0.0147
16226W        W29640   1.672  16.145  11.544  0.0098  0.0620 -0.0725
16227W        W29641   1.207   7.053  14.063 -0.4436  0.1756 -0.0994
16228W        W29642   5.897   5.516   5.372 -0.0843 -0.0275  0.0660
16229W        W29643  15.884  12.080   2.334  0.1124 -0.1048  0.1053
16230W        W29644   8.859  14.639   2.253  0.0704 -0.1869 -0.1507
16231W        W29645   1.878   5.500  12.979  0.2706 -0.1143 -0.0406
16232W        W29646  11.118  13.869   4.870 -0.1610 -0.0544  0.2117
16233W        W29647   6.550  15.516   2.708 -0.2359  0.0867 -0.3222
16234W        W29648  15.023   6.852   4.296 -0.1152  0.2691  0.0122
16235W        W29649   2.406   8.841  14.666  0.3057 -0.0915 -0.0649
16236W        W29650  15.749  10.904  12.842 -0.0722  0.1904 -0.0472
16237W        W29651   5.495  16.301   9.609  0.2121 -0.0830  0.0706
16238W        W29652  12.602  11.979  14.785  0.4020  0.2393 -0.2300
16239W        W29653   8.680   7.545  13.405  0.0272 -0.1723 -0.0384
16240W        W29654  18.169  13.026  10.517  0.2267 -0.0667 -0.0969
16241W        W29655   9.955  14.864  15.129 -0.0026 -0.1034 -0.1028
16242W        W29656   6.079   8.028   3.892 -0.1016  0.2332  0.0943
16243W        W29657  11.158  14.393   5.094  0.1134  0.0903 -0.1613
16244W        W29658   8.096  14.574   4.735  0.0775  0.1810 -0.0829
16245W        W29659   0.608   7.320   0.979 -0.1150  0.1591 -0.3628
16246W        W29660   9.653   7.990  10.413  0.1906 -0.1532  0.2425
16247W        W29661   8.461  14.911  15.536  0.2107  0.2809 -0.1620
16248W        W29662  17.179  11.634  13.211  0.0414  0.1773  0.0438
16249W        W29663   8.699   2.444  10.324  0.0245  0.2117 -0.0331
16250W        W29664   5.285  14.482   0.941  0.0941 -0.2187 -0.1346
16251W        W29665  16.055   0.001  12.889  0.0074  0.1491  0.2336
16252W        W29666   1.641   9.193   3.560  0.3081 -0.1528  0.0424
16253W        W29667  11.509   8.133  15.278 -0.3234 -0.0110 -0.1321
16254W        W29668  11.988   1.668  14.168  0.3372 -0.0909 -0.1788
16255W        W29669   6.161  10.781   2.176  0.1921  0.1458  0.1936
16256W        W29670   3.408  12.049   6.352  0.2008  0.0057 -0.1792
16257W        W29671  15.866  16.379  10.140  0.1634  0.6038  0.2531
16258W        W29672   1.960   0.999  14.925 -0.0621 -0.2680 -0.2951
16259W        W29673  17.643  11.138  11.397  0.3038 -0.4352 -0.3241
16260W        W29674  18.129  14.998   4.405 -0.3228  0.2875 -0.3211
16261W        W29675  14.480  13.905   1.597  0.0082  0.1550 -0.0153
16262W        W29676   0.093  16.404   4.446  0.1532  0.0844  0.0167
16263W        W29677   9.063  16.894   1.404  0.2672  0.0851  0.0253
16264W        W29678  14.523  10.532   6.014 -0.0919  0.2311 -0.0263
16265W        W29679   5.576   4.577   4.947  0.3180  0.1513 -0.0730
16266W        W29680   5.616   8.062  11.263  0.0843 -0.0862 -0.0130
16267W        W29681  16.583   0.531   5.049  0.0633 -0.4805  0.0620
16268W        W29682  14.405   2.082  15.142  0.0827 -0.1403 -0.0273
16269W        W29683  16.660   0.462   4.261  0.2216 -0.2363 -0.0146
16270W        W29684   6.130   8.155  11.902  0.0242 -0.1584  0.2164
16271W        W29685   4.933  14.067   2.479  0.0658 -0.0797  0.1631
16272W        W29686  17.197  15.932   3.527 -0.1011 -0.0087 -0.0066
16273W        W29687   0.645  12.310   3.040 -0.1502 -0.0753  0.1140
16274W        W29688  14.054  11.218   5.272  0.0218  0.1999  0.0586
16275W        W29689   7.558   1.651   1.391 -0.1090  0.3681 -0.0793
16276W        W29690   2.021   7.804  14.354  0.1350  0.0783 -0.0604
16277W        W29691   5.412  13.594   1.987 -0.2622 -0.0158  0.0239
16278W        W29692   8.472   3.888  11.985  0.0740  0.1447 -0.2707
16279W        W29693  15.150  11.684   2.376 -0.3480 -0.2821  0.1895
16280W        W29694  17.240  13.194  13.947 -0.1186  0.1876  0.0195
16281W        W29695  12.811   5.564  13.949  0.1631 -0.1434  0.1360
16282W        W29696   7.805   7.295  13.165 -0.0160 -0.2623 -0.1768
16283W        W29697   0.855   0.653  10.797  0.0246  0.1147  0.1710
16284W        W29698   6.936   3.936  11.887  0.2324 -0.1237  0.1148
16285W        W29699  13.371   7.942  11.883 -0.3159 -0.1505 -0.2153
16286W        W29700   2.582   6.706  15.932  0.0677  0.2313 -0.1008
16287W        W29701   1.661   3.406  15.671 -0.0252  0.3497  0.2727
16288W        W29702  12.236   9.458  13.655  0.0758  0.0352 -0.1514
16289W        W29703   8.379   2.088   0.828  0.0324  0.0314 -0.1734
16290W        W29704   2.957   3.027   1.554 -0.0876  0.3110  0.4087
16291W        W29705  10.387  14.022  13.766  0.1364  0.1105 -0.2358
16292W        W29706   7.660   9.898  14.794  0.2080  0.0331 -0.0994
16293W        W29707   8.655   4.231   2.146  0.1149 -0.0387 -0.0076
16294W        W29708   2.711   7.588   5.937  0.0123  0.1162 -0.0478
16295W        W29709   8.775   3.751  12.422  0.1954  0.1054  0.2168
16296W        W29710   6.189  15.034   9.772 -0.1540  0.0373 -0.2983
16297W        W29711   0.084  15.101  11.953  0.1597 -0.1494  0.0502
16298W        W29712  12.186  13.591  11.307  0.2210  0.2414 -0.2761
16299W        W29713   5.863  11.825   3.889  0.1585 -0.0727 -0.1234
16300W        W29714  13.527  17.840  13.287  0.0124 -0.0484 -0.2083
16301W        W29715   3.462   7.719  16.321  0.0317  0.1248 -0.0810
16302W        W29716  10.350   4.292   3.604 -0.1577 -0.1486 -0.2829
16303W        W29717  15.033  16.508   4.420  0.0172 -0.0669 -0.0584
16304W        W29718  15.759   5.109   2.388 -0.2614 -0.0881 -0.1243
16305W        W29719  12.401   1.327   4.694  0.1076 -0.2376 -0.0757
16306W        W29720  13.501  10.448  14.004 -0.1994  0.1173 -0.2049
16307W        W29721  16.660  11.445  12.993  0.0841 -0.0346 -0.0784
16308W        W29722  11.156  10.085  12.493  0.3888 -0.0229 -0.0516
16309W        W29723   5.638   5.548  16.368  0.1256  0.0185  0.0437
16310W        W29724   0.743  10.890   5.468 -0.2196  0.1806 -0.1264
16311W        W29725  18.183   9.851  13.513 -0.0713  0.0348 -0.0694
16312W        W29726  16.237  13.900  13.313 -0.1136 -0.2003 -0.0287
16313W        W29727  11.722  17.399  16.110  0.3335 -0.2052 -0.1131
16314W        W29728   8.860  12.268  12.634  0.1477 -0.1698  0.1546
16315W        W29729   1.501  12.827   1.532  0.0970 -0.3055 -0.2025
16316W        W29730  14.669  12.777  15.919  0.1509 -0.0029  0.0505
16317W        W29731  15.629  17.231  12.035 -0.1565 -0.1365  0.0403
16318W        W29732   1.151   2.935   1.987 -0.1064  0.0165  0.0584
16319W        W29733  12.989   7.684  12.472 -0.0607 -0.0070 -0.1045
16320W        W29734   4.051   0.048   0.096  0.0866 -0.0560  0.1211
16321W        W29735   6.234  16.483   1.724  0.2411  0.1621 -0.1291
16322W        W29736  14.356   6.283  13.303  0.0594  0.4190 -0.1858
16323W        W29737   5.160  17.438   1.541 -0.4740 -0.0738  0.1566
16324W        W29738   9.119   2.434   3.934 -0.2962 -0.0460  0.0815
16325W        W29739   1.711   0.193  16.239 -0.1116 -0.3978  0.0167
16326W        W29740   0.506  14.821  12.143 -0.1933  0.1858 -0.0862
16327W        W29741  13.626   1.043   5.047  0.0553  0.0328  0.2542
16328W        W29742   5.244   9.361  13.201 -0.0199  0.1484  0.2231
16329W        W29743   7.080   7.662   2.361 -0.1303  0.0483  0.0739
16330W        W29744  10.365  15.947   2.431  0.0592 -0.1177 -0.0454
16331W        W29745  10.493   0.196   4.483  0.0348 -0.2682 -0.0074
16332W        W29746   5.601  12.775  13.107 -0.1252  0.3629  0.0583
16333W        W29747  11.426  13.865  16.509  0.0590 -0.1419  0.0238
16334W        W29748  17.796  15.779   6.055 -0.2046  0.0524  0.0395
16335W        W29749  18.213  15.473   5.123 -0.1249 -0.3486 -0.0111
16336W        W29750  13.550  16.238  14.609  0.1974 -0.1059  0.0032
16337W        W29751   1.769  14.271   3.621 -0.0747 -0.3400 -0.0456
16338W        W29752   9.847   7.257  15.869 -0.0813 -0.0270 -0.0859
16339W        W29753   7.730  10.625  15.676  0.1560  0.0215 -0.1600
16340W        W29754  13.639   1.274  12.338 -0.0217  0.2016  0.0500
16341W        W29755   9.670   6.593   3.621 -0.0298  0.2249 -0.2413
16342W        W29756   0.319   2.205  15.014  0.1506 -0.0537 -0.1226
16343W        W29757   4.885   8.527  11.888 -0.1494  0.1986  0.0796
16344W        W29758  10.858   8.123   2.454  0.1627  0.2199  0.2693
16345W        W29759  12.638   2.377   1.903 -0.0077 -0.0376 -0.1648
16346W        W29760   2.343   1.515  14.250 -0.0258 -0.2045 -0.2714
16347W        W29761  10.274  17.179   2.085  0.3554  0.1313 -0.1636
16348W        W29762   8.989   3.769   1.971  0.1565 -0.2920 -0.1528
16349W        W29763   1.178   1.557  13.413 -0.0491  0.2000 -0.2954
16350W        W29764   0.349   3.401   2.137  0.1393 -0.1951 -0.1907
16351W        W29765   5.986  12.623  15.882  0.2525 -0.3893  0.1384
16352W        W29766   8.931   5.587  10.120  0.0504 -0.0913 -0.1251
16353W        W29767   0.881   7.677   3.193  0.0143 -0.2382  0.0431
16354W        W29768   6.203  12.258   1.163 -0.3990 -0.1932  0.1537
16355W        W29769  14.923  11.962   1.443  0.0037  0.0936  0.0188
16356W        W29770  14.882   6.607   5.037  0.3316  0.1199  0.2404
16357W        W29771  14.547  11.651  16.400 -0.2511 -0.2986  0.2384
16358W        W29772   6.942   0.506   5.586 -0.1114  0.1378 -0.1650
16359W        W29773  12.379  17.873   3.573 -0.2063 -0.0568 -0.3954
16360W        W29774  16.664  10.013  12.568  0.4645 -0.2082 -0.3584
16361W        W29775  10.361   6.268   1.065  0.4212 -0.1181  0.0178
16362W        W29776  15.315   1.007   3.262 -0.0093  0.4367 -0.2834
16363W        W29777   0.305  12.956  12.886 -0.3146  0.0453 -0.2705
16364W        W29778  18.147   3.992  13.428 -0.2572  0.0760  0.0310
16365W        W29779  10.310  10.449  14.578 -0.1600  0.1037  0.3601
16366W        W29780   2.725   3.512   4.565 -0.0462  0.1555  0.1845
16367W        W29781  15.982  14.161   2.852  0.4563  0.1154  0.4419
16368W        W29782  11.045  12.359   3.087 -0.0461 -0.1560 -0.2710
16369W        W29783   0.861   3.745  14.299 -0.0665 -0.3867 -0.0918
16370W        W29784   9.255   2.827  11.512  0.0979 -0.1323 -0.1891
16371W        W29785  13.134  15.677  15.215 -0.2037 -0.1981  0.1827
16372W        W29786   5.818   5.806  11.089  0.3174  0.1754  0.1088
16373W        W29787  15.272   1.736   3.651  0.0164  0.1733  0.0357
16374W        W29788  13.518   5.045  12.508  0.0215  0.0334  0.0824
16375W        W29789  12.230   6.031  10.942 -0.2460 -0.1917  0.1356
16376W        W29790  18.070  14.890   0.133 -0.0949  0.2971 -0.0409
16377W        W29791   8.006  17.613  10.299  0.0028 -0.3062  0.0260
16378W        W29792  16.010  16.093  15.545  0.0168 -0.1403  0.1203
16379W        W29793   1.886  12.671   5.030  0.5802  0.0760 -0.1986
16380W        W29794  12.705   4.151   2.906 -0.1227 -0.3571 -0.1594
16381W        W29795   6.747  14.786  15.710 -0.1228  0.0172 -0.2631
16382W        W29796  15.287   7.826  15.095 -0.0835  0.3961  0.1183
16383W        W29797  17.111   3.116   5.108  0.0523  0.4205 -0.2309
16384W        W29798  17.401   0.241  11.729 -0.3338  0.1281  0.2780
16385W        W29799   5.450   4.016  12.804  0.1696 -0.2073 -0.2761
16386W        W29800  14.884   0.216   1.508 -0.1727 -0.1036  0.3253
16387W        W29801   5.609   0.211  15.306 -0.1065 -0.1344  0.0904
16388W        W29802   5.082   2.947  13.100 -0.3827 -0.1146 -0.0155
16389W        W29803   9.455   6.194   0.511 -0.0292 -0.3353  0.3585
16390W        W29804   7.786   5.359  15.708  0.1218 -0.1490 -0.1002
16391W        W29805  12.341   1.425  10.560 -0.0236 -0.1487 -0.0840
16392W        W29806  10.088   9.421  12.310 -0.0613 -0.1087  0.0046
16393W        W29807  15.312   8.124  12.817 -0.2555  0.0891  0.1009
16394W        W29808   3.175   5.199   2.088 -0.1995 -0.1120 -0.1799
16395W        W29809  16.970  11.833   1.432 -0.1812 -0.2963  0.0371
16396W        W29810   4.595  18.085  11.876 -0.2798  0.1252  0.0880
16397W        W29811   1.922  17.845   2.961 -0.0260 -0.0891 -0.0664
16398W        W29812  10.811  16.820  16.454 -0.0169  0.3553 -0.0010
16399W        W29813   9.104  10.368  13.943 -0.1172 -0.0386  0.2448
16400W        W29814   2.491   4.127  12.138 -0.0206 -0.2030 -0.0920
16401W        W29815  14.207   1.810   9.543 -0.0233  0.0971 -0.0617
16402W        W29816  16.603  14.946   3.737 -0.0406 -0.1198 -0.0995
16403W        W29817   1.317  10.786   1.026 -0.0494 -0.1170 -0.3542
16404W        W29818   4.299   7.384   4.573 -0.2610  0.0385  0.1051
16405W        W29819  14.087   8.179   5.406  0.0606 -0.1557  0.3405
16406W        W29820  15.208  11.408   0.724  0.3069  0.0186  0.0566
16407W        W29821   0.871   1.031  15.550 -0.0922 -0.0460 -0.0016
16408W        W29822  17.929   1.422   1.965  0.1673 -0.1820  0.2102
16409W        W29823  16.748  15.541  12.313  0.0005 -0.2151  0.0840
16410W        W29824  11.403   2.641  15.537 -0.0328 -0.0702  0.1897
16411W        W29825  15.280   2.600  13.739  0.1251 -0.3257  0.2470
16412W        W29826   5.490   2.586   3.632 -0.2940 -0.2070  0.2829
16413W        W29827   1.199  16.386  15.614 -0.0407 -0.1433  0.1126
16414W        W29828  15.764  15.459  12.417 -0.0414 -0.0915 -0.0397
16415W        W29829   9.164   4.312   4.931 -0.0554  0.0947 -0.0143
16416W        W29830  10.220   1.406  11.443 -0.2983 -0.1952 -0.0934
16417W        W29831   3.208   3.590  13.830  0.0034  0.1977  0.0606
16418W        W29832   6.037   9.684  11.075 -0.0102  0.0089 -0.5378
16419W        W29833   5.929  14.666   1.932  0.3370  0.1534 -0.2365
16420W        W29834   0.425   1.163  12.672 -0.0600  0.1650 -0.2721
16421W        W29835  11.817   9.316   4.870 -0.0511  0.1830 -0.1727
16422W        W29836  11.384   8.394  16.261  0.0216 -0.2048  0.0767
16423W        W29837   4.280  12.938   5.988  0.1869 -0.0155 -0.0540
16424W        W29838   5.636   4.079   0.890  0.0282  0.0064  0.0825
16425W        W29839  16.655   4.911   3.944  0.0827 -0.1868 -0.1435
16426W        W29840  14.914   4.912  14.313 -0.0058  0.3231  0.2922
16427W        W29841  12.216  17.201  10.021 -0.2380 -0.0955 -0.0060
16428W        W29842   9.289  10.658  12.504 -0.0199 -0.2961  0.0523
16429W        W29843  13.659   6.517  15.963 -0.0369  0.3732 -0.0866
16430W        W29844  17.537   5.088   0.196 -0.1291 -0.1984 -0.1515
16431W        W29845  15.841  13.532  11.073  0.0269  0.1843 -0.1366
16432W        W29846  11.824  14.166  16.148 -0.1565 -0.0383 -0.1390
16433W        W29847  14.346   4.993   5.272  0.0709  0.0169  0.2352
16434W        W29848   1.373   5.637   5.637 -0.0682 -0.1924  0.3153
16435W        W29849  14.336   4.662  12.612 -0.3341  0.0026 -0.0777
16436W        W29850  14.438  15.245  10.312 -0.1330 -0.0501 -0.0339
16437W        W29851   0.712   9.762   6.070 -0.0187 -0.1916  0.0654
16438W        W29852  15.325  14.290   2.790  0.4031 -0.3388  0.1394
16439W        W29853   5.795  17.184   5.513 -0.1387 -0.1416  0.2098
16440W        W29854   8.715   1.627  11.778  0.0203 -0.0515 -0.1554
16441W        W29855   4.151   7.499   1.544 -0.5046 -0.0528  0.0574
16442W        W29856   2.339   9.951  10.878  0.4517  0.2855  0.0196
16443W        W29857   1.632   3.702  14.131  0.1653 -0.1250  0.0445
16444W        W29858   3.452   2.735   6.340 -0.0345 -0.4038  0.2008
16445W        W29859   0.127  16.098  10.347 -0.1652  0.0764  0.0783
16446W        W29860  10.345   0.308  16.371 -0.0001  0.0615  0.1725
16447W        W29861   3.659   9.368  11.329 -0.0445 -0.1874  0.0232
16448W        W29862  10.611   1.117  10.498 -0.3375  0.1443  0.3710
16449W        W29863   4.153  11.086  12.824 -0.3318 -0.1867  0.2033
16450W        W29864   5.700  17.086  14.139  0.0189  0.1100  0.0612
16451W        W29865   2.045   3.725  16.154 -0.0897 -0.2236  0.0247
16452W        W29866   0.496  12.045  13.185  0.1437 -0.1576  0.0295
16453W        W29867   3.668  17.430   2.054  0.2284 -0.1099  0.1639
16454W        W29868   4.073  16.266   3.404  0.1628  0.2119  0.1894
16455W        W29869   2.444   0.331   3.340  0.1909  0.1698  0.1371
16456W        W29870   7.681  10.872  11.283  0.1981 -0.0148 -0.0544
16457W        W29871  13.047  11.709  13.163 -0.2317  0.2759  0.1553
16458W        W29872  15.845   4.607   2.220  0.1356  0.1164 -0.2323
16459W        W29873   6.582  10.579   4.993  0.1193  0.0562  0.0758
16460W        W29874  18.066   9.088  15.222 -0.0811  0.1835  0.2907
16461W        W29875   1.791   7.437  13.698  0.0916  0.2244 -0.1327
16462W        W29876   6.731   6.378  14.429  0.0338  0.0990  0.0465
16463W        W29877   8.051   6.768  13.813  0.0172  0.0118  0.1823
16464W        W29878  13.998  10.132  14.023  0.1026 -0.3269 -0.0817
16465W        W29879  16.287   3.213  16.314 -0.2262  0.0077  0.3312
16466W        W29880   8.233   9.620   1.125  0.0579 -0.0565 -0.0084
16467W        W29881   7.010   7.046  12.664 -0.2797  0.0796 -0.1406
16468W        W29882  13.269  14.168  14.804  0.1098  0.1670 -0.0153
16469W        W29883   6.996   7.629   4.350 -0.0156  0.2153 -0.1261
16470W        W29884  17.542   0.705  16.444  0.2134  0.1283  0.2601
16471W        W29885  13.934   3.725  14.193  0.1391 -0.1205 -0.0466
16472W        W29886   1.144   0.017   5.295  0.0988 -0.0438 -0.0297
16473W        W29887   7.636  15.148   3.381 -0.0199 -0.3013 -0.1407
16474W        W29888   8.163   7.535  16.310 -0.0313 -0.3016 -0.0853
16475W        W29889   0.263   9.839   5.103  0.1083  0.0136 -0.0772
16476W        W29890  11.913   9.895   2.752  0.2000  0.0486  0.2462
16477W        W29891   4.074  15.028   1.956 -0.0117  0.2559  0.0556
16478W        W29892  13.611  13.492   0.002  0.1481  0.1420 -0.2788
16479W        W29893  18.002   6.401  16.079 -0.2709 -0.1150  0.1626
16480W        W29894  13.151  14.903  11.929 -0.0925  0.1117  0.1879
16481W        W29895  12.437   6.776   0.566 -0.0982  0.3645 -0.3712
16482W        W29896   2.199  12.245   3.101  0.0723 -0.2039 -0.1279
16483W        W29897  13.144   0.514  13.408 -0.1764 -0.3450  0.0174
16484W        W29898   5.099  14.669  16.073 -0.0474  0.1099 -0.3573
16485W        W29899  11.624   7.641  13.756 -0.1323 -0.0829 -0.0485
16486W        W29900   6.221  17.387  13.379 -0.1731 -0.0526 -0.1825
16487W        W29901   8.457  16.093  13.912 -0.0073 -0.2251  0.0510
16488W        W29902   4.950  15.895  13.387 -0.0193 -0.1749 -0.0050
16489W        W29903   5.756  12.979  16.339  0.2331  0.1250 -0.1741
16490W        W29904   9.647   4.760  13.129 -0.1397 -0.3514 -0.0413
16491W        W29905  15.682   9.368   3.485 -0.1583  0.0804  0.1184
16492W        W29906   3.069   3.345  15.785  0.3237  0.0117 -0.1915
16493W        W29907   1.129  12.791  15.705  0.0106  0.1192  0.0528
16494W        W29908   7.095  13.456  12.188 -0.2689  0.2593 -0.0373
16495W        W29909   9.649   3.510  10.393 -0.2339  0.0362  0.3963
16496W        W29910   3.536   9.031   5.200  0.2283 -0.1343 -0.3480
16497W        W29911  15.172  14.046   3.799 -0.0692  0.2831 -0.2599
16498W        W29912   6.347  12.043  12.784  0.2812 -0.0245 -0.0807
16499W        W29913   8.514   5.348   0.067  0.1505  0.0648 -0.0819
16500W        W29914  15.241  11.765  14.702  0.0939  0.0249  0.0559
16501W        W29915   9.164   0.460   4.721  0.1693  0.2137 -0.0574
16502W        W29916  17.825   9.237  14.197 -0.0164  0.1412  0.1298
16503W        W29917  12.439  13.460   1.599  0.0150  0.1191 -0.0891
16504W        W29918  13.081   9.199   3.014  0.5193 -0.1453  0.0095
16505W        W29919   4.450  15.502   5.885 -0.2778  0.0750  0.1019
16506W        W29920   7.691  14.198  13.720 -0.1113  0.0876  0.0374
16507W        W29921   2.058  11.716   5.315 -0.1120 -0.1519  0.0426
16508W        W29922  11.576   5.054  14.794 -0.2733  0.3146  0.3942
16509W        W29923  14.608  13.584  10.724  0.1049 -0.2616 -0.0929
16510W        W29924  14.641   0.860  15.543  0.2266 -0.0173  0.2091
16511W        W29925   2.229  14.274  14.712 -0.0283 -0.0430  0.2592
16512W        W29926   5.416   3.556  14.231 -0.0605 -0.2390 -0.1058
16513W        W29927  16.349  14.029   0.342  0.4121 -0.2849  0.1151
16514W        W29928   9.291  12.232  11.890 -0.0814 -0.3705 -0.2052
16515W        W29929  12.168   1.623  11.467  0.1600  0.2303 -0.1383
16516W        W29930  10.368   8.573   3.929 -0.0974  0.2672 -0.3295
16517W        W29931  10.888  11.242   1.165 -0.2259 -0.0965 -0.1929
16518W        W29932  12.913   2.841   2.859  0.0995  0.3290  0.2238
16519W        W29933   7.185  11.749  16.298 -0.1355  0.1985  0.0823
16520W        W29934   8.008  12.226  11.158  0.0197 -0.0189  0.2444
16521W        W29935  13.990   2.595  16.521  0.2749 -0.1616  0.1136
16522W        W29936   9.300  15.599   4.238 -0.2704  0.1781 -0.2930
16523W        W29937  12.910  16.635  12.168 -0.0825  0.3810 -0.2946
16524W        W29938  14.072   8.914  12.454 -0.4023  0.0551 -0.0127
16525W        W29939   2.391  14.726  14.420  0.0901  0.0103  0.1251
16526W        W29940  13.357   2.315   5.369 -0.1652 -0.1497 -0.0210
16527W        W29941   3.653   9.370  15.577  0.0377  0.0845  0.1866
16528W        W29942  14.871   3.832  12.146  0.1402 -0.1634  0.1231
16529W        W29943   0.284  17.506  14.598  0.1403 -0.1654 -0.0636
16530W        W29944  13.859  12.206  14.617 -0.0625 -0.2148  0.1821
16531W        W29945   9.392  14.469   6.068 -0.0606  0.0249  0.2023
16532W        W29946  16.260  12.582   0.136 -0.1663  0.1596 -0.1272
16533W        W29947   6.479   5.135  12.550 -0.0052  0.3391  0.1556
16534W        W29948   8.027  17.319   3.802  0.2147  0.2877 -0.0812
16535W        W29949  17.787  10.878  15.630  0.0809  0.0280  0.3081
16536W        W29950   5.807   0.450   2.985 -0.3426  0.1104  0.1674
16537W        W29951  13.350   7.485   0.034  0.1393  0.0762 -0.1712
16538W        W29952  15.329  17.599   2.166 -0.2568  0.0351 -0.1057
16539W        W29953   0.005   4.680  11.127 -0.1917  0.0548  0.0366
16540W        W29954   7.314  16.791   0.161 -0.0504  0.1826  0.3743
16541W        W29955  13.440   2.853   3.630  0.3305  0.1988 -0.1197
16542W        W29956  11.931  17.409  12.763 -0.0087 -0.0640  0.2160
16543W        W29957  17.893   5.877   4.913 -0.2157  0.1504 -0.4532
16544W        W29958   7.252   5.556   4.326  0.1606 -0.0300  0.0559
16545W        W29959  15.113  15.345   0.183  0.2694 -0.0520  0.0261
16546W        W29960   8.751  11.428  16.086 -0.0359  0.1608  0.1923
16547W        W29961   5.597  13.673   1.184  0.1842 -0.0768 -0.2503
16548W        W29962   7.804  16.057  10.464  0.2733  0.2238  0.0450
16549W        W29963  13.367  13.281  11.701 -0.0019 -0.1514  0.1173
16550W        W29964   6.841  14.321  11.748  0.1878  0.3595  0.1614
16551W        W29965   9.136  13.185   1.396 -0.1734 -0.3061 -0.1510
16552W        W29966  11.747   3.954  11.427  0.0709 -0.0473  0.1922
16553W        W29967   2.267   4.847  13.630 -0.0526  0.0876  0.3612
16554W        W29968   0.266   5.268  11.131  0.2158 -0.1978 -0.1531
16555W        W29969  11.164   8.043  16.004  0.0374  0.0435  0.0035
16556W        W29970  11.625  15.711   4.496 -0.0370  0.2265  0.1789
16557W        W29971   6.910  10.277   4.817 -0.1438  0.0089 -0.2026
16558W        W29972  13.054  11.014  14.417 -0.3989 -0.1147 -0.0890
16559W        W29973  10.210   0.849  12.266 -0.1235  0.2513  0.0962
16560W        W29974   2.128   8.450   4.799  0.1667  0.3126  0.2376
16561W        W29975   0.693  15.754  13.063  0.0169 -0.0566  0.1866
16562W        W29976  15.985   5.502   4.304 -0.0656 -0.3645  0.0199
16563W        W29977   1.122   2.588   0.222 -0.1693 -0.0280 -0.0836
16564W        W29978  10.386  15.837  15.078 -0.2467 -0.1067  0.0453
16565W        W29979  11.263   4.887  11.185  0.0757 -0.1509  0.1038
16566W        W29980  12.866   8.623   1.146  0.0247  0.0736  0.0333
16567W        W29981   9.536  15.354   3.342 -0.0965 -0.0819  0.1304
16568W        W29982   7.217  16.703   3.221  0.0464  0.2120  0.1637
16569W        W29983  12.341   5.149  15.834 -0.1885 -0.5808 -0.0161
16570W        W29984   6.262   2.226  12.205  0.3111  0.3457  0.3222
16571W        W29985  16.083  14.743   4.899  0.2161  0.0444 -0.0495
16572W        W29986  14.404   9.337   0.971  0.1248  0.2862  0.0593
16573W        W29987   4.781  15.711  15.436  0.1437 -0.1678  0.3813
16574W        W29988   8.918  13.821   2.857  0.0879 -0.0815  0.1576
16575W        W29989   5.373  10.559   3.550  0.2746 -0.0002 -0.1905
16576W        W29990  18.087   6.183   5.261 -0.5060 -0.0711 -0.2088
16577W        W29991   4.146   2.958   4.576 -0.1862 -0.2110 -0.4362
16578W        W29992   1.564  12.033  16.272  0.0957 -0.1079 -0.2077
16579W        W29993   9.510   7.523  14.763 -0.0221  0.0288  0.1139
16580W        W29994   4.119   4.935   3.083 -0.0961 -0.0801  0.1525
16581W        W29995   5.990  14.553   5.445 -0.2713 -0.0106  0.0521
16582W        W29996   2.377  10.608   1.050 -0.0124 -0.3175 -0.0894
16583W        W29997  10.859   0.360   1.984  0.1243 -0.1584  0.0601
16584W        W29998   1.161   7.697   6.559  0.1137 -0.1298  0.0476
16585W        W29999   3.855   3.904  16.439  0.2795  0.1306  0.0822
16586W        W30000  14.538   3.567   0.954  0.2776 -0.3266  0.4157
16587W        W30001   3.704   8.870  12.221 -0.1061  0.0502 -0.1139
16588W        W30002   6.378   4.072   0.452  0.1657  0.0650 -0.1137
16589W        W30003  16.961   2.627   5.020  0.2570 -0.0500  0.5325
16590W        W30004  14.963   6.107  15.150  0.2372 -0.2325 -0.1050
16591W        W30005   3.950   0.423   5.585 -0.3728  0.0732 -0.1241
16592W        W30006  13.740  18.017   4.435 -0.1967  0.3417  0.0860
16593W        W30007   1.897   3.263  15.238 -0.0726 -0.5469  0.0871
16594W        W30008   1.479  12.569   0.484 -0.0365  0.0430  0.0585
16595W        W30009  10.049   7.676  16.027  0.1776 -0.1098  0.1285
16596W        W30010  17.526  11.885  14.539 -0.0045 -0.2629  0.0890
16597W        W30011   7.021   0.576  12.858 -0.0839  0.1825 -0.2169
16598W        W30012  13.975   0.764   2.286 -0.2051 -0.1492  0.0810
16599W        W30013  14.691  14.250   0.199 -0.1960  0.0024 -0.0075
16600W        W30014   3.694   1.116  13.102  0.1616 -0.0672  0.3722
16601W        W30015   8.219   7.905  10.085 -0.0860 -0.0406 -0.0765
16602W        W30016  15.046   2.719   2.267 -0.0243  0.0427  0.0704
16603W        W30017   1.961  14.989  15.533  0.1815 -0.1957 -0.1194
16604W        W30018  13.613  13.166  13.951  0.1355 -0.0964  0.2210
16605W        W30019   8.335   9.789   1.597  0.1272  0.0345 -0.3415
16606W        W30020   7.538  10.802  12.193  0.2366 -0.0651 -0.2212
16607W        W30021   1.466  17.040  11.742 -0.0247 -0.3252  0.1664
16608W        W30022  14.285  14.027   5.897 -0.1887 -0.0295  0.0447
16609W        W30023   4.499  16.422   1.001 -0.0871 -0.0035  0.0836
16610W        W30024  11.102   7.336  15.369  0.2135 -0.0275  0.0469
16611W        W30025  17.742  14.612   0.628  0.0166 -0.1516  0.0224
16612W        W30026  14.233   9.056  14.761  0.1510 -0.1867 -0.2003
16613W        W30027  12.243   3.346   4.786  0.0925  0.0361 -0.1194
16614W        W30028  16.418   4.277   5.036  0.0748  0.0301 -0.0949
16615W        W30029  11.746  13.664  16.161 -0.3008  0.3958 -0.2461
16616W        W30030   8.481   0.606  15.525  0.3376  0.1752  0.2921
16617W        W30031   2.171  18.096   2.525  0.3153  0.1365 -0.1268
16618W        W30032  16.523   3.612   1.496  0.1922 -0.3440  0.0177
16619W        W30033   6.916   9.934   1.901  0.0355 -0.0834 -0.1143
16620W        W30034  12.793  15.764   1.455  0.0162 -0.1495  0.0419
16621W        W30035   1.648  10.044  11.516 -0.1613 -0.2603 -0.0528
16622W        W30036  15.019  11.217   3.286 -0.3150 -0.1297 -0.0506
16623W        W30037   9.628  15.150  16.103  0.1829 -0.3684 -0.0546
16624W        W30038  14.466   8.575   2.124 -0.1060 -0.0736 -0.2512
16625W        W30039   2.299  11.485   3.173  0.1052  0.0939 -0.3480
16626W        W30040   4.842   9.132   5.773  0.2406  0.0949  0.1026
16627W        W30041   8.766   3.045  10.234  0.0660 -0.1328  0.1507
16628W        W30042   1.810   1.937   5.147 -0.1057 -0.0296  0.3615
16629W        W30043   0.755   2.791   5.433 -0.0272 -0.1751  0.4286
16630W        W30044  15.538  15.566   2.482 -0.1149  0.0976 -0.1111
16631W        W30045   5.114  11.858   5.486 -0.2762 -0.1612  0.0411
16632W        W30046   7.700   8.446   0.471 -0.0321  0.1189 -0.0843
16633W        W30047   6.718   6.671  12.746  0.0117  0.2858  0.3827
16634W        W30048  10.210   1.695  14.733  0.2495  0.2442 -0.0284
16635W        W30049  18.153  10.045   0.981 -0.1527  0.0064  0.3069
16636W        W30050   0.450   3.053  13.639  0.0411 -0.1326  0.2733
16637W        W30051   3.546  13.181   0.357  0.0328  0.0162 -0.1571
16638W        W30052  13.456  13.177   3.261 -0.1069 -0.1690  0.1316
16639W        W30053   8.511  17.097  14.192 -0.0149  0.1358  0.2995
16640W        W30054   8.052   3.920  16.280 -0.3087 -0.2217 -0.0048
16641W        W30055   5.871  17.104   9.845  0.0468 -0.0713 -0.2099
16642W        W30056  16.030  14.998  11.722 -0.4399 -0.0597 -0.1467
16643W        W30057  11.870   9.831  11.848  0.2408  0.2188 -0.0676
16644W        W30058  15.535   6.027  13.468 -0.2256  0.0808  0.0575
16645W        W30059  13.936   8.693   2.973 -0.1151  0.2951 -0.0834
16646W        W30060   4.577   2.255   4.191 -0.0577  0.3437  0.0922
16647W        W30061   0.160   5.929   1.044  0.0420 -0.2194 -0.2092
16648W        W30062   2.803  13.516  12.660 -0.0413  0.0692  0.4195
16649W        W30063  16.976  11.225   1.160  0.1703  0.2146  0.0427
16650W        W30064   4.168  12.201   2.315  0.0895  0.1524  0.3202
16651W        W30065  16.294   6.784  11.205  0.1790 -0.1704  0.1293
16652W        W30066   5.058  11.225  14.988 -0.1219  0.0744 -0.4140
16653W        W30067  17.766   3.186  15.268 -0.1495  0.2115  0.2231
16654W        W30068  11.641  17.215  14.749  0.1590 -0.1647  0.1990
16655W        W30069   6.813   8.114   2.144 -0.1488  0.1762  0.3140
16656W        W30070  13.591   7.225  15.224  0.0935 -0.2571 -0.1214
16657W        W30071  17.014   2.622   1.246 -0.0808  0.1681 -0.0596
16658W        W30072   9.940  17.686  14.154 -0.0746  0.1184 -0.2973
16659W        W30073   9.126   4.874  15.752  0.0467 -0.0384 -0.2075
16660W        W30074  15.485   5.486  14.165  0.1987 -0.0536  0.0379
16661W        W30075   4.037  12.462   5.036  0.0721 -0.2823  0.2598
16662W        W30076  15.963   2.562  12.403  0.2221  0.2582  0.0879
16663W        W30077   6.826  16.744   5.172  0.1054  0.0708 -0.1298
16664W        W30078  12.667  10.635  10.649  0.1551 -0.1775 -0.1032
16665W        W30079  11.803   2.723   2.778  0.0287  0.0990 -0.0804
16666W        W30080   8.663  13.295   0.456 -0.3775 -0.0498  0.0998
16667W        W30081   1.378   5.628  14.216  0.0712  0.0029 -0.2323
16668W        W30082   6.390  14.596   3.510 -0.4473  0.1661 -0.2388
16669W        W30083   8.709   0.904  16.387  0.2568 -0.0987 -0.1753
16670W        W30084   0.099  17.786  12.007  0.1486  0.0513  0.0727
16671W        W30085   0.963   7.753   5.359  0.1119  0.2869  0.0652
16672W        W30086   5.525  10.562   5.739 -0.1038 -0.2957 -0.1252
16673W        W30087   4.780   4.988  15.659 -0.0582  0.1577 -0.0184
16674W        W30088   9.600   0.748   0.067  0.1171  0.2568 -0.1625
16675W        W30089   3.343   4.488   3.472  0.0663 -0.0931 -0.2511
16676W        W30090  11.541  17.914  14.831  0.0472 -0.3720 -0.1177
16677W        W30091   7.854   8.668   1.750  0.0735 -0.2266 -0.0163
16678W        W30092  15.923   6.960   4.551  0.0152  0.0801 -0.2118
16679W        W30093   9.643  15.629  10.471  0.0714 -0.0602 -0.1549
16680W        W30094   4.630  16.100  10.762  0.0460  0.2114  0.1579
16681W        W30095   2.284  14.037  11.666 -0.0951  0.2770 -0.1901
16682W        W30096  10.283  10.828   0.666 -0.3787 -0.2506 -0.1477
16683W        W30097   7.218   0.891  15.422 -0.0666  0.5106  0.2624
16684W        W30098  16.580  15.965   1.216 -0.1325  0.1062  0.3788
16685W        W30099   5.753  13.582  14.055 -0.2730  0.1961  0.2882
16686W        W30100  16.224  13.575  12.391  0.1878  0.0673 -0.0549
16687W        W30101   2.850  13.380  16.230  0.0050 -0.0009  0.1807
16688W        W30102   1.248   4.760  13.053  0.0457 -0.0862  0.1729
16689W        W30103  15.336   7.733   2.340 -0.0648 -0.1602 -0.2899
16690W        W30104   5.486  16.406   2.979 -0.1687  0.0955  0.1122
16691W        W30105   2.540   3.616  12.110 -0.1085 -0.0689  0.1690
16692W        W30106  13.859  10.683  15.662 -0.2509  0.0375 -0.0672
16693W        W30107  17.447  10.309  12.280 -0.3940 -0.1224 -0.0032
16694W        W30108   1.668  12.179   4.278 -0.2240 -0.0086  0.0697
16695W        W30109  12.880  11.918   5.846  0.0047 -0.1982 -0.0876
16696W        W30110   4.249   5.317  15.883 -0.0118 -0.0714 -0.0408
16697W        W30111   6.128   5.882  13.116 -0.0864 -0.0815  0.1590
16698W        W30112  16.969  16.663  14.322 -0.3405  0.1840  0.3299
16699W        W30113   0.612  13.711  14.005 -0.0036  0.3008  0.4043
16700W        W30114   3.315  10.312   0.944 -0.2295  0.1466 -0.1368
16701W        W30115   4.290  11.395  14.358 -0.1283 -0.0954  0.1748
16702W        W30116  15.531   2.729  10.918 -0.2351  0.1959  0.2692
16703W        W30117   6.641   4.037   0.018 -0.0255 -0.1175  0.0345
16704W        W30118   3.791   9.021   5.732 -0.0543  0.0458  0.1842
16705W        W30119   7.082   7.467   4.910 -0.2261  0.2489 -0.0343
16706W        W30120   0.261   7.249   5.469  0.1454 -0.2039  0.2104
16707W        W30121  16.971   4.077   4.565  0.2728  0.1195  0.1935
16708W        W30122   7.633  17.595  14.512  0.1094  0.0828 -0.1793
16709W        W30123   4.977   8.953   2.958 -0.1181  0.0911  0.1150
16710W        W30124   3.382   3.698  12.020  0.0712 -0.0526  0.0775
16711W        W30125   7.461   5.620   4.841  0.1616  0.1554  0.2357
16712W        W30126   4.526   5.207   2.026 -0.3899  0.0835  0.0654
16713W        W30127  13.980   0.173   3.971  0.4530  0.1973 -0.1508
16714W        W30128   4.714  13.234  15.483 -0.2596 -0.1471  0.1981
16715W        W30129   9.274   1.419  10.637  0.1556 -0.0735  0.0706
16716W        W30130  12.012  12.316   3.437 -0.1125 -0.0494  0.0804
16717W        W30131   9.617  10.862  16.475  0.0739 -0.0391 -0.1661
16718W        W30132   3.036  16.379   1.891  0.0756 -0.0511 -0.3189
16719W        W30133   3.236   3.921   4.077 -0.0053 -0.0064 -0.0244
16720W        W30134   3.747  16.851   1.678  0.0180  0.0711 -0.1896
16721W        W30135  11.434  13.451   2.491  0.2159 -0.1126 -0.0122
16722W        W30136   9.237  17.876  15.781  0.1927  0.1035  0.1773
16723W        W30137   0.565   9.144  13.275  0.3209  0.1673 -0.3893
16724W        W30138  11.128  14.243  14.737 -0.3907 -0.2217  0.0575
16725W        W30139   0.810   8.567  16.132 -0.0218  0.3312  0.2406
16726W        W30140  13.476  15.477   3.463 -0.4085 -0.0274  0.0652
16727W        W30141  16.457   2.686  14.368  0.0012  0.0412  0.0304
16728W        W30142  16.612   1.635   4.953  0.0276 -0.0866  0.0385
16729W        W30143   8.156  15.011   1.936 -0.1039 -0.0117  0.1843
16730W        W30144   6.213   2.004   1.363  0.0593  0.1562 -0.0422
16731W        W30145   2.710  17.392   0.776  0.1244  0.0594 -0.1537
16732W        W30146  12.181  15.392  11.701 -0.1700  0.3766 -0.4791
16733W        W30147  10.077   7.320  16.347 -0.1680 -0.5487 -0.2015
16734W        W30148   2.234   9.440  14.712 -0.1731  0.0183 -0.1861
16735W        W30149   1.770  13.071  14.457 -0.3713  0.0446  0.2337
16736W        W30150   8.045   2.964   1.048  0.0284 -0.1335 -0.2843
16737W        W30151  10.174  14.953   9.808  0.0676 -0.3563 -0.3193
16738W        W30152   4.592   7.778  10.812 -0.2229  0.0064 -0.0225
16739W        W30153   7.883  14.489   5.855 -0.3196 -0.1804 -0.0849
16740W        W30154  17.087   0.024  15.698 -0.1067 -0.1458  0.0131
16741W        W30155   2.828   5.069   5.591 -0.1755  0.2209 -0.0159
16742W        W30156   4.342  10.578  16.108  0.2137  0.1936 -0.1045
16743W        W30157  18.011   3.853  11.103  0.2140 -0.0573  0.0900
16744W        W30158  15.776   0.327  14.399 -0.1864  0.2068  0.0623
16745W        W30159  16.341   9.501  14.747 -0.1646  0.0304  0.2935
16746W        W30160  17.379   4.871  12.860 -0.1471  0.0802  0.2555
16747W        W30161  12.751  12.243   3.328  0.1164 -0.2084 -0.0049
16748W        W30162  16.291   1.214  14.704  0.2127  0.1373 -0.1739
16749W        W30163  16.228   3.428  14.935  0.0336 -0.0763  0.3150
16750W        W30164   6.010  16.787   4.598  0.3616 -0.1114  0.1435
16751W        W30165   3.687  12.269  11.936  0.0193  0.0073  0.0910
16752W        W30166  15.794  14.131   2.395 -0.0456 -0.0842  0.1363
16753W        W30167  10.193   1.367   1.672  0.3385  0.0109  0.0921
16754W        W30168   6.020   5.162   2.285  0.2434  0.0704 -0.1485
16755W        W30169  14.540   5.235   1.209  0.2298 -0.0273  0.1704
16756W        W30170   4.529  15.902   0.264 -0.0308 -0.2121 -0.1881
16757W        W30171   7.797   7.127   1.960 -0.0228 -0.0734 -0.0631
16758W        W30172   0.750  17.288   1.465  0.1477 -0.0963 -0.0190
16759W        W30173   1.933   5.993  12.885 -0.1282 -0.4366  0.1367
16760W        W30174  14.253  16.714   1.175  0.2059  0.2752 -0.3723
16761W        W30175  13.460   1.068   3.711 -0.0559 -0.1242 -0.1160
16762W        W30176  16.308   6.376  14.725 -0.0143  0.1285 -0.4763
16763W        W30177  17.467   1.197  12.232  0.1464  0.0781 -0.1208
16764W        W30178  13.497  17.994  14.650  0.1768 -0.0983  0.1865
16765W        W30179   0.212  18.069  12.884  0.0988 -0.0306 -0.0163
16766W        W30180   9.996  14.363  11.937 -0.0159 -0.1338  0.3279
16767W        W30181  14.773   9.018   3.665  0.2373 -0.3580  0.1667
16768W        W30182   6.991   6.871   0.015 -0.0048  0.5422  0.0015
16769W        W30183   9.655  16.991  14.610 -0.1061 -0.1275 -0.3913
16770W        W30184   7.596  15.110  15.487  0.1230 -0.0622 -0.0401
16771W        W30185   5.456  12.853  15.941  0.1946  0.1211  0.1484
16772W        W30186   1.961   3.387  12.351  0.0848 -0.1628 -0.0202
16773W        W30187   9.025   8.170  13.015  0.0228  0.0375  0.0341
16774W        W30188   2.104  13.221  14.798  0.0024  0.2334 -0.1061
16775W        W30189   5.552   9.528  14.788 -0.0125  0.0442 -0.2903
16776W        W30190  15.953  11.153  10.788 -0.0350  0.2668 -0.2283
16777W        W30191  11.754   8.418  10.582  0.2118  0.1665 -0.2301
16778W        W30192  11.731  11.981  12.041 -0.3047 -0.2766  0.0119
16779W        W30193   4.215   6.105  11.312  0.0021 -0.1811 -0.0062
16780W        W30194   0.237  17.871  11.045 -0.0742  0.2119  0.1421
16781W        W30195  11.024  10.203   1.609 -0.0884  0.0461 -0.1741
16782W        W30196   8.079   5.260   5.997 -0.1094  0.1521 -0.2915
16783W        W30197   0.802   4.601   0.761  0.0198 -0.0839  0.0663
16784W        W30198   7.695   0.493   2.758 -0.1423 -0.1591  0.1925
16785W        W30199  11.109   6.652  13.921 -0.4053 -0.0302 -0.1966
16786W        W30200   1.820  10.213   2.147  0.1769  0.1340  0.1666
16787W        W30201  14.526   7.790  15.898  0.2509  0.2648  0.1585
16788W        W30202  17.844   6.069   2.373 -0.1253 -0.0611  0.2093
16789W        W30203  11.750  15.546   2.673  0.0491 -0.2361 -0.3063
16790W        W30204   2.817  16.615   2.905 -0.2301 -0.3482 -0.2783
16791W        W30205  17.820   4.340  12.992  0.2411  0.4108 -0.2851
16792W        W30206   1.376   7.175   4.505  0.1507  0.0311  0.0273
16793W        W30207   4.311   4.255   2.619  0.2871 -0.1080  0.1367
16794W        W30208   5.006  10.051  12.711 -0.2212 -0.1564  0.0564
16795W        W30209   0.161  16.377  15.425  0.1291 -0.4916 -0.0658
16796W        W30210  11.061   8.604   4.959  0.1071 -0.2750 -0.1546
16797W        W30211   2.654  11.474   0.871 -0.1260  0.0514  0.0062
16798W        W30212   4.096   0.883  11.841 -0.2658  0.0674 -0.1558
16799W        W30213  17.268   9.022   3.334 -0.0046 -0.0038 -0.0204
16800W        W30214   5.601  10.356  16.487  0.0883  0.1216 -0.0712
16801W        W30215   4.580   8.981  11.892 -0.1817 -0.0501  0.1823
16802W        W30216  11.678  10.222   4.203  0.0546 -0.1734  0.0725
16803W        W30217  16.485   8.546   1.994  0.0129  0.0562 -0.1106
16804W        W30218   3.280  13.735   2.762 -0.4115 -0.1422 -0.3178
16805W        W30219   2.295  15.407  13.905 -0.0304  0.3208 -0.0520
16806W        W30220   1.991   2.604   1.176 -0.0132 -0.1910 -0.2624
16807W        W30221   7.841   0.020   2.696  0.1706  0.1146  0.1597
16808W        W30222  16.896  16.546  12.261  0.0419 -0.0106  0.0845
16809W        W30223   1.320  13.238   2.493  0.0579  0.0940 -0.1758
16810W        W30224  13.040   0.111   2.874  0.0194  0.2655  0.0483
16811W        W30225  10.414  15.015  11.289 -0.1279 -0.3245 -0.0694
16812W        W30226   4.403   6.638   3.965 -0.1290 -0.1286  0.0457
16813W        W30227  15.944  15.740   0.794  0.1485 -0.2567 -0.2000
16814W        W30228  17.848  15.259  12.430  0.0855  0.0008  0.0699
16815W        W30229   9.823  13.379   1.865  0.0333 -0.0440 -0.2745
16816W        W30230   2.104  16.823   4.076 -0.0676 -0.0583  0.3928
16817W        W30231  16.455  14.203  16.358  0.0584 -0.0333  0.1801
16818W        W30232   2.638  11.420   5.743  0.4078  0.1612 -0.1036
16819W        W30233   6.607   9.699   2.305  0.3819 -0.0470 -0.0312
16820W        W30234   3.877  11.448   5.291 -0.0397  0.0894 -0.0873
16821W        W30235   0.015   0.741  10.451 -0.1936 -0.0461 -0.2124
16822W        W30236   4.424  10.640  12.113  0.1231  0.0585 -0.0550
16823W        W30237   4.812   2.341  15.789  0.2273  0.0153 -0.4535
16824W        W30238  14.908   6.183  14.641  0.1276 -0.2289 -0.1644
16825W        W30239   2.443  17.398   5.708  0.0435 -0.1837  0.4936
16826W        W30240  12.249  14.724  15.432 -0.1683 -0.2197 -0.0411
16827W        W30241  11.383   9.925   4.958  0.0863 -0.1053 -0.1049
16828W        W30242  17.181   3.301   2.154  0.2301  0.2283  0.0071
16829W        W30243   9.955   4.240  13.710  0.0612  0.0155  0.0386
16830W        W30244  11.504  12.624   2.530 -0.2281  0.0700  0.0906
16831W        W30245   0.703  14.757   3.202  0.0647  0.0008  0.1953
16832W        W30246   1.173   6.388  11.371  0.1232  0.0497 -0.1006
16833W        W30247   0.339  14.590   1.824  0.4148  0.1081  0.1113
16834W        W30248  12.900  16.369   4.908  0.0618  0.1255  0.2465
16835W        W30249  14.242   8.426  15.558 -0.0286  0.0922  0.2239
16836W        W30250  17.913   7.657  16.493 -0.0344  0.0810 -0.2622
16837W        W30251   2.461   1.045   0.316 -0.0972 -0.0593  0.0597
16838W        W30252   6.026   2.196   5.527 -0.1434 -0.2348  0.1250
16839W        W30253   2.253   9.955  12.323 -0.1976  0.1637  0.0072
16840W        W30254   0.311  16.600  14.010 -0.2954  0.0539 -0.0137
16841W        W30255  15.103  13.621  13.401  0.1833  0.0520  0.0352
16842W        W30256  11.532  17.322  10.264 -0.0420 -0.1424 -0.2969
16843W        W30257  10.626  17.306   1.574 -0.0349 -0.1274 -0.0168
16844W        W30258  14.105  17.916   2.263  0.0207  0.3118  0.5409
16845W        W30259   9.995   6.186   0.372  0.5278 -0.0861  0.1846
16846W        W30260  11.838   2.839  13.835  0.1005  0.3584  0.0866
16847W        W30261  12.182   0.150  12.471 -0.0583 -0.0289  0.0446
16848W        W30262   2.288  15.635  16.288 -0.0905  0.1954 -0.0802
16849W        W30263  16.744   3.019   1.199 -0.0030 -0.1009  0.0901
16850W        W30264  14.642  17.273  15.430 -0.0832  0.0464 -0.0942
16851W        W30265  16.744   9.051  12.513  0.1451 -0.3946  0.3412
16852W        W30266   8.586   9.522  13.352  0.1933 -0.1129 -0.2230
16853W        W30267  16.657   1.395  15.720 -0.1400  0.0060 -0.0102
16854W        W30268  17.242   9.058  16.194 -0.0617  0.0251  0.1473
16855W        W30269   3.077  15.539  15.415 -0.2738  0.3455 -0.0651
16856W        W30270   8.769   4.911  10.478 -0.0900 -0.1356  0.0247
16857W        W30271  13.339  14.201   4.672 -0.1005  0.0017 -0.2722
16858W        W30272   7.312  17.224  14.267 -0.0673 -0.0361 -0.1296
16859W        W30273   0.321   9.293  15.527 -0.0944 -0.3628  0.1029
16860W        W30274   2.177   8.866   1.508  0.0189  0.3573 -0.2124
16861W        W30275  17.955  17.028   0.621 -0.0167 -0.2995  0.1929
16862W        W30276   1.400  14.272  14.310 -0.2150  0.1114  0.1241
16863W        W30277   9.122  16.223   3.483 -0.1688  0.0608  0.3314
16864W        W30278   8.773  12.814   4.743 -0.2358  0.1727 -0.4155
16865W        W30279   5.914  12.551   5.747  0.1728 -0.0292  0.1721
16866W        W30280   2.871  11.176  14.748  0.0972 -0.1818  0.1669
16867W        W30281   3.313   3.443   0.186 -0.2442 -0.0021  0.1360
16868W        W30282   2.328   6.153   0.557  0.3017 -0.1924  0.0342
16869W        W30283  12.428  13.554  12.178  0.1679  0.0350  0.3987
16870W        W30284  12.089  12.600   5.048  0.1482 -0.0608 -0.1883
16871W        W30285   4.837  17.583  13.108  0.2574  0.1761  0.2756
16872W        W30286   5.424   0.794   2.674  0.0761  0.2792  0.0690
16873W        W30287   9.690  10.555   5.316 -0.0180 -0.3105  0.0034
16874W        W30288  15.397   5.182  12.317  0.2170  0.3007 -0.0286
16875W        W30289   3.861   3.087  11.394 -0.0238 -0.0089 -0.1534
16876W        W30290  17.835  16.854  14.803  0.2225  0.3944  0.4589
16877W        W30291   6.167   7.770   2.339  0.2391  0.1238  0.0605
16878W        W30292   3.767  14.379  14.186  0.2480 -0.1546  0.3767
16879W        W30293  15.961   2.595   4.200  0.1025  0.2557  0.1841
16880W        W30294  17.993  10.548  12.239 -0.0270  0.0640 -0.1038
16881W        W30295  14.423   1.869  16.218 -0.1030  0.4902  0.2243
16882W        W30296   0.316   8.533  16.322  0.3815  0.0005  0.0040
16883W        W30297  10.458  17.094   9.308 -0.0618  0.1190 -0.0909
16884W        W30298  13.343   1.710  15.846  0.2641  0.0856 -0.0768
16885W        W30299   6.009   0.757  13.790  0.0423 -0.2390  0.1043
16886W        W30300   9.889   9.083   2.666 -0.2911  0.0769 -0.0667
16887W        W30301  11.490   0.152  11.192 -0.0239  0.1776  0.1723
16888W        W30302   6.352  10.497  12.341 -0.2528 -0.2744  0.2316
16889W        W30303   5.093  10.251   0.861 -0.1459 -0.1170  0.1315
16890W        W30304  17.433   5.004   0.699  0.0243 -0.0954  0.1136
16891W        W30305   0.436   4.593  14.236  0.1318 -0.0010 -0.1174
16892W        W30306   5.376  10.255  15.992 -0.1187 -0.1206 -0.2351
16893W        W30307   5.865   4.825   3.167  0.2399  0.1086 -0.0557
16894W        W30308   9.875  14.563  13.251 -0.3043  0.0496 -0.2088
16895W        W30309  15.361   5.334  14.995 -0.1209  0.0196 -0.0829
16896W        W30310   8.594   8.388  14.363 -0.0434 -0.1654 -0.2180
16897W        W30311   3.252  18.192   2.548  0.0836  0.2506 -0.1813
16898W        W30312  18.216   6.033  10.678 -0.0391 -0.0843 -0.1733
16899W        W30313   6.986  17.569  14.399  0.1863 -0.0339 -0.0485
16900W        W30314   5.941   4.689   5.421 -0.1710 -0.4042  0.0751
16901W        W30315   7.387  12.379   4.573 -0.1708  0.2566  0.0718
16902W        W30316   3.444  14.531  14.514 -0.1210 -0.0432 -0.1858
16903W        W30317  17.054   4.290  10.933  0.0145  0.1601  0.1370
16904W        W30318   5.235   4.048   2.482 -0.2044  0.2774 -0.0525
16905W        W30319   2.685   2.282  11.696 -0.0115  0.2180 -0.2434
16906W        W30320  10.348  14.081   5.287 -0.1218 -0.1327  0.4947
16907W        W30321   2.464   4.460   0.349 -0.1806  0.0700 -0.3279
16908W        W30322  16.835   1.107  14.721  0.2276 -0.1241 -0.2063
16909W        W30323   0.886   0.428  12.905  0.1821 -0.0135  0.2494
16910W        W30324   3.887  13.668  13.201  0.1031  0.2948  0.1541
16911W        W30325  14.502  15.515   4.989  0.2576  0.1042 -0.1777
16912W        W30326  17.320   6.836   4.254  0.2990  0.3070 -0.0801
16913W        W30327   6.207  16.626   3.628  0.1399  0.1911 -0.0652
16914W        W30328   2.835   9.887  13.102  0.3004  0.0716 -0.1497
16915W        W30329   6.328   0.511   3.783 -0.1498  0.0582 -0.1792
16916W        W30330  16.963  12.327   4.514  0.2290  0.2057 -0.0754
16917W        W30331  13.221  10.889  16.409 -0.2428  0.2982 -0.1378
16918W        W30332  16.602   2.697  12.924  0.2282  0.0659 -0.1606
16919W        W30333   5.768  12.794   2.450  0.0424  0.1310  0.0318
16920W        W30334   8.136  13.692  10.191 -0.0456 -0.0873  0.4889
16921W        W30335   9.626   6.589  12.330 -0.0075  0.0393 -0.0276
16922W        W30336  14.797   6.300  14.154  0.0516 -0.0955 -0.0429
16923W        W30337  12.927   6.663   0.374  0.0528  0.1718  0.0653
16924W        W30338   1.981  15.527   4.436 -0.0009  0.0081 -0.0125
16925W        W30339   4.892  12.666  12.443  0.1905  0.1962  0.1925
16926W        W30340   0.282   4.362  13.341 -0.0549  0.0608 -0.1355
16927W        W30341   6.704   5.791  10.733  0.2269 -0.0181  0.1075
16928W        W30342  10.137   0.893   2.761  0.1256  0.0579  0.0196
16929W        W30343  15.670  16.199   5.938  0.0007  0.0541 -0.0363
16930W        W30344   5.961   0.780   1.802 -0.0631 -0.0052 -0.1065
16931W        W30345  15.230   2.756   0.024  0.0520 -0.0491 -0.0068
16932W        W30346  17.103  11.206   3.471  0.2538  0.0256 -0.2337
16933W        W30347   5.783  15.040   0.599 -0.4453  0.3177  0.2893
16934W        W30348  14.108  12.755   1.990  0.1167  0.2739  0.0179
16935W        W30349  14.883   4.034   5.538  0.1190 -0.0086  0.0693
16936W        W30350   7.752  16.713  11.836 -0.0626 -0.5152 -0.2706
16937W        W30351  15.717  13.502  15.446  0.0863  0.3277  0.0388
16938W        W30352   7.142   3.271  14.875 -0.1758  0.1323 -0.1339
16939W        W30353  11.312   4.541  12.816 -0.0154 -0.0142  0.5690
16940W        W30354   7.824   6.146   5.544  0.1291  0.4003  0.1705
16941W        W30355  12.520  15.880  11.001 -0.0281  0.1399  0.1832
16942W        W30356  15.075  11.344  11.061 -0.1833  0.1629  0.1381
16943W        W30357  16.641   7.670   2.158 -0.0019  0.0831 -0.0292
16944W        W30358  16.969   9.736  15.388 -0.0685  0.1784  0.0624
16945W        W30359   3.632   0.218  12.290 -0.1273  0.0008  0.1275
16946W        W30360   2.710   0.880   3.506  0.1347 -0.1031 -0.0135
16947W        W30361  12.036   5.567  11.596 -0.3210  0.1259  0.2137
16948W        W30362   4.192   6.976   4.299 -0.1598 -0.3069 -0.2744
16949W        W30363  16.824   4.109  13.172 -0.0759 -0.2662  0.0852
16950W        W30364  12.518   7.203  10.368 -0.0815 -0.2833 -0.1724
16951W        W30365   1.965   8.701   5.884  0.1503  0.1766 -0.0373
16952W        W30366   7.495   8.795   2.094  0.3210 -0.0100  0.0426
16953W        W30367   4.988  17.035  15.520 -0.2912  0.2705  0.2941
16954W        W30368  16.782   2.321  11.160  0.0907 -0.0883  0.0535
16955W        W30369  17.959  12.575   0.526 -0.0651  0.2069 -0.2656
16956W        W30370   6.320   4.381   4.488 -0.1870 -0.0231 -0.0202
16957W        W30371   4.018   5.480  15.393 -0.4331 -0.1510 -0.0872
16958W        W30372  13.691   3.050   2.337 -0.3494 -0.0456  0.0632
16959W        W30373   8.088  11.823   5.578 -0.0882 -0.1539 -0.0362
16960W        W30374   5.222   2.603   2.706 -0.0711 -0.4658 -0.2013
16961W        W30375   9.413   3.313  14.592 -0.2942  0.0384 -0.0192
16962W        W30376  16.878   9.717  14.772  0.0770  0.1702  0.0261
16963W        W30377  17.673  11.913   9.867 -0.2375 -0.0851 -0.0656
16964W        W30378  11.354   3.967   6.070 -0.2178 -0.0593  0.0301
16965W        W30379   1.361  14.005  13.733 -0.0025 -0.0137  0.1521
16966W        W30380  12.699   4.578   2.440  0.0841  0.0638  0.0042
16967W        W30381  17.309   8.022   1.614 -0.1314 -0.1419 -0.0662
16968W        W30382   6.388  15.455  12.351 -0.0221  0.0539  0.2189
16969W        W30383  14.493  15.264   4.498 -0.4447  0.3192 -0.0553
16970W        W30384  16.006   0.251   4.789  0.0051  0.2694  0.0103
16971W        W30385  18.084   7.643   0.875  0.2069 -0.0077  0.0751
16972W        W30386  18.071  17.505  14.898  0.1839 -0.0002  0.0608
16973W        W30387   5.592   0.314   2.511 -0.0246  0.1502  0.1854
16974W        W30388   3.753   8.297   7.008  0.1400  0.1196 -0.1668
16975W        W30389   9.939   2.598  14.508 -0.0392 -0.0458  0.1587
16976W        W30390  15.790   8.911   1.635 -0.0253 -0.1772 -0.3747
16977W        W30391   3.676  16.897   3.885  0.1844  0.1286  0.0783
16978W        W30392  16.876   9.440   3.887 -0.0725  0.0063  0.2558
16979W        W30393   5.885   5.253   1.687 -0.1488  0.1272 -0.0942
16980W        W30394  12.422  12.618   3.258 -0.0169 -0.0957 -0.1762
16981W        W30395   7.788  12.699   1.059  0.0399 -0.0602 -0.0788
16982W        W30396  14.670   5.939  13.173  0.2763  0.2899 -0.0028
16983W        W30397  14.419   9.235  12.382 -0.0150 -0.1118 -0.2678
16984W        W30398   9.085   8.202  11.626 -0.1511 -0.0318 -0.4254
16985W        W30399   0.646   6.420  15.618 -0.2012 -0.0805 -0.0499
16986W        W30400   9.201   7.007   5.569  0.3758 -0.0697 -0.1742
16987W        W30401  16.779  17.439   0.436 -0.3071 -0.0311 -0.1750
16988W        W30402  10.840  17.912   0.116 -0.2620 -0.2471 -0.0544
16989W        W30403  11.276   1.528   3.534 -0.0953  0.1444  0.3815
16990W        W30404  13.139   1.980  11.931  0.3437 -0.1848  0.3013
16991W        W30405  11.389   7.991   1.754 -0.4625  0.1858  0.1971
16992W        W30406   5.848   7.243  13.517  0.1652  0.0094  0.3021
16993W        W30407  15.764   8.654   6.278  0.0182 -0.0388  0.0678
16994W        W30408  11.159  17.758   2.903  0.2092  0.0322  0.0794
16995W        W30409   0.936   9.978   4.132 -0.1491  0.0384 -0.0083
16996W        W30410  12.319   3.810  13.081 -0.1556 -0.2030 -0.1335
16997W        W30411  16.709  13.872   4.008  0.3873  0.1006 -0.1046
16998W        W30412  12.522   5.886   0.976  0.2626 -0.0322 -0.0353
16999W        W30413  10.774   4.138   2.702  0.1073 -0.0269  0.2844
17000W        W30414  12.279  11.860   5.716  0.1575  0.1053 -0.1326
17001W        W30415   2.148  12.693   0.717  0.1278 -0.0537  0.0729
17002W        W30416   5.442   8.420  16.307  0.0155  0.0156 -0.1476
17003W        W30417   5.362   7.308  14.549  0.1677 -0.0575 -0.0076
17004W        W30418  14.440   0.759   3.080 -0.2101 -0.0850  0.0800
17005W        W30419   7.558   1.448  16.361  0.2272  0.0831  0.1190
17006W        W30420  10.492  17.074  10.065  0.2566 -0.0303  0.0070
17007W        W30421   3.199  13.246   2.774  0.1442  0.1717  0.3321
17008W        W30422   6.036  10.540  14.623 -0.0187 -0.2295  0.4142
17009W        W30423   1.840   5.568  15.499  0.1308 -0.2074  0.0805
17010W        W30424   2.290   2.800   2.394 -0.1030 -0.1112 -0.0413
17011W        W30425   2.658  15.431   0.073 -0.1123  0.1386  0.1121
17012W        W30426  17.765   6.078  12.456  0.1664 -0.1732 -0.1203
17013W        W30427   8.622   0.180  14.708  0.1592  0.0309  0.0112
17014W        W30428  15.198   5.833  12.455 -0.0710  0.0060 -0.2070
17015W        W30429  12.910  17.766  13.393  0.0251 -0.0599  0.1355
17016W        W30430  15.690  14.958   5.220  0.1448  0.1041  0.1001
17017W        W30431   9.198   7.831   3.386  0.0585 -0.1309  0.2228
17018W        W30432   7.982  14.426  14.062  0.0703 -0.3122 -0.0313
17019W        W30433  10.149   8.210  14.413  0.3339  0.1259 -0.2904
17020W        W30434   2.243   2.798  16.241  0.2599  0.1891  0.0266
17021W        W30435   0.008   0.166  14.477  0.1025  0.1894 -0.0057
17022W        W30436   7.002   4.633  12.381 -0.2258 -0.0072 -0.0851
17023W        W30437  12.038   8.374   2.629 -0.0335  0.2074  0.0609
17024W        W30438   3.812   4.346   1.256 -0.2550 -0.3573  0.3405
17025W        W30439  12.746  13.024   4.394  0.0895 -0.0102 -0.0976
17026W        W30440   0.586  10.013  12.162  0.2157  0.0506  0.0911
17027W        W30441   8.060   4.891   2.800 -0.0933 -0.2002 -0.1629
17028W        W30442   8.913   1.410   1.314 -0.1584  0.0545  0.3175
17029W        W30443   0.919   5.517   0.645  0.2732  0.1554 -0.2314
17030W        W30444   9.965  16.775  15.439  0.1528 -0.2619  0.1273
17031W        W30445   7.098  15.897  11.726  0.2350  0.3699 -0.2475
17032W        W30446   8.086  11.718   3.040 -0.2041 -0.1529 -0.0550
17033W        W30447  12.923  14.705  16.109 -0.1269 -0.4197 -0.1088
17034W        W30448  15.298  13.625  14.117 -0.2212 -0.0508  0.1794
17035W        W30449  17.122  14.318   4.719 -0.0788 -0.0056  0.1981
17036W        W30450   0.246   5.503  11.554  0.1432 -0.1997 -0.1242
17037W        W30451  13.696   5.159  12.067 -0.0227  0.1328 -0.0230
17038W        W30452  10.047   4.391   0.747 -0.0142  0.1739  0.1494
17039W        W30453   4.420   0.291  14.170 -0.1161  0.2048  0.1319
17040W        W30454  15.466  12.350   2.694 -0.1398 -0.0381  0.3016
17041W        W30455   1.918  13.579   3.516 -0.1952 -0.1224 -0.1469
17042W        W30456  13.264   6.629  16.298  0.2394 -0.2973  0.1430
17043W        W30457  12.470  14.540   5.526 -0.0116 -0.1672 -0.0487
17044W        W30458   3.888  12.960   0.662  0.0958 -0.3643 -0.2553
17045W        W30459   0.747  10.059  16.077 -0.1124 -0.3148 -0.3812
17046W        W30460   1.134  14.560  14.929  0.1699 -0.3968  0.0448
17047W        W30461  10.808  10.288  14.281  0.0334 -0.0331  0.2881
17048W        W30462  17.279  11.523   6.752 -0.1895 -0.0796  0.3094
17049W        W30463   8.278   8.700  16.301  0.1140  0.3868  0.2659
17050W        W30464   2.364   7.296   3.920 -0.2021  0.1443  0.2773
17051W        W30465   1.726   4.613  12.319  0.0465  0.0054 -0.0973
17052W        W30466   5.425   8.566  11.975 -0.1922  0.0024  0.2903
17053W        W30467  12.911  15.710  10.086  0.1543  0.0522  0.5451
17054W        W30468  15.472  15.799   0.984  0.0051  0.1374  0.3002
17055W        W30469  13.090   2.734   3.993 -0.0737  0.1248 -0.1598
17056W        W30470  15.741  12.893   3.436  0.3045  0.0134  0.1692
17057W        W30471   3.451  14.971  13.304  0.0210  0.1779 -0.2947
17058W        W30472  12.666  11.225  13.634  0.0079 -0.0425 -0.0445
17059W        W30473   3.957  17.324   5.223  0.1510 -0.1050 -0.0702
17060W        W30474   9.717  11.231   2.674  0.3390  0.2576  0.0583
17061W        W30475  16.167  12.141   5.390 -0.2212  0.1706  0.1068
17062W        W30476  16.174   1.298   2.742 -0.0418 -0.0326 -0.0891
17063W        W30477  13.432   4.426  11.208  0.1432  0.2275 -0.2118
17064W        W30478   8.766   4.415  12.144  0.5144  0.0326 -0.2101
17065W        W30479   9.450  14.604  13.431 -0.2148 -0.1703  0.0198
17066W        W30480   3.752  16.812  12.993  0.0639  0.1177 -0.0908
17067W        W30481   3.202  14.773  16.035 -0.5831 -0.2759 -0.0525
17068W        W30482   4.867  15.581  14.888  0.0927 -0.0704 -0.0001
17069W        W30483   1.710   3.575  14.842 -0.3953  0.4324 -0.0088
17070W        W30484   9.320  11.247  13.209  0.1739  0.1212 -0.3064
17071W        W30485  16.425   2.316  10.820 -0.2253 -0.1823  0.0578
17072W        W30486  17.693   7.016  13.692 -0.3491  0.0027  0.2182
17073W        W30487   7.000  14.505   4.157 -0.1615  0.1128 -0.1606
17074W        W30488  17.332   5.911   4.126 -0.1282 -0.2283 -0.2317
17075W        W30489   8.674  10.479  15.489  0.2137  0.4640  0.1569
17076W        W30490  11.213   7.787  11.954  0.0219  0.0609 -0.1169
17077W        W30491  15.790  17.099  13.014  0.0434 -0.2017 -0.0336
17078W        W30492   0.662   8.658  13.337 -0.2726  0.0284 -0.1405
17079W        W30493   2.433   4.700  15.478  0.0752 -0.2196 -0.0899
17080W        W30494   3.278  16.028  16.420  0.0706 -0.1706 -0.2376
17081W        W30495   5.318  12.147   3.200  0.0205  0.1987 -0.0323
17082W        W30496   0.466   2.877   0.361 -0.0332 -0.0128  0.1685
17083W        W30497   0.568  16.561   2.716  0.0484 -0.2277 -0.3568
17084W        W30498   1.166  15.670   0.809 -0.2839 -0.0031 -0.3334
17085W        W30499   4.016  11.100  14.082 -0.3178  0.0456 -0.0435
17086W        W30500  11.567   7.354   5.961 -0.1003  0.4561 -0.0928
17087W        W30501   2.822   6.430  16.386 -0.2469  0.3617 -0.1428
17088W        W30502  16.344   9.298  12.234  0.0625 -0.2283  0.1653
17089W        W30503   9.255  13.151  16.085 -0.2888  0.0956  0.0729
17090W        W30504  14.397   6.142   3.622 -0.1709  0.0221 -0.1434
17091W        W30505   9.889   9.072  14.575  0.1594 -0.1451  0.1967
17092W        W30506  16.646  15.664  11.835  0.2468  0.4040  0.2659
17093W        W30507  12.372  15.776   1.186 -0.1779 -0.0146 -0.0756
17094W        W30508  11.612   8.567  11.053  0.1615  0.0782 -0.0963
17095W        W30509  11.630   6.567   0.059 -0.2006 -0.1012 -0.0905
17096W        W30510   8.379  15.517  14.788  0.2230 -0.1542 -0.5475
17097W        W30511   3.312   8.188   0.433  0.0884 -0.1286  0.0954
17098W        W30512  15.389   3.255   0.393 -0.1953 -0.1978  0.2273
17099W        W30513   2.656   3.859   3.028 -0.0057 -0.0344  0.0299
17100W        W30514  11.783   3.377  16.122  0.2169  0.1270 -0.1209
17101W        W30515  12.083   4.341  11.623  0.0305 -0.0766 -0.1379
17102W        W30516  11.101   4.958   3.554 -0.0439 -0.1256 -0.1730
17103W        W30517  13.576  17.690   1.735  0.4102 -0.0934 -0.0498
17104W        W30518   6.920  11.351   5.553 -0.1037  0.1842 -0.0632
17105W        W30519   1.883   5.087   1.360 -0.0703  0.1897  0.1717
17106W        W30520  14.067   2.516  10.997  0.1065 -0.1096  0.0547
17107W        W30521  15.204   5.109  15.560  0.0274  0.4439  0.0178
17108W        W30522  12.459   0.104  16.430 -0.1681  0.0865  0.0894
17109W        W30523  13.070   4.896   2.586  0.0914  0.4499 -0.0309
17110W        W30524  14.257  11.340   0.717  0.0631  0.0299  0.2231
17111W        W30525   5.761  12.995  12.510  0.0258  0.2404 -0.3512
17112W        W30526  13.791   5.936  11.657  0.3382 -0.0345 -0.2028
17113W        W30527   2.563   0.208  14.488 -0.0635 -0.1011  0.0179
17114W        W30528  13.530   6.220   5.216 -0.1328  0.1288 -0.0909
17115W        W30529  11.589   0.063   2.687 -0.0653 -0.0501  0.1154
17116W        W30530   0.276   8.178   0.750 -0.2463  0.0471 -0.1051
17117W        W30531   5.549  16.105  15.553 -0.1252 -0.3434 -0.3025
17118W        W30532  13.054   1.711  16.272 -0.0868 -0.1450  0.0781
17119W        W30533  15.091   8.445  11.742  0.1693 -0.1016  0.0109
17120W        W30534  15.871   3.164   2.741  0.0588  0.1417  0.0898
17121W        W30535  12.980  13.920  15.908  0.2374  0.0516  0.0456
17122W        W30536   6.096  15.591  15.896 -0.1169 -0.1197 -0.0803
17123W        W30537   0.169   1.020  12.202  0.0973  0.3147 -0.0394
17124W        W30538  11.367   1.779   5.139  0.1076 -0.2159 -0.0479
17125W        W30539  14.700   8.720   4.218 -0.0499 -0.1063 -0.1404
17126W        W30540   2.808  14.437   2.919 -0.2293  0.2851 -0.1195
17127W        W30541  15.203  14.781   2.523  0.0140 -0.1451 -0.0301
17128W        W30542  12.282  16.434   3.029  0.1283 -0.1113  0.0699
17129W        W30543  16.689   0.255   3.500  0.0703  0.1537  0.0873
17130W        W30544   3.262   0.900  14.216  0.2708 -0.0422  0.1561
17131W        W30545  14.390   8.231   4.961  0.1944  0.2134 -0.1614
17132W        W30546  17.872  14.224  13.929 -0.1043  0.2195 -0.2014
17133W        W30547  13.627   3.183   1.211 -0.0318 -0.3449  0.0391
17134W        W30548   2.376  14.977   5.137 -0.0546 -0.1904 -0.2336
17135W        W30549   9.405   1.438  15.037 -0.0639  0.1663 -0.2480
17136W        W30550   1.250   9.443   3.756 -0.0051 -0.1091  0.0749
17137W        W30551   4.213   3.392   0.173 -0.1302 -0.0807 -0.1057
17138W        W30552   2.128  11.863  13.788 -0.3560 -0.0864 -0.1378
17139W        W30553  11.183   1.595  10.590  0.1409  0.0196  0.0944
17140W        W30554  11.050   6.192   1.483 -0.0957  0.1315 -0.2398
17141W        W30555  10.799   6.000   1.091  0.2276 -0.2843  0.0394
17142W        W30556  10.177  15.921  13.589  0.1859  0.3253  0.0705
17143W        W30557  13.978  16.413  13.073 -0.0228  0.3299 -0.2520
17144W        W30558  16.319  14.363  11.345 -0.0901  0.1039 -0.0248
17145W        W30559   1.631   2.452  14.604 -0.2416 -0.1225  0.1614
17146W        W30560   1.640   0.096  14.938  0.3929 -0.1140 -0.0914
17147W        W30561   7.267  13.072   3.048 -0.1408 -0.2924  0.1561
17148W        W30562  16.930   0.545  15.674  0.0897  0.4775 -0.1759
17149W        W30563   9.971   7.440   3.603 -0.3499 -0.0943 -0.0362
17150W        W30564  14.540   8.263  12.595  0.0124  0.2832  0.0079
17151W        W30565  10.107  10.387  12.487  0.1764 -0.1205 -0.0582
17152W        W30566   1.066   5.878  11.327 -0.0542 -0.2177  0.0528
17153W        W30567  14.905  13.599   3.660 -0.1079  0.0881 -0.1186
17154W        W30568  17.285  16.095   0.669 -0.1606 -0.3102 -0.3267
17155W        W30569   5.919  17.426  14.421 -0.2986  0.0581 -0.2874
17156W        W30570  16.508   7.119   1.841  0.0350  0.0772  0.0811
17157W        W30571   6.240  11.601   4.173  0.1515  0.0654 -0.1443
17158W        W30572  10.465   0.680  12.698 -0.1819 -0.2198 -0.2283
17159W        W30573   6.139  13.392  13.387 -0.1948 -0.1302 -0.2671
17160W        W30574   3.230   3.537   3.070  0.1581  0.3537  0.2126
17161W        W30575   7.796   6.520   2.078  0.1174 -0.0939 -0.1669
17162W        W30576  16.216  14.674  13.025 -0.0680  0.0794 -0.1447
17163W        W30577  12.368   1.125  13.519  0.0475 -0.3204 -0.3195
17164W        W30578   9.572  10.405   4.800  0.0878 -0.5656  0.2830
17165W        W30579   5.877  11.607  12.612  0.3001  0.1719  0.0052
17166W        W30580  10.269   6.653   0.671  0.0303  0.2886 -0.0897
17167W        W30581  12.632   2.908  10.825 -0.0061 -0.0382 -0.1497
17168W        W30582   0.378  14.756   4.481 -0.0123 -0.0496  0.2405
17169W        W30583   7.134   0.557   1.402 -0.0086  0.2697  0.2623
17170W        W30584   9.173   9.294   1.510  0.1448 -0.1296 -0.1267
17171W        W30585   4.892   2.005  15.194 -0.2911  0.0541  0.0541
17172W        W30586  13.311   1.721  14.331 -0.1954  0.0729  0.0789
17173W        W30587   6.949   5.372   2.202 -0.2239 -0.0622  0.0322
17174W        W30588   0.547   1.138   1.812  0.0404 -0.0471  0.1498
17175W        W30589   7.947  17.975  14.161 -0.1072 -0.3023  0.1257
17176W        W30590  13.194  16.124  16.165  0.3780 -0.0027 -0.2724
17177W        W30591  14.599   6.863  15.963 -0.1839 -0.1574 -0.2474
17178W        W30592   5.802   9.975  16.228 -0.0027 -0.1847 -0.2030
17179W        W30593   7.734  10.680   3.383  0.0695 -0.0364 -0.0816
17180W        W30594  15.619  15.637   0.190  0.2668 -0.4515  0.2521
17181W        W30595   6.431   0.698   2.758  0.0204  0.2053  0.0754
17182W        W30596   0.824  15.189  15.501 -0.2020  0.1561 -0.2368
17183W        W30597   5.404   5.728   0.673 -0.2019 -0.1502 -0.2904
17184W        W30598   5.115  17.718  11.976 -0.0901 -0.1063 -0.0355
17185W        W30599   7.741  15.218  11.948  0.0589 -0.2453 -0.0727
17186W        W30600  16.115   3.963   4.661 -0.1326  0.0094  0.0400
17187W        W30601   8.085  13.975   1.059  0.0633 -0.1124  0.0504
17188W        W30602   1.096  14.395   4.456 -0.0087 -0.0531 -0.1774
17189W        W30603  15.676   7.844  13.727  0.0365  0.1397  0.3427
17190W        W30604   3.197   2.749   5.925  0.1343  0.0055  0.4412
17191W        W30605  11.873   1.539   2.072 -0.1836 -0.2027 -0.1929
17192W        W30606   1.544   2.576   5.028  0.2504 -0.0667  0.1408
17193W        W30607  11.638  16.871  15.259  0.3161 -0.2875 -0.2704
17194W        W30608   9.939  15.067  11.931  0.1375  0.0407 -0.1901
17195W        W30609   5.182  13.548   4.446  0.1021  0.0936  0.1873
17196W        W30610  10.136  16.019   3.577 -0.2484 -0.3326 -0.0760
17197W        W30611  17.946  12.826   3.237 -0.1077 -0.5285 -0.2104
17198W        W30612   6.648   4.005  10.730  0.1210 -0.2201  0.0959
17199W        W30613  17.491  17.721   2.880  0.2578  0.2837 -0.1252
17200W        W30614   1.953   1.594  10.850 -0.1688 -0.0717  0.1803
17201W        W30615  15.631   7.177   1.152  0.0977 -0.1224 -0.0967
17202W        W30616  14.747  16.481   1.940 -0.1404 -0.0877  0.0032
17203W        W30617   3.109  15.684   0.287 -0.0738  0.0370 -0.2086
17204W        W30618  12.409  14.598  10.885  0.0249  0.0812 -0.0690
17205W        W30619   7.293   2.172  12.306 -0.2515 -0.0455 -0.1172
17206W        W30620  16.350   8.940  16.010 -0.1021  0.0689  0.0745
17207W        W30621   3.025   1.816   4.569  0.2682 -0.1582  0.2034
17208W        W30622  11.110   3.050  10.356 -0.1296 -0.1240  0.0077
17209W        W30623  11.982   1.148   5.417  0.0093 -0.5720  0.0515
17210W        W30624  12.742   9.831   1.803 -0.2633  0.2208 -0.3180
17211W        W30625   0.467   3.021  10.152  0.4504 -0.0127 -0.5658
17212W        W30626  10.950  15.030  11.571  0.0187 -0.0513 -0.3448
17213W        W30627   5.230  15.594  14.443 -0.2464  0.2197  0.0779
17214W        W30628  12.278  17.452  14.408  0.1362  0.0235  0.0146
17215W        W30629  10.717  17.939   3.883  0.0176  0.2872  0.1448
17216W        W30630  16.511   3.507  13.738  0.3532 -0.0022  0.1968
17217W        W30631   3.625   3.814  15.006  0.1170  0.0372  0.0301
17218W        W30632   6.769   1.128  11.058 -0.1084  0.0617  0.0585
17219W        W30633   9.209   2.031  12.874  0.0584 -0.0878  0.0270
17220W        W30634  14.469   7.844  12.284  0.1474  0.3422  0.0193
17221W        W30635  17.939   5.752   3.363 -0.1499 -0.3661 -0.1933
17222W        W30636  15.739   1.421  15.313  0.1802  0.0059 -0.1566
17223W        W30637   2.374   4.708   1.983 -0.0695 -0.1635  0.2781
17224W        W30638   8.894   5.032   0.220  0.0907  0.0379 -0.0152
17225W        W30639  17.870  12.935   3.771  0.0895  0.2644 -0.3032
17226W        W30640   0.017   5.952  15.582  0.2454  0.1122 -0.2753
17227W        W30641   8.084  16.421  13.769  0.2978  0.0395 -0.0037
17228W        W30642  15.552   7.601   0.294 -0.0731 -0.1238 -0.2217
17229W        W30643   1.373  13.084  13.262  0.0835 -0.1582 -0.1373
17230W        W30644   6.213   5.480   1.067  0.1096  0.1578 -0.0425
17231W        W30645  16.577   2.796  15.221 -0.2011  0.2634 -0.0857
17232W        W30646   4.752  15.199  13.555  0.2917 -0.1057  0.2416
17233W        W30647   1.295   0.358  12.677  0.1804 -0.0428  0.1876
17234W        W30648   3.658   5.297  12.509 -0.3208  0.0599 -0.2564
17235W        W30649  11.432   4.829   3.942  0.0493  0.1520  0.1479
17236W        W30650  16.261   6.272   4.893 -0.3057 -0.1363 -0.0510
17237W        W30651  14.019   5.377  13.310 -0.0708 -0.0224 -0.3081
17238W        W30652  12.386   6.449  11.604  0.1731 -0.1310  0.2148
17239W        W30653  18.219  12.163  13.331  0.0047 -0.0752  0.0590
17240W        W30654   6.787   2.431   3.227  0.0832 -0.0156  0.0833
17241W        W30655  17.888  14.432  15.448  0.1110  0.2201 -0.1512
17242W        W30656   1.321   9.271  10.547 -0.4688  0.1263 -0.1546
17243W        W30657   2.342   3.892  15.260 -0.0842 -0.1612 -0.0247
17244W        W30658   1.166  16.491  11.024  0.1150 -0.4653 -0.2891
17245W        W30659   7.887   6.238   4.477 -0.0570 -0.1080 -0.0770
17246W        W30660   4.715  15.105  14.805 -0.1572 -0.1844  0.3720
17247W        W30661  11.693   3.739  10.077  0.2568 -0.3660 -0.0506
17248W        W30662   6.030   3.665   6.222 -0.1382 -0.0810 -0.0776
17249W        W30663   8.494   1.101   4.050  0.1996 -0.0499 -0.0377
17250W        W30664   1.467   3.431   0.745  0.2643  0.3261  0.2280
17251W        W30665   0.832  13.036  14.649 -0.1135  0.1385 -0.1460
17252W        W30666   9.942  16.792  13.056  0.0974  0.2602  0.2245
17253W        W30667  12.005   3.668   3.289  0.1382  0.4990  0.0482
17254W        W30668  14.254   2.415   5.173  0.2685  0.0086 -0.1021
17255W        W30669   5.116   5.346  15.491  0.1036  0.3644  0.2007
17256W        W30670   1.971   8.962   3.117 -0.2316 -0.2889 -0.3921
17257W        W30671   3.858   6.736  16.092  0.0897 -0.1214 -0.3476
17258W        W30672   0.016   5.271  13.692 -0.1544  0.2224  0.2011
17259W        W30673   3.649  14.648  10.501 -0.1732 -0.1770 -0.1582
17260W        W30674   2.078   6.016  15.547  0.0723  0.0039 -0.0231
17261W        W30675   7.576   0.833   0.432 -0.1970  0.2552  0.1750
17262W        W30676   1.400   5.573  15.188  0.1486 -0.0180 -0.3168
17263W        W30677   9.330   1.865   3.238 -0.1244 -0.1862 -0.1854
17264W        W30678  14.072   3.352  11.879 -0.1509 -0.2490 -0.0117
17265W        W30679   1.585  15.647  13.281 -0.0017 -0.0973  0.1104
17266W        W30680  10.288  14.776  12.276  0.0020 -0.0348  0.1051
17267W        W30681   7.332  16.521  13.069  0.1639 -0.0959 -0.3647
17268W        W30682  12.484  13.768  13.108  0.1876  0.2228  0.2319
17269W        W30683  15.319   4.696  15.793 -0.1897  0.4811  0.5983
17270W        W30684   3.280  11.454  16.236 -0.0319 -0.2036 -0.2031
17271W        W30685  17.269   0.370  16.151  0.3744  0.2343 -0.1713
17272W        W30686   6.610  10.629  14.498 -0.1152  0.0873 -0.0776
17273W        W30687  16.871   5.307   1.914 -0.1925 -0.0288 -0.2084
17274W        W30688  17.229   1.763  15.253 -0.0225 -0.0652  0.0514
17275W        W30689   8.792   5.817   1.014 -0.2453  0.1959  0.0115
17276W        W30690   4.259   2.100   3.878 -0.0925  0.2691  0.0823
17277W        W30691  10.859  13.681  13.019  0.1071  0.2187 -0.3010
17278W        W30692   3.347   2.264  11.751 -0.1413 -0.0038  0.2525
17279W        W30693   4.004   2.444  10.669  0.3284  0.2032  0.0893
17280W        W30694  10.318  15.978  14.533 -0.1540  0.1354 -0.0451
17281W        W30695  17.393  14.422  12.301 -0.2029  0.0077 -0.3715
17282W        W30696   9.406  17.039  13.851 -0.4659  0.2042  0.0728
17283W        W30697   7.038   7.768   0.893 -0.0478  0.0025  0.1503
17284W        W30698  13.832  16.128   2.435 -0.2572  0.2489  0.2267
17285W        W30699   8.715   2.618  13.703  0.1154 -0.1946  0.0733
17286W        W30700  10.852   0.177  12.603 -0.1567 -0.4167 -0.0852
17287W        W30701  17.870   3.009  12.092  0.1031 -0.2155  0.0004
17288W        W30702  15.770   6.795  16.007 -0.2770  0.0737 -0.0222
17289W        W30703   4.623  14.179   0.070  0.4858  0.4393 -0.1315
17290W        W30704  16.127   4.074   3.828 -0.0617  0.0365 -0.1147
17291W        W30705  16.722   5.366  13.029 -0.4673  0.1032  0.1858
17292W        W30706   1.764   9.553  11.610  0.1422  0.0485 -0.1333
17293W        W30707   2.013   0.611  16.278  0.0525 -0.0395 -0.1956
17294W        W30708   4.391   7.788  13.940  0.3090  0.0616  0.4553
17295W        W30709   8.108  17.799   1.668  0.0448 -0.1443 -0.0765
17296W        W30710   6.576  17.696  15.727  0.0714  0.3616 -0.0028
17297W        W30711   1.295  13.897   2.085 -0.1269 -0.0409 -0.1970
17298W        W30712   0.704  10.960  12.117 -0.0409 -0.2971  0.2372
17299W        W30713  13.498  15.178   0.190  0.4622  0.1804 -0.0737
17300W        W30714  13.831  14.551   0.693  0.2454  0.2525 -0.0377
17301W        W30715   0.452   7.900  15.132 -0.2435  0.0074 -0.2684
17302W        W30716   0.040   3.968   5.605  0.1863  0.2728 -0.1526
17303W        W30717   1.396  14.661  12.938  0.2428  0.4776 -0.0124
17304W        W30718  12.673   1.537   3.896  0.1613 -0.0962  0.0283
17305W        W30719   9.816  10.680   3.226  0.2526 -0.1390  0.3603
17306W        W30720  14.277   6.790  12.169 -0.3387 -0.0751 -0.0731
17307W        W30721   6.407  12.069   0.186 -0.2567 -0.1344 -0.0798
17308W        W30722  10.509   9.752  11.624 -0.1028  0.3627 -0.2684
17309W        W30723  15.059   0.245  13.916 -0.2573 -0.1463  0.0443
17310W        W30724  15.068  14.919   2.038  0.0289 -0.2905  0.0765
17311W        W30725  16.536   6.971  11.651  0.1087  0.0927 -0.1003
17312W        W30726   2.367   8.731  13.262 -0.0221  0.3453  0.0455
17313W        W30727   9.664  10.424  16.252 -0.2478  0.1812 -0.1261
17314W        W30728   1.366  16.665   1.559  0.0885  0.0829  0.1170
17315W        W30729   1.408   4.316  10.716 -0.2679  0.0005  0.0515
17316W        W30730  15.881  10.118  13.308  0.0138  0.2120 -0.0815
17317W        W30731  11.783   8.926  11.868  0.1558 -0.1562 -0.0914
17318W        W30732  15.247  17.811  11.406 -0.1894 -0.2666 -0.2665
17319W        W30733  13.752  16.050  15.786  0.2423 -0.1965  0.0311
17320W        W30734  11.034  16.285   9.811 -0.4180 -0.0507  0.0744
17321W        W30735   3.965  17.596   0.635 -0.1464  0.0772  0.0033
17322W        W30736  16.993   0.593  14.690 -0.2707 -0.1551  0.1934
17323W        W30737  11.664   8.951  12.405 -0.1042 -0.0869  0.1179
17324W        W30738  14.397   1.182  11.275  0.1259  0.3552  0.1749
17325W        W30739  11.738  15.843  14.988 -0.3311  0.0919  0.1694
17326W        W30740   4.630   3.255  10.506  0.0432 -0.1697  0.1362
17327W        W30741  14.383  13.064  15.631  0.2595 -0.0211  0.1265
17328W        W30742   3.031  17.650   1.123  0.1321  0.0870  0.0138
17329W        W30743   8.315  14.707   1.551  0.1132  0.0932 -0.0175
17330W        W30744   9.826  15.924  12.413  0.2778 -0.2066 -0.1070
17331W        W30745   0.839  15.754   2.198 -0.1977  0.2400  0.3224
17332W        W30746  16.289   0.252  10.975  0.1068 -0.0266 -0.2193
17333W        W30747   2.969   0.336   0.617  0.0213 -0.0300  0.0576
17334W        W30748   6.224   6.865   0.378  0.3361 -0.0648 -0.1819
17335W        W30749   1.428  16.615   1.041 -0.0810 -0.0406 -0.1245
17336W        W30750  11.410   0.068  14.033  0.3253 -0.0266  0.2176
17337W        W30751  17.365   2.210   0.042 -0.1099 -0.1801 -0.2093
17338W        W30752   8.296  15.050  12.685 -0.0211  0.0454 -0.1548
17339W        W30753   4.045   4.439  15.822  0.0343  0.2191 -0.1300
17340W        W30754   5.852   8.600   4.080  0.1241 -0.0077  0.1261
17341W        W30755  11.968  15.522  12.156 -0.1218  0.0611  0.1956
17342W        W30756   6.645   5.695  11.569 -0.1197 -0.3184  0.2840
17343W        W30757   9.009   0.920   4.965  0.0151 -0.0904  0.1415
17344W        W30758   4.150  15.037   2.979  0.1453  0.3448 -0.1243
17345W        W30759   4.351   2.837  15.869  0.1259  0.3590 -0.2299
17346W        W30760  12.068   2.184  15.880 -0.1241  0.2263 -0.1287
17347W        W30761   1.990   9.646  14.305 -0.1283 -0.3820 -0.0302
17348W        W30762  10.462   1.847   1.036  0.1724  0.2229 -0.1122
17349W        W30763  13.234   7.921   4.668  0.0092  0.2221  0.2621
17350W        W30764  17.584  10.085  15.634 -0.3841  0.0058 -0.2341
17351W        W30765  15.517   6.306   3.702 -0.1197 -0.0217 -0.2481
17352W        W30766  14.398   9.096  13.826 -0.0124  0.1855  0.2778
17353W        W30767   1.000  15.993  11.179  0.0015 -0.1584  0.0728
17354W        W30768  16.844   0.460  11.826  0.3071 -0.0125  0.1219
17355W        W30769  14.067   8.329   1.830  0.3689  0.2439 -0.1731
17356W        W30770  17.166  17.368  13.547  0.2284  0.2785  0.2015
17357W        W30771   7.877   1.881  10.300  0.3073 -0.1165 -0.1198
17358W        W30772   3.206  13.088  13.436 -0.1588 -0.3017  0.0469
17359W        W30773  11.254   7.544   1.496  0.1020 -0.0856 -0.1038
17360W        W30774   0.684   5.086   0.685 -0.0143 -0.0042  0.3043
17361W        W30775   1.936  10.592   1.717 -0.1301 -0.0788 -0.3349
17362W        W30776   6.287   3.144   1.149  0.0979 -0.3466  0.0046
17363W        W30777   6.111   2.642   2.436 -0.2952  0.1404  0.0594
17364W        W30778  13.312   2.691   2.492  0.0563  0.1539 -0.0310
17365W        W30779   3.084  16.488   0.416  0.1288  0.1146  0.0695
17366W        W30780   6.687   5.253  15.277  0.1458  0.5541 -0.0899
17367W        W30781   7.664  11.785   1.449 -0.0174  0.0107  0.2963
17368W        W30782   2.058  14.770  11.040 -0.2397 -0.2321  0.0445
17369W        W30783   5.246   8.813   4.813  0.2931 -0.2052  0.1426
17370W        W30784  10.828  14.906  10.501 -0.1966 -0.1503 -0.0851
17371W        W30785   1.674  13.720  11.808 -0.2972  0.0131  0.0220
17372W        W30786  14.623   1.843   2.832  0.2980  0.1997  0.0568
17373W        W30787  14.194  13.481  13.320 -0.0649  0.1230 -0.2398
17374W        W30788   7.790   5.685  12.425 -0.0392 -0.1337  0.0308
17375W        W30789   9.203  10.687   4.548 -0.3069 -0.2181  0.0649
17376W        W30790  10.560  15.923   1.658 -0.0815  0.0718 -0.1735
17377W        W30791   1.238   4.698  16.412  0.1380 -0.0796  0.1160
17378W        W30792   6.582   2.818   2.237 -0.1770  0.1974  0.2207
17379W        W30793   5.376  16.889   0.787 -0.0138 -0.1911 -0.1293
17380W        W30794   8.454  13.371  14.362 -0.3203  0.0591  0.0775
17381W        W30795   0.891  16.094  12.011  0.1343 -0.0009 -0.5942
17382W        W30796  10.354  12.762  14.388  0.1739  0.1487  0.1057
17383W        W30797   5.549   9.823   0.858 -0.1232  0.1650 -0.0071
17384W        W30798   3.538  14.377   4.274 -0.2752 -0.0029  0.2409
17385W        W30799   4.743   5.010  12.492  0.2635  0.3890  0.1509
17386W        W30800   2.659   4.511  16.446 -0.0491  0.1989  0.0228
17387W        W30801   6.125  15.925   3.565  0.1954 -0.1691 -0.0982
17388W        W30802  17.338   4.464   4.854 -0.2300  0.1272  0.1827
17389W        W30803   8.262  10.013  12.565  0.2320  0.0782  0.0524
17390W        W30804  11.943   9.262  12.678  0.1842 -0.1857  0.3712
17391W        W30805  16.118   3.495  14.022  0.1213  0.0298  0.0675
17392W        W30806   5.090   6.907  14.838 -0.0530 -0.0388 -0.0920
17393W        W30807   1.113  10.181   2.931  0.0960 -0.0046  0.1564
17394W        W30808   5.095   8.955   1.747 -0.1169 -0.0050  0.2060
17395W        W30809   0.929   9.983  13.540  0.0043 -0.3387 -0.0444
17396W        W30810   0.634   5.765  13.397  0.2867  0.0836 -0.0915
17397W        W30811   8.077  17.173   3.333  0.3139  0.2690  0.1914
17398W        W30812  17.750   5.765  14.378 -0.0684 -0.0917  0.3731
17399W        W30813   0.092  15.544   6.032 -0.3018 -0.2755 -0.0034
17400W        W30814  12.535  16.871   4.820  0.2032 -0.0562  0.0949
17401W        W30815  15.939   8.077   5.392  0.2101  0.0151  0.1262
17402W        W30816  11.601   0.179   0.471  0.3458  0.1588  0.0286
17403W        W30817   4.663  14.257  12.509  0.1514  0.1044 -0.0534
17404W        W30818  13.498  11.451   0.788  0.0286 -0.0069  0.0235
17405W        W30819  15.306  17.878   3.236 -0.0698  0.2704  0.1116
17406W        W30820  17.452   1.415   1.880  0.2192 -0.1905 -0.1846
17407W        W30821  10.099  12.730  13.912  0.0162  0.3289 -0.0958
17408W        W30822  13.608   1.387  13.187 -0.0731  0.3365 -0.1823
17409W        W30823   9.637  14.412   1.640 -0.2440  0.0116 -0.0089
17410W        W30824  15.766  10.235   0.934 -0.0042 -0.0210  0.2018
17411W        W30825  17.870   3.802  12.460  0.2848 -0.0251  0.2375
17412W        W30826   9.856  14.599   2.091  0.2665 -0.1641 -0.2451
17413W        W30827   2.623   1.668   3.622  0.2151  0.2151  0.0830
17414W        W30828   5.615  15.879   4.168  0.2903 -0.0854 -0.0022
17415W        W30829  11.980  15.373  10.686 -0.1662  0.0060  0.0411
17416W        W30830  16.411   9.171   5.856 -0.0979 -0.0436 -0.0287
17417W        W30831   1.263   3.053   3.920  0.0580  0.0914  0.1063
17418W        W30832  12.334   2.868  13.681 -0.1325  0.2766 -0.0168
17419W        W30833  10.671  11.368  12.358  0.1839 -0.1255  0.3344
17420W        W30834   9.912  17.167  14.999 -0.0127 -0.0285  0.1752
17421W        W30835   4.074  10.511  11.123  0.5197 -0.0475  0.0111
17422W        W30836   0.941   8.049   2.041  0.0156 -0.1011 -0.2584
17423W        W30837  12.072   4.709  13.105 -0.0170  0.1151  0.0182
17424W        W30838  10.208   5.962  16.460  0.2025  0.0603  0.3168
17425W        W30839   3.154   9.763   0.254 -0.0341 -0.0587  0.3959
17426W        W30840  14.042   0.193   1.781 -0.2799 -0.0076 -0.2512
17427W        W30841   7.939   8.151   0.892 -0.1978  0.4253 -0.1773
17428W        W30842   5.362   6.490  15.882  0.1810 -0.4809 -0.1638
17429W        W30843   8.010  17.252  14.600 -0.2377  0.1034  0.0111
17430W        W30844   7.645   4.127   2.298 -0.3060  0.1365 -0.0531
17431W        W30845   2.228   3.823   5.257 -0.0259 -0.1602  0.0808
17432W        W30846  12.806   4.974   3.507 -0.2980 -0.2545  0.0300
17433W        W30847  13.222   1.383   2.517  0.0410  0.1899 -0.3467
17434W        W30848  17.586  13.931  12.912 -0.0101 -0.0216  0.1745
17435W        W30849   1.947   0.494  11.755 -0.1302  0.2952 -0.0848
17436W        W30850   8.624   3.828   5.487  0.1098  0.0087  0.1441
17437W        W30851   9.138   5.473  12.759  0.0339  0.3952  0.2145
17438W        W30852  11.842  14.209   3.537 -0.2760 -0.1634 -0.0502
17439W        W30853   6.664   4.178  14.140 -0.1658 -0.0096 -0.1107
17440W        W30854   3.214   0.100   3.937 -0.3530 -0.0600 -0.1762
17441W        W30855  12.582  13.136   6.478  0.1469  0.1369  0.0365
17442W        W30856   9.195   5.632  13.236  0.3062 -0.3069  0.0829
17443W        W30857   7.870   8.339   2.758  0.0387  0.2329  0.3241
17444W        W30858   8.723   7.942   1.489 -0.0640  0.1621 -0.1479
17445W        W30859   8.251   2.020  16.316  0.1400 -0.1658  0.0926
17446W        W30860   7.084  18.127   4.505  0.1071 -0.1034 -0.0916
17447W        W30861   8.432  16.887  14.633  0.2711  0.0224  0.1895
17448W        W30862   4.135  10.955   3.071  0.0819  0.2582 -0.0199
17449W        W30863  13.425  15.303  14.404  0.0778  0.5171 -0.0657
17450W        W30864  13.102  11.765  15.033  0.0929 -0.0584 -0.3479
17451W        W30865  13.736   4.255   0.980 -0.0860 -0.0199  0.0268
17452W        W30866   9.539  11.758   1.909  0.1560 -0.2619 -0.0154
17453W        W30867  15.173   2.972  10.597 -0.1736 -0.0380 -0.4475
17454W        W30868  16.231  16.421   3.494 -0.1726 -0.1850 -0.1810
17455W        W30869  13.490   9.560   3.203 -0.2909  0.0799  0.0466
17456W        W30870   9.984   6.840   1.648  0.1035  0.2794  0.0624
17457W        W30871   3.171  14.418  14.142  0.1289 -0.0938  0.2861
17458W        W30872  12.019   4.541  13.809 -0.0994  0.0490  0.1348
17459W        W30873   4.079   1.875  13.659  0.1698  0.0589 -0.1293
17460W        W30874  17.492   8.341   2.874 -0.0315 -0.0183  0.0721
17461W        W30875  14.640  16.304  10.316 -0.2912 -0.0942 -0.2008
17462W        W30876   6.367   7.739   3.625  0.0354  0.0826  0.2222
17463W        W30877  12.173  13.195   3.032 -0.1501 -0.2282  0.1740
17464W        W30878  11.375  12.468  16.307 -0.0863  0.2121  0.0484
17465W        W30879  11.267  15.353  11.318 -0.1156  0.0908  0.1764
17466W        W30880   4.879  16.862   5.496 -0.1327 -0.2282  0.2894
17467W        W30881   5.407   7.234   6.046 -0.2081 -0.1560 -0.1254
17468W        W30882   3.034  11.396   4.050  0.1673  0.3186 -0.1153
17469W        W30883  10.660   4.145  16.464 -0.1339 -0.1387 -0.0145
17470W        W30884   5.076  16.614  10.335  0.0056 -0.1061  0.0045
17471W        W30885   3.773  17.960  11.534  0.1331 -0.1499 -0.0466
17472W        W30886  10.761  16.627   2.774 -0.1363 -0.1000 -0.0780
17473W        W30887  14.751  16.633   0.421  0.1554 -0.0845  0.0984
17474W        W30888   2.249  14.503  12.505  0.0173  0.1697 -0.1953
17475W        W30889  10.223  12.505  12.115  0.1810 -0.1819  0.0042
17476W        W30890   5.706  12.956   3.920  0.2218  0.0704 -0.1737
17477W        W30891  17.489   9.318   0.946 -0.1576 -0.2478  0.0127
17478W        W30892  14.923  13.204   3.309  0.1557  0.1992  0.2346
17479W        W30893  14.700  14.812   1.706 -0.3293  0.0101  0.2419
17480W        W30894   0.309  12.942  13.756  0.0538 -0.2520  0.1532
17481W        W30895   9.427   6.842   4.156  0.1974 -0.2071 -0.1297
17482W        W30896   5.443  10.987  14.670 -0.1037  0.1134  0.1006
17483W        W30897   2.306   0.245  12.221  0.1100  0.0369 -0.2202
17484W        W30898   6.750   5.983  13.070 -0.1265  0.4288  0.0926
17485W        W30899  14.345  11.111  13.248 -0.0410  0.1474 -0.3135
17486W        W30900   8.660   7.079   1.436  0.2602  0.0166 -0.0011
17487W        W30901   9.794  11.216  15.189 -0.0906 -0.1219 -0.2328
17488W        W30902   1.301   0.903   2.799  0.0819 -0.1189 -0.0339
17489W        W30903   0.036   8.934   0.851  0.0023  0.2284 -0.0991
17490W        W30904   7.289   9.367   4.329  0.1122  0.0464 -0.0230
17491W        W30905  14.292  14.794  10.344 -0.3005  0.1018  0.0156
17492W        W30906  17.408   1.992  12.738  0.1886 -0.3267  0.0528
17493W        W30907  16.485   9.669  12.845  0.1511 -0.2098 -0.0793
17494W        W30908  11.396   2.659   3.799  0.0947  0.3149  0.4501
17495W        W30909   5.436  12.154   5.204  0.1943 -0.1141  0.0389
17496W        W30910  11.554  12.324   5.096 -0.2860 -0.1605  0.0994
17497W        W30911  14.222   9.407  12.839 -0.1712 -0.3746 -0.0789
17498W        W30912   4.436   8.207   2.813 -0.1190  0.0480 -0.0338
17499W        W30913  16.559  10.313  11.917  0.1203  0.0280 -0.1617
17500W        W30914   7.584  10.953   4.292  0.1487  0.2342 -0.0783
17501W        W30915  16.492   4.319  12.814 -0.0776 -0.1454 -0.2449
17502W        W30916   5.572   4.933  14.863  0.1553  0.2099  0.0930
17503W        W30917   0.034  10.141   0.069  0.1799  0.0668  0.0268
17504W        W30918  13.257   0.807  14.811  0.2318  0.0960 -0.1455
17505W        W30919   6.849  14.573  16.144 -0.1573 -0.0150 -0.1149
17506W        W30920   1.027   0.473   0.707 -0.1084 -0.0792 -0.1442
17507W        W30921   7.452   4.384  13.562  0.1148 -0.2439 -0.0359
17508W        W30922  17.909   8.489   4.663  0.0228  0.0364 -0.1687
17509W        W30923   8.895  13.407   4.860  0.1638 -0.0814 -0.1238
17510W        W30924  11.189  13.329   2.963 -0.0938  0.2040  0.1900
17511W        W30925   5.303   9.543   3.145  0.0663 -0.0362 -0.0372
17512W        W30926   6.375   7.060  11.131 -0.1289  0.1127  0.1171
17513W        W30927   1.483   5.357  10.485 -0.4495 -0.1785  0.0697
17514W        W30928   7.907   1.823   2.776 -0.2059 -0.0478 -0.0699
17515W        W30929  12.673   4.808  15.914  0.1342 -0.0325  0.3505
17516W        W30930   5.169   7.877   3.890 -0.0363  0.1072 -0.1471
17517W        W30931   2.685   8.056   1.412 -0.0101  0.2171 -0.0239
17518W        W30932  13.189   8.614  15.475 -0.6761  0.1158  0.3139
17519W        W30933   2.337   9.790  15.642 -0.1058  0.1528 -0.0106
17520W        W30934  16.140   3.942  11.024  0.1145 -0.1845  0.0136
17521W        W30935   6.785   7.401   0.584  0.0186 -0.1675 -0.0524
17522W        W30936  18.165  14.663   5.570 -0.1100 -0.0207 -0.0985
17523W        W30937  10.988  14.049   5.825 -0.2224 -0.3723 -0.1768
17524W        W30938   8.528  12.660   5.260 -0.0610 -0.1191 -0.1390
17525W        W30939   1.014   1.419  11.695  0.0858 -0.2553  0.0976
17526W        W30940  10.157  11.021  13.869 -0.0497  0.2484 -0.1886
17527W        W30941  15.966   5.468   1.577  0.1190  0.2069 -0.0014
17528W        W30942   8.636   3.160  13.905  0.0734  0.1901  0.1100
17529W        W30943  16.141   7.261   4.175  0.1176  0.1906 -0.0569
17530W        W30944   7.036  12.093  12.245  0.0406  0.1862 -0.2740
17531W        W30945   7.092  10.201  12.990  0.1510 -0.1703  0.1096
17532W        W30946  10.151  13.714  14.063 -0.3235 -0.0052  0.0183
17533W        W30947  10.921   1.316  13.555 -0.0378 -0.1522  0.1200
17534W        W30948   4.892   1.356   6.546  0.2385 -0.3237 -0.1533
17535W        W30949   0.843  17.476   5.617 -0.2281  0.0077  0.0693
17536W        W30950   6.086  11.661   1.649 -0.0984 -0.2088  0.0500
17537W        W30951  10.165  13.658  10.351  0.1767 -0.0287  0.3076
17538W        W30952  11.652  10.888  14.825  0.3434  0.1061  0.0700
17539W        W30953   4.854   5.234  15.050 -0.4187 -0.2024 -0.0278
17540W        W30954   8.529   4.059  15.786  0.0526  0.1606  0.0144
17541W        W30955  11.367  16.369  15.286  0.0014 -0.0568  0.0030
17542W        W30956  17.940   1.725   4.277  0.1487 -0.1303 -0.0715
17543W        W30957  10.841   3.801  15.206 -0.1781  0.0088 -0.3262
17544W        W30958   8.514  12.136  16.044 -0.1672 -0.1640  0.2741
17545W        W30959   5.630   7.188   2.389 -0.1218  0.0002  0.3977
17546W        W30960  10.249   5.046  14.258  0.0459 -0.1951  0.2217
17547W        W30961  10.686  13.359   3.030 -0.0884  0.0133 -0.0721
17548W        W30962  17.605   4.737  14.431 -0.0717  0.4207 -0.0103
17549W        W30963  12.666  12.437   6.533  0.1449 -0.3538  0.0122
17550W        W30964  13.421   4.962   0.498 -0.0216  0.4466  0.0316
17551W        W30965  11.368   3.055  11.567 -0.0032  0.1518 -0.0250
17552W        W30966   9.920   5.260  11.416  0.0826 -0.1506  0.0144
17553W        W30967  11.575   6.572   3.628  0.0674 -0.0667 -0.0991
17554W        W30968   7.707  17.557   3.485  0.1130  0.1308 -0.0243
17555W        W30969  14.974  11.479   6.195  0.3648  0.0699 -0.1162
17556W        W30970  15.190   3.747  10.889  0.3843  0.1195  0.0483
17557W        W30971   8.435  10.569  11.824  0.3606 -0.1417  0.1837
17558W        W30972   2.365  10.307  16.171 -0.0433  0.2178  0.0002
17559W        W30973  11.227  11.085  15.565 -0.2864 -0.1089  0.0631
17560W        W30974   4.071   6.643  13.721 -0.1043  0.1245 -0.1979
17561W        W30975  18.056  13.407  11.633  0.1846  0.1244  0.2337
17562W        W30976  13.645   7.831   0.775 -0.2603  0.3581  0.0973
17563W        W30977  17.975  13.234   2.986 -0.3912 -0.2602  0.0894
17564W        W30978   2.771  13.460   1.579  0.0302 -0.2169 -0.1774
17565W        W30979  15.555  11.811   2.598 -0.4789 -0.0363  0.2049
17566W        W30980   8.127   0.613   9.906  0.1180 -0.0574 -0.0800
17567W        W30981   0.089  14.661  10.108 -0.1236 -0.0944 -0.1238
17568W        W30982   9.947   3.381  12.754 -0.3474  0.0367  0.0770
17569W        W30983   5.444  14.679  13.198  0.0495  0.1188  0.1787
17570W        W30984   0.832  17.975   0.497  0.3370 -0.2326 -0.2304
17571W        W30985  13.154   8.563  16.425 -0.3093  0.2003 -0.1954
17572W        W30986  13.789  16.264  10.460 -0.2701  0.3554  0.1085
17573W        W30987   9.353  10.937  12.008  0.0700 -0.2272  0.1632
17574W        W30988   2.776  11.052  15.247 -0.2285  0.0903  0.1033
17575W        W30989   7.016   3.893  10.387 -0.2032 -0.0716 -0.5166
17576W        W30990  17.123  10.449  11.769  0.0510  0.1688  0.0234
17577W        W30991  15.782  10.538  16.223  0.0784  0.2425  0.0147
17578W        W30992   2.089   4.529   0.018 -0.2523 -0.1385  0.1660
17579W        W30993   3.137  17.127   1.180 -0.0387 -0.2601 -0.5162
17580W        W30994   3.596  17.354  14.321  0.2744  0.1214 -0.2918
17581W        W30995  17.448  17.703  15.750  0.1534 -0.2572 -0.0588
17582W        W30996   4.754   6.145  10.501  0.0014 -0.0902 -0.0517
17583W        W30997   2.078   7.266   0.480  0.1666  0.0717 -0.0904
17584W        W30998  15.445   2.252   5.324 -0.0952  0.1302  0.0410
17585W        W30999   2.649  11.578  13.053 -0.1743 -0.3563 -0.1111
17586W        W31000  11.618   4.023   3.497  0.0126  0.1619  0.1226
17587W        W31001   3.374   9.050  13.002 -0.0804  0.0851  0.0429
17588W        W31002   7.760  13.519  14.902 -0.2717 -0.0995 -0.0638
17589W        W31003  15.755   0.033  13.309  0.2419  0.0380  0.0328
17590W        W31004  15.986   7.354  10.048 -0.1929 -0.1221 -0.1661
17591W        W31005   8.806  12.382  15.178 -0.3089  0.2792 -0.0298
17592W        W31006   3.056  17.383  14.327  0.0619  0.2314  0.2334
17593W        W31007  14.582   7.050  11.858  0.0213  0.0054 -0.0585
17594W        W31008  11.571  10.579  13.619  0.0369  0.0573 -0.3438
17595W        W31009   8.052   5.646  14.293  0.0944 -0.0549  0.0807
17596W        W31010  12.093   1.904   1.710 -0.0763 -0.0051 -0.0321
17597W        W31011  13.768  11.543  11.448  0.0637  0.0464 -0.0025
17598W        W31012  12.400  17.122   2.349 -0.1689 -0.0015  0.0367
17599W        W31013   2.505   5.794   6.249  0.0062  0.1700  0.1413
17600W        W31014  11.908   5.794   2.548  0.0714 -0.1169 -0.0436
17601W        W31015  11.144  10.715  15.140  0.0591  0.2225 -0.1747
17602W        W31016  10.594   3.656   5.263 -0.0953  0.0198 -0.1104
17603W        W31017  12.428  11.655  12.633  0.1078 -0.1041 -0.0488
17604W        W31018   1.774  14.838   0.128  0.1017  0.1268  0.1040
17605W        W31019   1.296  11.764   1.593  0.1192 -0.0782  0.2480
17606W        W31020  17.619   7.683  12.387  0.0714 -0.1951  0.4549
17607W        W31021  11.137  14.825  13.469  0.2165 -0.1543  0.0735
17608W        W31022   5.034  12.595  16.341 -0.3829 -0.0904  0.2043
17609W        W31023  13.808   6.333   0.487 -0.2800  0.3054 -0.2108
17610W        W31024   4.831  11.589   1.186  0.0667 -0.0714 -0.2294
17611W        W31025  16.664   4.119  10.034 -0.0176 -0.0378  0.0260
17612W        W31026  16.224   0.862  12.364  0.2028 -0.2115 -0.0216
17613W        W31027  11.306   5.978   0.825  0.0989  0.2279  0.0916
17614W        W31028  14.047   4.135   4.887  0.0214  0.2119  0.1152
17615W        W31029   2.533   2.562  12.067  0.0624 -0.3257 -0.1776
17616W        W31030  10.984   2.977  14.038 -0.0247 -0.0779 -0.1520
17617W        W31031  10.539   2.044  11.114  0.1462 -0.3433  0.0476
17618W        W31032  16.349   1.289   4.541 -0.0665  0.1474 -0.2619
17619W        W31033   8.956  13.153   3.588 -0.0716 -0.0816  0.0162
17620W        W31034   1.692   7.161  14.506 -0.1911 -0.0769 -0.2298
17621W        W31035  17.804   2.375   2.040 -0.0363 -0.1175 -0.0617
17622W        W31036   7.318  11.552  11.870  0.3148 -0.0944  0.2731
17623W        W31037   1.749   6.522   1.281  0.0256 -0.1711  0.0981
17624W        W31038   5.417  10.717   1.209  0.0050 -0.1259 -0.0657
17625W        W31039  17.806   1.553  15.905 -0.1368  0.0021 -0.2413
17626W        W31040  16.487  14.742  11.655  0.0874 -0.0352  0.3009
17627W        W31041  14.748  17.862  10.640  0.0884 -0.1581 -0.2533
17628W        W31042   9.125  18.034   9.972 -0.2305  0.0513  0.2158
17629W        W31043  15.625   4.083   3.296  0.0684 -0.0370 -0.0628
17630W        W31044  15.124  13.662   2.375  0.1276 -0.0147  0.0999
17631W        W31045  15.148  11.839  11.008  0.2024  0.2157 -0.2569
17632W        W31046  14.298   3.957  15.448  0.0812 -0.0237  0.0698
17633W        W31047  10.855   4.659  10.385  0.3222  0.1429 -0.3157
17634W        W31048   3.270  17.711   2.757 -0.1575 -0.2100 -0.1311
17635W        W31049   3.381  11.309  14.627 -0.0600  0.0381 -0.1056
17636W        W31050   9.994   4.521   1.783 -0.0620  0.2337  0.4067
17637W        W31051  17.048  16.220   1.266  0.1011 -0.0868  0.0344
17638W        W31052   2.857  17.856  15.091 -0.2478 -0.1643  0.0338
17639W        W31053   8.691   6.478   2.086  0.2212  0.2293 -0.0829
17640W        W31054   3.916  14.692  14.622  0.0511 -0.2305  0.0196
17641W        W31055  13.470   2.609   1.452 -0.2183 -0.2045  0.0861
17642W        W31056  11.714  12.709  15.975  0.0457 -0.1171  0.0394
17643W        W31057   4.929   0.027  13.669 -0.0596 -0.2074  0.0409
17644W        W31058   3.665  16.234   3.057 -0.1280  0.0217 -0.3037
17645W        W31059  18.002   6.316  14.759  0.1613 -0.3269 -0.0847
17646W        W31060   9.749   8.055   5.954 -0.0862 -0.1752  0.1618
17647W        W31061   8.439   7.267   6.496 -0.2215 -0.2580 -0.1100
17648W        W31062   8.997   0.814   1.769 -0.0360  0.1137 -0.0601
17649W        W31063   3.171  16.523  15.364 -0.1492 -0.0489 -0.2439
17650W        W31064  17.622  15.267  15.830  0.4363  0.3053  0.1985
17651W        W31065  13.831   2.206   5.229  0.1987 -0.1995 -0.0330
17652W        W31066  16.156   6.563  10.224 -0.2332  0.0864  0.1998
17653W        W31067   1.674  14.212   1.879 -0.0265 -0.0494  0.0107
17654W        W31068  14.531  10.960   3.554  0.0206  0.0531 -0.2084
17655W        W31069  14.338   1.723   3.310 -0.0493  0.0345  0.2098
17656W        W31070  13.935   7.572   1.108 -0.1382 -0.1916 -0.2139
17657W        W31071  14.126   6.775  14.575 -0.0917 -0.0934  0.5357
17658W        W31072  17.593   0.801  10.954 -0.0422 -0.0141  0.1527
17659W        W31073   7.715  10.409  11.265  0.1456 -0.4008 -0.1447
17660W        W31074  15.429  13.452   4.548  0.0929 -0.2859  0.0266
17661W        W31075   3.819   8.655   6.667  0.1074 -0.3416  0.2533
17662W        W31076   1.965  18.088   5.089 -0.1579  0.0079 -0.2079
17663W        W31077   7.601   4.006  14.485 -0.2076  0.1461  0.0530
17664W        W31078  13.331   7.178  16.112  0.0710  0.1519  0.1731
17665W        W31079   7.470   1.590   5.423 -0.0691  0.0311  0.0271
17666W        W31080  14.303  15.674   4.228 -0.0552 -0.3031  0.2696
17667W        W31081  11.590   3.522   0.606  0.0240 -0.1332 -0.0129
17668W        W31082   2.838   7.987   2.384 -0.1548  0.0965 -0.2348
17669W        W31083  17.072   4.804  13.608  0.2458 -0.2326  0.0846
17670W        W31084  12.920  11.375  14.021 -0.1079 -0.0038  0.0205
17671W        W31085   8.165  15.190  13.133 -0.1942  0.0393 -0.3608
17672W        W31086  17.519  17.593  13.052 -0.0203 -0.1030 -0.0409
17673W        W31087   2.846  12.235   5.743 -0.0406  0.0518  0.0008
17674W        W31088  15.748  17.977   3.590 -0.0283 -0.0400 -0.0773
17675W        W31089   3.842   8.451  10.764  0.1069 -0.0114 -0.1165
17676W        W31090   5.248   4.429  15.979 -0.0756  0.0128 -0.1365
17677W        W31091  11.383   5.997  11.361  0.1276  0.0137  0.1065
17678W        W31092  10.906   5.094   0.945  0.1447 -0.0217 -0.0913
17679W        W31093  12.302   4.837  16.289  0.0833 -0.1341 -0.2111
17680W        W31094   1.217   0.097  10.600 -0.1998 -0.0636 -0.1586
17681W        W31095  13.006  14.408  14.489  0.2364  0.1472 -0.0948
17682W        W31096   7.575   8.032  10.786  0.0545 -0.2273 -0.0750
17683W        W31097   9.926   7.897   5.159  0.0504 -0.1368  0.0216
17684W        W31098  12.004   7.701  16.424 -0.0290 -0.0593  0.2116
17685W        W31099   0.921  14.798  12.913  0.0686  0.2224 -0.3828
17686W        W31100  18.112   9.870   5.657  0.3677 -0.2954  0.2824
17687W        W31101  13.602   2.242  13.613  0.0787 -0.1012 -0.2729
17688W        W31102   6.395   8.974   5.593  0.1520 -0.0454 -0.2762
17689W        W31103  16.522   1.346   0.514  0.2182 -0.0340  0.2660
17690W        W31104  13.760   8.053   3.533 -0.0392  0.2243 -0.0023
17691W        W31105  12.731   1.305  13.780 -0.0944 -0.2457 -0.3972
17692W        W31106  10.958  10.195  12.977  0.3980 -0.4205  0.2386
17693W        W31107  17.755   1.045   3.726 -0.0426  0.0998 -0.0220
17694W        W31108   1.232  15.375  13.422 -0.1536  0.1651 -0.2938
17695W        W31109   3.721   7.070  10.419  0.1138 -0.1886  0.0107
17696W        W31110  17.786   2.203  12.462  0.1036  0.1445 -0.0976
17697W        W31111   3.523   1.191   0.692  0.0418  0.2623  0.0543
17698W        W31112  15.696   2.851   3.764  0.0635 -0.1553  0.1234
17699W        W31113   6.727  12.071   5.989  0.0861 -0.0616 -0.2688
17700W        W31114  13.584   7.659   3.260  0.3885  0.0004  0.1409
17701W        W31115   5.769   4.323   1.833 -0.1566 -0.1444  0.0411
17702W        W31116  16.500  15.013   4.779  0.1549 -0.1461 -0.1299
17703W        W31117   9.528   0.190  12.337 -0.0028 -0.1226  0.0531
17704W        W31118  12.728  15.039   5.510  0.2338  0.2653 -0.0705
17705W        W31119   1.998  14.669   2.920 -0.1259 -0.1489 -0.1157
17706W        W31120  15.921  14.234  13.069  0.0426  0.0808 -0.0801
17707W        W31121  10.474  17.975   3.396  0.0275  0.0262 -0.2304
17708W        W31122  10.180  10.229  13.390  0.3622  0.0277  0.1170
17709W        W31123  10.961   7.102   6.616 -0.3239  0.1142 -0.0039
17710W        W31124  16.392   3.879  11.435  0.1317  0.1308 -0.4571
17711W        W31125   1.618   6.077  14.491  0.3175 -0.1318 -0.1115
17712W        W31126  15.507  11.346  10.843  0.0087 -0.0829  0.1372
17713W        W31127   2.400  10.558   5.027  0.1934  0.0178 -0.0762
17714W        W31128  15.660  11.323   1.111 -0.2077 -0.2769  0.1354
17715W        W31129   1.643  16.893  12.924 -0.0626  0.0700  0.1554
17716W        W31130  12.120  11.771   6.295 -0.0799 -0.0573 -0.4249
17717W        W31131  11.687   4.093  15.602  0.0793  0.2896  0.1450
17718W        W31132  13.395   3.805  14.058  0.0003  0.2696 -0.1071
17719W        W31133   9.018  16.229  11.853 -0.1693  0.1150  0.0426
17720W        W31134   2.476   0.543  11.758  0.2472 -0.2897 -0.1229
17721W        W31135   6.201  12.705   4.872  0.1529 -0.0101  0.0482
17722W        W31136   5.851  10.242  13.600  0.1397  0.2200 -0.3177
17723W        W31137   5.277   4.795   3.921 -0.1814 -0.0629 -0.3208
17724W        W31138   2.982  16.491  12.820 -0.0730 -0.0783 -0.3973
17725W        W31139   7.940  16.709  10.350 -0.1560 -0.1871 -0.2608
17726W        W31140   4.441  11.121   4.032  0.0625 -0.0530 -0.1995
17727W        W31141   2.162  12.341  14.071  0.1894  0.0417  0.0866
17728W        W31142   3.075   6.655   0.250  0.1274  0.1893  0.1171
17729W        W31143   1.076  15.575   0.251 -0.1447 -0.2149  0.1565
17730W        W31144  13.022   0.320   5.159  0.2976 -0.0668 -0.0965
17731W        W31145   6.402  10.121   5.660 -0.0056 -0.1133  0.0616
17732W        W31146   6.606   8.974   2.265 -0.2208 -0.2204 -0.0482
17733W        W31147  11.057  10.201   0.193  0.1355  0.1472  0.1007
17734W        W31148  13.291   6.115   3.198  0.0951  0.2774 -0.1637
17735W        W31149  10.268   1.927  11.534 -0.1259 -0.0721  0.1409
17736W        W31150  18.164  15.415   4.051  0.1056  0.0241 -0.0858
17737W        W31151  10.795   9.386  12.737  0.1578  0.1704 -0.1258
17738W        W31152   7.205  10.130   0.773  0.1311  0.0139  0.1224
17739W        W31153  10.842   2.595   1.770 -0.1410  0.1524  0.1057
17740W        W31154  10.881  13.682  16.365  0.0521 -0.1013 -0.1168
17741W        W31155  15.386   1.824   5.992  0.1703  0.0763 -0.0416
17742W        W31156   1.466   2.432   2.141  0.1092 -0.0603  0.1262
17743W        W31157  18.095   7.581   5.247 -0.2298  0.0274  0.0597
17744W        W31158   8.185   4.402  10.442  0.0491  0.2868  0.2082
17745W        W31159  14.872  17.491  13.087 -0.2661  0.0676 -0.1420
17746W        W31160   1.762   6.118   3.544  0.4044  0.0197  0.0717
17747W        W31161   0.170   0.558   4.750 -0.2281  0.1906  0.1588
17748W        W31162  14.551  10.449   3.039  0.2226  0.0223  0.2183
17749W        W31163   0.811  13.908  14.897 -0.0609 -0.0213 -0.3439
17750W        W31164  12.172  13.063   5.057 -0.1486 -0.2923  0.0790
17751W        W31165  17.947   8.133   0.604 -0.0420 -0.0211  0.0029
17752W        W31166   0.965  11.782  12.627  0.0865  0.1916 -0.0476
17753W        W31167   7.209  16.948  15.726  0.1344 -0.2289  0.2097
17754W        W31168  15.014  11.547  13.817 -0.2146 -0.2172  0.2305
17755W        W31169   9.142   8.140   3.768 -0.0694  0.1129  0.0347
17756W        W31170  11.020   7.643  16.242  0.0413 -0.1184  0.0545
17757W        W31171   0.260  10.877  14.829  0.1747  0.0071 -0.0297
17758W        W31172   5.761  13.756   4.260  0.0843 -0.0236  0.1612
17759W        W31173   2.416   4.963  16.388  0.0998 -0.2004  0.2272
17760W        W31174   2.765   6.063   0.806 -0.1374 -0.0285  0.2078
17761W        W31175   6.395   8.873   4.290 -0.0579  0.1189  0.0489
17762W        W31176   9.287   0.888  13.257  0.0569  0.2620  0.0767
17763W        W31177  12.819  13.968  14.731  0.0137  0.0883  0.1968
17764W        W31178  12.991   9.742   5.159  0.3959 -0.0284 -0.2261
17765W        W31179   0.315   5.200   1.708  0.1238  0.1378 -0.0804
17766W        W31180   3.106   6.617   2.424 -0.0499 -0.0723 -0.3611
17767W        W31181   6.122   6.429   1.938 -0.1823 -0.0279 -0.0630
17768W        W31182  14.407   5.566  16.334  0.0515 -0.0208  0.3102
17769W        W31183   6.450   3.741  13.906  0.1071 -0.1150 -0.1459
17770W        W31184   6.588   8.198   5.581 -0.1413 -0.0956  0.2079
17771W        W31185  14.976  16.569  10.685  0.3826 -0.1456  0.1249
17772W        W31186   7.302   8.261   4.822  0.0317  0.0609  0.1852
17773W        W31187  15.261   9.303   0.949 -0.0698  0.0222  0.1521
17774W        W31188   1.735  16.790  13.438 -0.1305 -0.2352  0.3837
17775W        W31189   8.414   8.662   1.137 -0.1722 -0.0953  0.2567
17776W        W31190  14.888   3.357  15.178 -0.2232  0.1906  0.0963
17777W        W31191  18.024  14.881  15.666  0.2770 -0.2208  0.3695
17778W        W31192  11.623  18.008   0.046 -0.2785  0.0985  0.0557
17779W        W31193  15.912   0.535  11.238  0.0736  0.0967  0.0206
17780W        W31194  16.808   5.605  14.469 -0.2017 -0.2515  0.2750
17781W        W31195   4.392  12.823  12.942 -0.1137 -0.1032  0.0584
17782W        W31196  14.612   5.907   1.214  0.0727 -0.2548 -0.0274
17783W        W31197  10.175  11.787  15.981 -0.0528  0.3001 -0.0858
17784W        W31198   5.449   2.191  10.710 -0.1712 -0.4674  0.3750
17785W        W31199  11.778  17.942  12.636  0.2120  0.2335  0.1778
17786W        W31200  16.129  10.821  13.614 -0.0210 -0.1325  0.0055
17787W        W31201   2.586  16.422  11.377 -0.1499  0.0296  0.1826
17788W        W31202   3.680   6.896  15.303 -0.5855 -0.2604  0.0217
17789W        W31203  10.223   2.142   4.614  0.1212 -0.2500  0.2066
17790W        W31204   8.172  13.117   4.106  0.1938 -0.1086 -0.1745
17791W        W31205  10.738  15.007  14.718 -0.1563 -0.0794 -0.0516
17792W        W31206  16.528   5.834  10.824  0.1018  0.0931  0.2243
17793W        W31207   8.047   3.614  13.300 -0.0407 -0.0448  0.0140
17794W        W31208   6.240   0.162  12.444 -0.1424  0.3163 -0.0636
17795W        W31209  12.885   6.600   0.882 -0.1172  0.0548  0.0854
17796W        W31210   5.570   3.739   5.380 -0.2506 -0.0673 -0.2613
17797W        W31211   3.393  14.333  11.278  0.0688  0.1086 -0.1263
17798W        W31212  10.461   3.807  10.876  0.2812  0.1869 -0.2159
17799W        W31213  17.202   7.254   5.137 -0.1797  0.3524 -0.1362
17800W        W31214   8.405   1.920   3.439  0.0547 -0.4307  0.0359
17801W        W31215  12.270  11.877  14.270  0.0166  0.1684 -0.1002
17802W        W31216   4.790  12.139   3.125 -0.0316  0.3798  0.0105
17803W        W31217   5.523   6.608   5.718 -0.0154 -0.0040  0.0635
17804W        W31218   7.669  17.435   3.003 -0.1960  0.0220  0.1784
17805W        W31219   5.530   7.515   0.063 -0.1293  0.0825 -0.1771
17806W        W31220   6.081  12.656  11.126 -0.3250  0.1791  0.0739
17807W        W31221  16.287   7.230   2.878 -0.2248 -0.0532 -0.1237
17808W        W31222   5.824   0.855  11.905 -0.1424  0.0258  0.0376
17809W        W31223   5.286   7.057  11.787 -0.0764 -0.0630 -0.2474
17810W        W31224   2.653  17.470  12.847 -0.0999 -0.0721 -0.2856
17811W        W31225   8.145  17.976   2.193 -0.1092 -0.3047  0.0253
17812W        W31226   4.696   0.247   3.862  0.0586  0.1401  0.2309
17813W        W31227  12.715  14.001   2.793 -0.0645 -0.1836  0.2360
17814W        W31228  17.700  15.816   0.592 -0.0568  0.0256 -0.2950
17815W        W31229  15.618   9.780  11.643 -0.2096  0.2548  0.1417
17816W        W31230   9.047   3.443  10.571 -0.0894  0.2040 -0.1208
17817W        W31231   2.230   3.505  14.908 -0.2673  0.0983 -0.0401
17818W        W31232  15.127  12.547   4.372 -0.1541 -0.2405 -0.1251
17819W        W31233   1.462   7.921   2.125  0.0590 -0.3067  0.1598
17820W        W31234   8.888   1.987   3.787 -0.0309  0.1196 -0.3502
17821W        W31235   6.475   3.012   0.670  0.0121 -0.2996 -0.2718
17822W        W31236  16.568  12.742   3.317 -0.0314 -0.0563  0.1034
17823W        W31237  16.251  13.502   2.275 -0.3711 -0.0723  0.0877
17824W        W31238  10.322   5.581   2.776 -0.1518 -0.0140  0.0780
17825W        W31239   6.635   8.201  15.554  0.2316  0.1156  0.2080
17826W        W31240  17.547   8.991   0.043 -0.3359 -0.2097 -0.1807
17827W        W31241   4.478   1.392  13.510  0.0158  0.0692 -0.0191
17828W        W31242   6.736   1.430  11.608 -0.0209 -0.2272 -0.0774
17829W        W31243   6.228  15.290  10.765 -0.0680  0.2786 -0.0700
17830W        W31244  14.349   7.723   4.237  0.2196  0.1844  0.1090
17831W        W31245   4.158  16.984  11.031 -0.2207  0.0576 -0.1681
17832W        W31246  14.974  10.944  14.448 -0.2438 -0.1106  0.0970
17833W        W31247  14.955  10.654   3.279 -0.1685  0.0892 -0.0554
17834W        W31248   6.754   9.331  14.776  0.0327 -0.0747 -0.2672
17835W        W31249   2.647  15.430  15.231 -0.0548  0.1136 -0.0327
17836W        W31250  17.801   4.282   1.490 -0.1191  0.0107  0.1983
17837W        W31251  12.788   1.455   4.379  0.0110  0.0556 -0.1622
17838W        W31252   7.252   6.806  13.714 -0.0802  0.0609 -0.1406
17839W        W31253  11.513  17.912  13.640  0.0760 -0.5595  0.0594
17840W        W31254   7.092  13.134   3.526  0.1331 -0.0112  0.1169
17841W        W31255  15.931  10.357  14.604  0.0193 -0.0121 -0.2290
17842W        W31256  10.163   9.810   6.897 -0.1147 -0.1523  0.0729
17843W        W31257  14.878  14.583   1.208 -0.1328  0.1516 -0.1126
17844W        W31258   0.458   3.227   0.722 -0.1648  0.0453  0.0723
17845W        W31259   6.234   4.971   1.291  0.3159  0.1686 -0.3074
17846W        W31260  13.814  14.708   1.744 -0.0837 -0.1140 -0.3564
17847W        W31261  10.334   6.810  15.474 -0.0346 -0.2789 -0.0351
17848W        W31262   7.963  14.513   1.880  0.1408 -0.0657  0.0135
17849W        W31263  12.545   9.123   2.929  0.0491  0.1952  0.0376
17850W        W31264   8.348  17.240  15.009  0.1879  0.0341 -0.0668
17851W        W31265   2.247   3.151   5.807  0.0207 -0.0106 -0.0448
17852W        W31266   6.734   0.385  13.356  0.1302  0.0721 -0.1808
17853W        W31267   1.705  12.078  11.171 -0.3864 -0.1751  0.0510
17854W        W31268  17.444  12.105  13.001 -0.0831 -0.2287  0.3710
17855W        W31269  17.443   3.276   4.816 -0.0234  0.2508  0.1316
17856W        W31270   6.254   9.545   5.638 -0.1581  0.3717 -0.1480
17857W        W31271  14.975  13.591   5.442  0.0530 -0.2344 -0.3587
17858W        W31272  13.449   2.185  15.604 -0.4646 -0.2614  0.1219
17859W        W31273  16.924  15.850  13.086 -0.2168 -0.2317  0.3287
17860W        W31274  10.128  16.628  11.295  0.1664  0.2353 -0.0081
17861W        W31275  18.048  15.660   5.628  0.0612  0.1117  0.1469
17862W        W31276  17.482  12.788  14.670 -0.0882 -0.0321  0.2471
17863W        W31277   6.160  10.224   3.593  0.1149 -0.1863  0.0785
17864W        W31278   5.735   9.782   1.321  0.0735  0.0988  0.2987
17865W        W31279   9.807   8.084  16.099  0.2988 -0.1374 -0.1758
17866W        W31280   3.942  10.979   0.462  0.1749 -0.1035  0.2029
17867W        W31281   2.300  17.218  15.106 -0.1180  0.3007 -0.0133
17868W        W31282  12.715   9.574  14.721  0.2194 -0.0267  0.0307
17869W        W31283   2.801  13.157   3.938  0.1862  0.2400  0.1436
17870W        W31284   7.381   5.619   2.208 -0.0715 -0.0079 -0.1664
17871W        W31285  17.336   8.646   5.429  0.0521  0.1541 -0.0657
17872W        W31286   6.922  17.940  14.025 -0.0526 -0.1023 -0.1646
17873W        W31287   6.936  16.364  15.678 -0.0066  0.2402  0.2465
17874W        W31288  15.377   7.292  15.075  0.4033 -0.1195  0.0152
17875W        W31289  16.329  17.564  11.440 -0.1225 -0.3711 -0.0225
17876W        W31290  16.832  13.622   1.845 -0.0529  0.3647 -0.2002
17877W        W31291  17.639   7.780   3.695  0.1537 -0.1622  0.0086
17878W        W31292  12.422   5.834  13.757  0.0720  0.0299  0.1316
17879W        W31293   2.423   6.037   2.216  0.0791 -0.2173  0.1833
17880W        W31294   8.939   0.227   9.851 -0.2250 -0.0028 -0.0326
17881W        W31295   6.399  12.768   2.364 -0.0320  0.0339  0.0947
17882W        W31296  14.948   8.978   3.052  0.0010  0.3056 -0.1625
17883W        W31297  14.888   7.465   2.996  0.4016  0.0147  0.0052
17884W        W31298   5.883  14.706  15.380 -0.1442 -0.0246  0.2260
17885W        W31299   7.393  12.799  13.349  0.0469 -0.0491 -0.3927
17886W        W31300  11.229   2.224   1.947 -0.3349  0.0591 -0.3202
17887W        W31301  14.541  11.209  11.183  0.0190  0.1570  0.0621
17888W        W31302  11.911   9.229   1.650 -0.1483  0.0254  0.1014
17889W        W31303   8.857  10.466  14.381  0.1014 -0.1134 -0.0951
17890W        W31304  14.423   0.358   0.475 -0.0999 -0.0863  0.1106
17891W        W31305   0.818  16.779  15.503  0.2102  0.7531 -0.1346
17892W        W31306   0.085  11.323   9.962 -0.1156  0.0099 -0.1581
17893W        W31307   2.056   4.916   3.108  0.2425 -0.3113 -0.2213
17894W        W31308  12.566  16.234  12.191 -0.0796  0.1636 -0.0132
17895W        W31309   4.098  17.213  12.946  0.1587  0.1063  0.3198
17896W        W31310   6.562  13.637   3.748 -0.3230  0.0414 -0.3554
17897W        W31311   0.269  15.989   0.793  0.0391 -0.0596 -0.0237
17898W        W31312  10.323   9.873  14.580 -0.1130  0.0204  0.3045
17899W        W31313  13.348   5.541  13.871 -0.4395  0.1417  0.1883
17900W        W31314   8.755  14.869   2.725 -0.0211 -0.0235  0.1816
17901W        W31315  11.781   4.146  13.614  0.3044  0.1753  0.0133
17902W        W31316   9.396  10.082  16.031  0.0356  0.4866  0.1261
17903W        W31317  16.367   5.956  13.866 -0.0482  0.0504  0.1153
17904W        W31318   7.682  15.905   0.786 -0.0741 -0.1784  0.0791
17905W        W31319   6.818   0.917   3.867 -0.0021  0.2623  0.2927
17906W        W31320  15.112  10.363   0.154  0.0772 -0.0981  0.0471
17907W        W31321  12.074   0.222  16.040 -0.2416 -0.0425  0.4372
17908W        W31322   4.858   1.323  12.056 -0.1517 -0.0466 -0.3861
17909W        W31323  14.561  13.857   1.051  0.3235  0.0604  0.0699
17910W        W31324  16.148   3.877   1.175  0.0076  0.4166 -0.1738
17911W        W31325   5.615  17.287  16.359  0.0672  0.3463 -0.0866
17912W        W31326  11.690   8.361   2.012  0.1493  0.1195  0.1449
17913W        W31327  16.940   7.383  12.049 -0.1520  0.1302  0.0665
17914W        W31328   1.993  15.807   0.688 -0.0344  0.0818  0.1817
17915W        W31329  10.298   6.668   4.141 -0.1964  0.2245  0.1122
17916W        W31330  14.880  16.180  10.964  0.0505 -0.0064  0.2225
17917W        W31331   9.582   5.937   2.034 -0.3067  0.0224  0.0157
17918W        W31332   7.412  15.416   3.704  0.1528  0.2208 -0.4969
17919W        W31333   3.340  14.193  12.769 -0.1516 -0.0931  0.2725
17920W        W31334   9.128   1.018   0.195  0.2226  0.0584 -0.2583
17921W        W31335   8.303   0.601  13.331 -0.0380 -0.0873 -0.0634
17922W        W31336  16.387   1.651   5.811  0.4326  0.1575  0.0553
17923W        W31337   0.209  12.320   4.414 -0.0424  0.0332 -0.1097
17924W        W31338   0.311  11.265   0.023  0.0425  0.1102 -0.3834
17925W        W31339   2.889   4.359   2.652 -0.0524 -0.1663  0.2467
17926W        W31340  12.789   4.247  13.473 -0.0742  0.0013  0.2598
17927W        W31341  14.957  11.755   3.328  0.0758  0.0209  0.1081
17928W        W31342  10.803  15.327   2.180 -0.0661 -0.5267 -0.0182
17929W        W31343   1.616   0.394   3.044  0.4219 -0.1785 -0.0189
17930W        W31344  11.306  15.763   3.961  0.0983  0.0183 -0.0168
17931W        W31345   9.394  14.003   4.719  0.2688  0.0059 -0.1794
17932W        W31346   6.024  10.325   4.954  0.1370 -0.2150  0.0303
17933W        W31347  15.093  16.220  12.821 -0.1049  0.0524 -0.1034
17934W        W31348  15.649  14.880   1.389  0.3818 -0.0514  0.0096
17935W        W31349   4.102   3.895   1.137  0.0597 -0.0959  0.1298
17936W        W31350   0.877  15.979  14.997  0.0346 -0.0930 -0.0468
17937W        W31351   1.476  12.685   4.687  0.1484 -0.0481 -0.0395
17938W        W31352   0.416  18.051  10.320  0.0059  0.0907 -0.0634
17939W        W31353   7.535   4.221   1.133 -0.0579 -0.2501  0.0563
17940W        W31354   5.747  16.445   0.940 -0.0230 -0.1092 -0.2307
17941W        W31355   0.751   6.067   5.295  0.0097  0.0434  0.0382
17942W        W31356  12.116   9.109   1.091  0.0464  0.0085 -0.0747
17943W        W31357   2.707   3.695  15.604  0.0286  0.0764  0.0611
17944W        W31358  11.871  10.301  16.177  0.1517  0.1603 -0.2624
17945W        W31359   1.634   4.213   2.960  0.1644  0.0545  0.1196
17946W        W31360   6.836  17.361   4.417 -0.2815  0.0547  0.0972
17947W        W31361  16.299  10.255  11.477 -0.1667  0.0154  0.0852
17948W        W31362   2.933   6.402  15.787 -0.0348  0.1960  0.0644
17949W        W31363   3.392   8.340   1.945  0.1436 -0.2970  0.0719
17950W        W31364  14.681  13.673   3.180  0.0487 -0.2402  0.1167
17951W        W31365  16.211   6.098  13.397 -0.0445 -0.0595  0.1085
17952W        W31366   7.385   3.326  15.312 -0.1643  0.1259  0.2006
17953W        W31367   5.795  12.972   4.748  0.0666 -0.2447 -0.0406
17954W        W31368  11.832   9.032   0.634 -0.0795 -0.0649  0.0336
17955W        W31369   6.006  17.702  13.036 -0.0492  0.1380 -0.1757
17956W        W31370   6.511   4.108  11.638  0.0890 -0.1384 -0.2038
17957W        W31371   9.871  10.667  15.853 -0.2557 -0.0778 -0.0894
17958W        W31372   5.665  11.127  13.840 -0.0484 -0.0741  0.1560
17959W        W31373   1.190  13.607  13.988  0.0007  0.4459 -0.1021
17960W        W31374  15.081   1.562   2.867  0.1416  0.4952  0.0464
17961W        W31375  15.605   8.878  13.187  0.3122  0.2052  0.1136
17962W        W31376  11.596  16.488   1.405 -0.1163  0.0587  0.2617
17963W        W31377   9.946   0.508  12.549 -0.0867 -0.4637 -0.0073
17964W        W31378  13.173  12.761   3.139 -0.0379 -0.1348 -0.2349
17965W        W31379  14.696   3.720  10.680 -0.0273 -0.2948 -0.4809
17966W        W31380   0.995  13.284  16.469  0.1192 -0.0919 -0.1598
17967W        W31381  15.315  14.163   6.223 -0.2921 -0.0482 -0.0141
17968W        W31382   3.573  15.353   4.833  0.1333 -0.0769  0.1283
17969W        W31383   7.253   4.800   4.333 -0.1386 -0.0108 -0.1412
17970W        W31384   5.312  15.061   2.485 -0.1867  0.2158  0.1440
17971W        W31385   7.360  11.141   0.599 -0.3354  0.4256 -0.0632
17972W        W31386   6.485  12.102   3.266 -0.1579  0.1891 -0.0686
17973W        W31387  12.734   0.226  11.769 -0.1292 -0.0964  0.1027
17974W        W31388   9.684   4.215   0.998  0.2898 -0.1528  0.0150
17975W        W31389   2.258   7.668   3.097  0.0591  0.1744  0.1979
17976W        W31390  10.365  10.022   3.568  0.2950  0.1765 -0.3502
17977W        W31391  16.044  14.280   5.744 -0.3487  0.1613  0.2491
17978W        W31392  12.350  14.926  11.724  0.0664  0.2761  0.1574
17979W        W31393  14.666  16.052   0.677  0.1476  0.0632 -0.1442
17980W        W31394   4.816  16.353  13.395 -0.0035 -0.6181  0.1000
17981W        W31395   4.742   0.645  15.476 -0.1239 -0.0219 -0.2617
17982W        W31396   2.886   9.660   2.601 -0.3089 -0.1516 -0.2698
17983W        W31397   1.495   6.408   3.214 -0.1141  0.1048  0.1777
17984W        W31398   3.436  12.729   0.674 -0.0928  0.0027 -0.1598
17985W        W31399  12.972   9.012  13.585  0.5292 -0.1857  0.1742
17986W        W31400   0.430  17.706  11.488  0.0076 -0.0811  0.1584
17987W        W31401   0.978  16.905   5.872  0.1877 -0.0236  0.3463
17988W        W31402   6.686  14.625  13.998 -0.2919  0.3802 -0.2145
17989W        W31403   2.581  11.454  15.032  0.1980 -0.2420  0.0807
17990W        W31404  11.966  17.707  14.706  0.0165 -0.1418  0.0048
17991W        W31405   9.684   4.627   5.730  0.3419 -0.2972 -0.2311
17992W        W31406  12.144  12.724  11.454 -0.1692  0.0318 -0.0973
17993W        W31407  15.885   5.680  12.590 -0.4628 -0.0999  0.3193
17994W        W31408   5.227  16.103  14.244 -0.0102 -0.0058  0.0114
17995W        W31409   4.821   1.691   2.610  0.0630 -0.0167 -0.0136
17996W        W31410  13.983   8.894   6.342 -0.1819  0.1833  0.1583
17997W        W31411  17.229   6.810  13.895  0.3218 -0.2084  0.0394
17998W        W31412  15.866   4.379  14.041  0.1027 -0.2664 -0.1574
17999W        W31413  10.770  10.678   0.440 -0.2853 -0.2615 -0.0716
18000W        W31414   8.804   4.552  16.272 -0.0843  0.3301 -0.0140
18001W        W31415  15.780   1.167   1.055 -0.0121  0.0712 -0.0385
18002W        W31416   9.816  13.030   0.754 -0.0051  0.0506 -0.1839
18003W        W31417  16.521  17.752   3.332 -0.1141 -0.2243 -0.1950
18004W        W31418   2.650  12.104   1.537  0.0659 -0.0974  0.0044
18005W        W31419   9.414   5.115   5.186  0.1794 -0.1059 -0.2117
18006W        W31420   0.164   4.934  15.212  0.3187 -0.0376  0.0240
18007W        W31421   1.854  11.172  11.426 -0.1382 -0.0259 -0.2053
18008W        W31422  13.318   5.786   3.541  0.2247 -0.1057 -0.3378
18009W        W31423  15.570   2.909   2.344  0.0253 -0.0974 -0.2452
18010W        W31424   2.909   5.588  13.999  0.2761  0.1166 -0.0230
18011W        W31425   5.360  11.450  11.240  0.0706  0.0340 -0.0725
18012W        W31426  11.635   8.975   4.465 -0.0558 -0.2170  0.0007
18013W        W31427  12.460   8.641   2.700  0.1959  0.1087  0.0479
18014W        W31428   6.411   4.925  11.068  0.2857  0.2112  0.0329
18015W        W31429  13.666  16.003   4.750 -0.0221  0.1683  0.0190
18016W        W31430   0.876  15.205  12.627 -0.0848  0.2122  0.1130
18017W        W31431  14.229  13.166   0.744  0.1012 -0.1009  0.0048
18018W        W31432   0.429   4.841  10.287 -0.1788  0.2436  0.1300
18019W        W31433   9.482   1.340  12.307 -0.0759  0.0004  0.0103
18020W        W31434  15.009  17.096  10.887 -0.2805  0.0599 -0.4183
18021W        W31435  14.658   7.624  11.785  0.3583 -0.2440  0.0402
18022W        W31436  11.961   6.136   0.211 -0.0837 -0.2702 -0.0333
18023W        W31437  13.621  14.649   3.379 -0.1901 -0.0130  0.0541
18024W        W31438   9.665   6.256  12.743  0.1506 -0.1963  0.1325
18025W        W31439  13.940  16.280   0.337  0.2009  0.2719 -0.2598
18026W        W31440   6.054   1.350  10.687  0.1169 -0.0004  0.3521
18027W        W31441  16.031   5.415   2.112  0.1782 -0.1016  0.1568
18028W        W31442  12.655   4.060  12.641 -0.4797  0.2046 -0.0093
18029W        W31443  13.034   3.865   3.145 -0.2733 -0.0886 -0.1857
18030W        W31444   0.448   4.417  10.695  0.2095  0.0440  0.0201
18031W        W31445  15.826   3.313  13.064 -0.1780 -0.2992 -0.0415
18032W        W31446   9.000  11.389  10.569 -0.1484  0.1148  0.0921
18033W        W31447  17.731   3.560   0.757  0.1719  0.3088 -0.0235
18034W        W31448  16.099   2.729  10.829  0.0697  0.1714  0.1982
18035W        W31449  11.602  13.134  14.080 -0.1309 -0.0861 -0.0201
18036W        W31450  15.655   7.169   0.638  0.2402  0.1331  0.0269
18037W        W31451  15.627   8.144   6.211 -0.0918  0.3306 -0.1750
18038W        W31452   5.155  14.805  13.601 -0.0184 -0.2430  0.1256
18039W        W31453  13.771  11.124   0.055  0.3781 -0.0103 -0.0054
18040W        W31454   5.843  12.029   5.933 -0.1412  0.3319  0.2045
18041W        W31455  12.462   7.643  15.078 -0.2246 -0.0273 -0.0337
18042W        W31456   3.830  13.082  16.421  0.0890 -0.1717  0.1151
18043W        W31457   1.738   3.011  13.392 -0.1727  0.0405 -0.1305
18044W        W31458  12.206  10.789  14.997  0.1302  0.2459  0.2839
18045W        W31459   8.400   5.230   3.954  0.1239  0.3484 -0.0123
18046W        W31460  14.116   8.016  10.972  0.1781  0.0778  0.4247
18047W        W31461  14.117   6.078  12.969  0.0704 -0.0140  0.0023
18048W        W31462   5.219   1.598  12.530 -0.1562  0.4973  0.0806
18049W        W31463   5.914   9.693   0.096 -0.0942 -0.1389  0.2681
18050W        W31464  13.460   3.480   1.987 -0.2390 -0.0729  0.2611
18051W        W31465   3.504   2.497  14.210 -0.2312 -0.1769 -0.0432
18052W        W31466   0.603  14.524  11.289  0.1634 -0.0451 -0.0200
18053W        W31467   4.088   6.674  11.182  0.1960  0.1020  0.1436
18054W        W31468   9.183   7.334   3.466 -0.1324 -0.0163  0.1417
18055W        W31469  17.080   3.814  14.580 -0.2728 -0.3328 -0.2614
18056W        W31470   3.383   0.044   0.580  0.0080  0.0685 -0.0772
18057W        W31471   9.040  18.178  14.576 -0.0801 -0.2430 -0.0432
18058W        W31472   2.738   1.664  12.491  0.1231  0.1419 -0.1864
18059W        W31473  11.387  16.057   0.329  0.2286  0.0572 -0.0435
18060W        W31474   4.923   6.091   3.665 -0.0840  0.2354 -0.2053
18061W        W31475   8.608   2.867   1.680  0.1004  0.1729  0.1463
18062W        W31476   5.231   4.488  16.490  0.0395  0.0348  0.2668
18063W        W31477  15.506   2.555  10.483  0.2217 -0.2396 -0.1958
18064W        W31478  13.764   7.131  13.580 -0.1670  0.0266 -0.0742
18065W        W31479   2.076   2.243  14.809  0.2072 -0.4460  0.1408
18066W        W31480   2.116   9.733   4.570  0.3510 -0.2251 -0.4474
18067W        W31481   5.927   9.392   1.554 -0.2067  0.1058  0.0726
18068W        W31482   6.420  15.632  11.866 -0.2577 -0.0489  0.0983
18069W        W31483  13.444  16.382   1.756 -0.3298 -0.0782 -0.1067
18070W        W31484   5.556   3.949   2.057  0.0739 -0.2770 -0.1025
18071W        W31485   3.688  12.562  11.512  0.0088  0.1144 -0.0104
18072W        W31486  11.207   4.342   3.822  0.1180 -0.1585  0.1134
18073W        W31487   1.543   7.710   6.245 -0.2050  0.0261  0.1010
18074W        W31488   8.779   9.864   4.701  0.0251  0.2483  0.0387
18075W        W31489  11.843   9.823   0.017  0.0404  0.1363 -0.0903
18076W        W31490   0.808   0.960   5.463  0.0365  0.0149 -0.0198
18077W        W31491   6.320   6.009   2.762 -0.1563 -0.1649 -0.0628
18078W        W31492   4.078  18.207  13.050 -0.2063  0.1001  0.1195
18079W        W31493  18.106   1.173  14.223 -0.0865 -0.1141 -0.0509
18080W        W31494  18.044   7.081   5.350 -0.1572 -0.1028  0.2161
18081W        W31495   1.323   5.094  10.927  0.0136  0.1503 -0.1118
18082W        W31496   7.528   3.633   2.265 -0.2725 -0.0712  0.4799
18083W        W31497   0.586   8.430   3.194  0.0462 -0.0453 -0.0239
18084W        W31498   1.141   9.741   2.613 -0.4300  0.1327 -0.1806
18085W        W31499  10.659  12.759  12.123 -0.0297 -0.0358  0.1358
18086W        W31500  17.334  13.783  10.864 -0.1112  0.1290 -0.1440
18087W        W31501   0.649   4.824  13.252 -0.0054  0.1978  0.1258
18088W        W31502   7.703  12.395   2.832 -0.4283 -0.1466 -0.0087
18089W        W31503   6.895   9.656   1.003 -0.1301 -0.2626  0.3335
18090W        W31504   1.628   3.613   6.487  0.0220  0.0491 -0.2508
18091W        W31505   5.110  16.953   1.258  0.1019  0.3519  0.0073
18092W        W31506  18.097   5.648   5.324  0.1280 -0.0907  0.0174
18093W        W31507  12.939   4.472  10.342  0.1892 -0.0204  0.1186
18094W        W31508   5.225   6.565  13.335  0.1232 -0.0256 -0.1091
18095W        W31509  16.825   2.267  14.713  0.0099  0.0129 -0.1693
18096W        W31510  17.304  17.802   1.485  0.1071  0.1326 -0.1382
18097W        W31511   7.817   3.437  16.208  0.0499  0.1585  0.1620
18098W        W31512   9.739  12.178  13.081  0.0385 -0.0252  0.3094
18099W        W31513   1.687  13.051   0.477 -0.0572  0.0038 -0.1369
18100W        W31514   8.381   5.355   4.506  0.0013 -0.1795 -0.0499
18101W        W31515   8.442   0.653  14.696  0.0758  0.1453  0.0216
18102W        W31516   9.404   9.857   0.855 -0.3257  0.1756 -0.0065
18103W        W31517  13.744  16.934  11.769  0.0285  0.0715 -0.0580
18104W        W31518  12.729   4.054   5.302 -0.0007  0.2999 -0.1050
18105W        W31519   3.908   3.352   2.445  0.2643 -0.2299  0.1857
18106W        W31520   9.986  13.884  13.365 -0.1128  0.2833 -0.0071
18107W        W31521   6.903   5.884   0.800  0.0784  0.0311  0.0123
18108W        W31522  17.354   4.186   3.674  0.1741  0.0498 -0.1484
18109W        W31523  10.067   2.259  11.188 -0.0716 -0.0734  0.2658
18110W        W31524  10.565   4.595  15.538  0.1278 -0.0082 -0.3209
18111W        W31525  15.784  11.432  15.396  0.0658 -0.1022 -0.3079
18112W        W31526  11.164   0.289   9.654  0.2376  0.1431 -0.0290
18113W        W31527  11.641  15.950   2.366  0.3665  0.0521  0.0885
18114W        W31528  14.440   8.405  16.113  0.0541 -0.2313  0.0128
18115W        W31529   0.342  13.379  14.697  0.1753 -0.2374 -0.2872
18116W        W31530   3.543   8.574   6.306 -0.1129  0.2078 -0.0051
18117W        W31531   7.768   5.178  12.543 -0.0759 -0.0348  0.1076
18118W        W31532   1.833  14.102  14.493 -0.1002 -0.1344  0.1976
18119W        W31533   6.603   0.465   2.313 -0.0966 -0.1960  0.0655
18120W        W31534   2.290   6.529   1.332 -0.0898  0.2354  0.2078
18121W        W31535  14.109  10.466  16.020  0.0356 -0.1969 -0.3091
18122W        W31536  10.584   0.108   5.183  0.1879 -0.2412  0.2068
18123W        W31537  14.404  17.895   0.957  0.0428 -0.0448 -0.0333
18124W        W31538   9.546   6.089  12.235 -0.0570 -0.7306  0.1187
18125W        W31539   4.625  12.273  16.425  0.0542  0.2554  0.0665
18126W        W31540   8.384   4.408   2.630  0.0483  0.0662 -0.0200
18127W        W31541   3.639   4.316  12.595  0.0807 -0.0648  0.1021
18128W        W31542   1.364  17.850  11.989  0.3050  0.1283 -0.2271
18129W        W31543   9.670   1.137   2.529 -0.0039 -0.1590  0.2278
18130W        W31544  16.900   0.101   2.355  0.0347 -0.1235  0.0008
18131W        W31545  14.213  15.152  12.506  0.1576  0.1026 -0.2254
18132W        W31546  14.945   9.585   4.294 -0.0758 -0.0010 -0.1514
18133W        W31547   9.982   5.587   2.177  0.0570 -0.1468 -0.1295
18134W        W31548   5.896   4.499  14.104 -0.2176  0.2119 -0.2678
18135W        W31549  15.995  13.094   1.471 -0.0713 -0.1995  0.1454
18136W        W31550   9.701   1.939  11.603  0.0676 -0.0324 -0.0740
18137W        W31551   4.612   4.069  11.684 -0.2371  0.1003 -0.4817
18138W        W31552   2.536   7.098  13.574 -0.1469 -0.0316 -0.5967
18139W        W31553  10.740  13.681   2.119  0.0437  0.3868  0.1597
18140W        W31554  12.662   9.127  14.955  0.1668  0.3452  0.0966
18141W        W31555  15.158   4.868   2.973  0.0814  0.3660 -0.0785
18142W        W31556  15.011   2.870   6.134  0.0021 -0.2772 -0.3728
18143W        W31557  15.371   6.492  13.612  0.0125 -0.1737  0.0902
18144W        W31558  10.816  11.172  15.095  0.2054  0.2694 -0.0511
18145W        W31559   1.340  10.512  15.912 -0.4584 -0.1066  0.2836
18146W        W31560  17.315   3.714  12.452 -0.0107 -0.0382 -0.0725
18147W        W31561  17.540  11.208   4.387  0.0235 -0.0830 -0.0923
18148W        W31562  15.783  13.869  14.089  0.3303 -0.0564  0.0288
18149W        W31563  14.889   5.579  11.072  0.0919  0.0709 -0.0667
18150W        W31564  14.557   2.358  13.324  0.2468 -0.0920  0.0009
18151W        W31565  10.107   4.157  14.630  0.4350  0.1040 -0.0684
18152W        W31566   8.435  17.748   2.495 -0.2766 -0.3403  0.1160
18153W        W31567  10.192   1.005   1.277  0.0232  0.2582  0.1107
18154W        W31568   6.079  15.388   2.635  0.1189  0.2894 -0.1153
18155W        W31569  14.223  13.812   0.259  0.0201 -0.0086  0.1260
18156W        W31570  17.753  15.920  14.094  0.3094 -0.0090 -0.1170
18157W        W31571   0.435  14.137  15.351 -0.2644 -0.0165 -0.1570
18158W        W31572   2.658  10.727  12.600  0.0188 -0.2405  0.2027
18159W        W31573   7.941   1.242   0.326 -0.2970  0.1136  0.2728
18160W        W31574  14.437   2.391  12.046 -0.2910 -0.1126  0.0232
18161W        W31575  15.468  16.332   4.570  0.2672  0.0496 -0.0151
18162W        W31576   9.592  17.126  16.166 -0.2554  0.4241 -0.0037
18163W        W31577   2.774  17.512   2.609 -0.0470  0.1447  0.1121
18164W        W31578   0.033   2.240   2.215 -0.2579 -0.1775 -0.2343
18165W        W31579   6.592  11.348  13.222  0.0068  0.0197 -0.1625
18166W        W31580   0.325   1.322  10.259 -0.2656 -0.0965 -0.0361
18167W        W31581  13.815  16.746   1.742  0.1099  0.0940 -0.2858
18168W        W31582   4.961   5.063  13.073 -0.1814 -0.2483 -0.1996
18169W        W31583  10.921  12.751   2.128  0.0111  0.1373 -0.2851
18170W        W31584   3.989  16.992  13.481  0.3092  0.1161 -0.0772
18171W        W31585  17.211  11.672  10.811 -0.0148  0.3699 -0.0522
18172W        W31586  15.900   7.332   3.482 -0.0862  0.1169 -0.0748
18173W        W31587  13.642  18.094   0.606  0.1594  0.1846  0.1852
18174W        W31588  10.277   2.603   9.514  0.2550  0.0346 -0.1588
18175W        W31589   0.511  12.938  15.048 -0.0452  0.0555  0.0080
18176W        W31590   0.361   3.993  12.964  0.0965 -0.1501  0.1202
18177W        W31591   6.440  13.767   0.268 -0.0311 -0.0640  0.2469
18178W        W31592   1.152  15.296  16.342  0.0100 -0.1435  0.0595
18179W        W31593  15.203  11.014   5.430 -0.0134 -0.1477 -0.1069
18180W        W31594   1.727   3.042   5.091 -0.0846 -0.2831  0.2980
18181W        W31595  12.899  10.352  11.178  0.1298 -0.0707 -0.4121
18182W        W31596   1.148  16.290   2.788 -0.3304  0.1294  0.1114
18183W        W31597  14.809   7.855  11.064 -0.3305  0.1057 -0.1721
18184W        W31598   1.763   2.935   0.909  0.1145 -0.1386 -0.0845
18185W        W31599   5.802  17.220  15.872 -0.2490  0.2319  0.2650
18186W        W31600   8.413   3.542  13.673 -0.0824 -0.0391  0.2778
18187W        W31601   1.618   8.099   2.570  0.2386  0.1539 -0.0434
18188W        W31602   7.020   7.144  12.189  0.2780  0.1791  0.0358
18189W        W31603  10.595  17.268  12.642  0.2030  0.0360  0.1628
18190W        W31604   9.408   1.912  10.531  0.2120  0.0834  0.0402
18191W        W31605  16.964   6.321  15.632  0.2203  0.1621  0.0999
18192W        W31606  16.067   6.746   0.500 -0.3310 -0.1618 -0.2915
18193W        W31607  10.666  11.078  16.386  0.1574 -0.1324 -0.2621
18194W        W31608   6.974  10.730   2.560 -0.1022  0.0005 -0.0912
18195W        W31609   6.661  10.737   3.145  0.0383 -0.5296 -0.1817
18196W        W31610  12.657  16.501  16.410  0.1576  0.0581 -0.1157
18197W        W31611  10.692   0.125  10.665  0.2411 -0.2036  0.1946
18198W        W31612   1.633   5.336  15.915  0.2541 -0.2158  0.3089
18199W        W31613  11.951  10.659   1.766  0.0806 -0.1313 -0.0182
18200W        W31614  13.140   1.070   4.103  0.0816 -0.1360 -0.0109
18201W        W31615  14.145  12.125  15.771  0.0026  0.0866 -0.0579
18202W        W31616   5.839  14.222   0.203  0.2352 -0.0289  0.0127
18203W        W31617   8.338  15.022   3.851 -0.0758 -0.0529 -0.1886
18204W        W31618   8.617  11.111   6.196  0.1474  0.3088 -0.0084
18205W        W31619  11.527  16.759  11.727 -0.1047  0.1295  0.2129
18206W        W31620   0.552   8.482  12.072 -0.1609  0.0101 -0.0086
18207W        W31621  17.062   3.473  10.749  0.1229  0.1554 -0.1777
18208W        W31622   6.382   2.689   4.655 -0.0262  0.0284 -0.2132
18209W        W31623  18.219  16.008  13.799 -0.1832 -0.0357 -0.1146
18210W        W31624  13.589   1.216   6.211  0.0512  0.2219  0.0839
18211W        W31625  17.853   2.305  11.528  0.1888  0.1144 -0.0227
18212W        W31626  11.968   1.707   2.930  0.2076  0.1440 -0.1917
18213W        W31627   7.529   7.009   3.622  0.0114 -0.1619  0.0533
18214W        W31628   1.785  16.990   4.702 -0.1891 -0.1250  0.0379
18215W        W31629  14.962   4.435  11.310 -0.0483 -0.2095 -0.2878
18216W        W31630  17.136   3.440  16.025  0.1619 -0.0656  0.3400
18217W        W31631  15.783  10.375  12.794 -0.0763  0.4031 -0.1389
18218W        W31632   2.049  12.745  11.633  0.1548 -0.1489 -0.1234
18219W        W31633  14.135  12.950   4.046 -0.1034 -0.0395  0.2236
18220W        W31634   5.102   3.931  16.107 -0.2509  0.1453 -0.0024
18221W        W31635   3.692  17.236  15.462 -0.2482  0.3744  0.0109
18222W        W31636   9.817  17.818   4.160  0.1772 -0.2963  0.2881
18223W        W31637  10.609   2.152  14.060 -0.0811 -0.1858 -0.1181
18224W        W31638   0.512   1.889   3.931 -0.0547  0.4002 -0.1665
18225W        W31639   9.303  16.418   1.420  0.1917 -0.2915 -0.1467
18226W        W31640  12.493  14.833   1.279 -0.3599 -0.0860 -0.0698
18227W        W31641   7.925  14.637  10.077  0.1586 -0.0362 -0.1698
18228W        W31642   7.269   2.641   3.890  0.1628  0.0342 -0.0038
18229W        W31643   3.341   1.718  12.584 -0.0058 -0.3754  0.1378
18230W        W31644  16.056  17.766  15.070 -0.1439 -0.2257  0.1273
18231W        W31645   1.093  17.079   0.423  0.2304  0.3138 -0.0774
18232W        W31646  11.622  10.630  14.195  0.3348  0.1819  0.1044
18233W        W31647  10.814   8.597  14.709  0.1232 -0.1235 -0.1244
18234W        W31648  15.935   0.854   2.825  0.2821  0.1687  0.0852
18235W        W31649   9.995  11.428   1.683 -0.0758 -0.0513 -0.1988
18236W        W31650  13.089   0.154   3.817  0.1762  0.1352  0.0000
18237W        W31651   7.850  11.784   0.606 -0.1700 -0.1898 -0.0721
18238W        W31652   6.360   8.599  11.810 -0.2022  0.1288 -0.1601
18239W        W31653   1.666   1.351   2.814  0.1790  0.2557  0.0328
18240W        W31654   9.198  15.744   2.088 -0.2865 -0.3776  0.1160
18241W        W31655   9.731  11.459   5.066  0.0550  0.2457  0.1012
18242W        W31656   9.960   9.541  14.694  0.0262 -0.0581 -0.0894
18243W        W31657   7.324   0.574  10.042  0.3316  0.0662 -0.1472
18244W        W31658  15.740   5.080   3.834  0.0324  0.2550  0.1156
18245W        W31659  16.205  11.561  14.147  0.2480  0.3085  0.2120
18246W        W31660  12.276   5.523   3.504 -0.2785  0.0466 -0.0102
18247W        W31661   5.602   7.682  14.106  0.1676  0.1179 -0.0468
18248W        W31662  13.494   7.165   1.420  0.0588  0.2984  0.0608
18249W        W31663  17.134   9.078   1.259  0.0363  0.0893  0.3731
18250W        W31664  10.334  11.966  14.149 -0.2695  0.1541 -0.3230
18251W        W31665  17.285  17.993  16.472 -0.0567 -0.2997  0.0855
18252W        W31666   1.472   8.860  16.152 -0.2543 -0.0758 -0.0594
18253W        W31667  14.527  10.547  11.424 -0.1972  0.1238 -0.0961
18254W        W31668  10.656  10.989   3.669  0.0957  0.0506  0.2532
18255W        W31669   2.122  13.735   2.612  0.0930  0.0859 -0.2256
18256W        W31670  17.403  16.748  14.544  0.0420  0.3427  0.0095
18257W        W31671  15.614  16.028   1.709  0.0476 -0.2249 -0.0121
18258W        W31672  17.077   0.912  11.042  0.2791  0.0127  0.2566
18259W        W31673   2.864  16.321   3.985 -0.1413 -0.1346 -0.0296
18260W        W31674   3.270  12.170   3.375 -0.2722  0.2057  0.1441
18261W        W31675  15.041  16.947  11.407 -0.1857  0.0512  0.2219
18262W        W31676  17.377   2.755  13.181 -0.3305 -0.2506 -0.0867
18263W        W31677  13.828  12.699   5.389 -0.0925 -0.1869  0.0787
18264W        W31678   2.457   1.167  12.480  0.1714  0.1388 -0.3729
18265W        W31679   4.133  16.146   9.694  0.0897  0.0662  0.0745
18266W        W31680  12.259   8.314   3.527  0.2970  0.0842 -0.1126
18267W        W31681   9.689   1.346   4.789  0.2433  0.0222 -0.2615
18268W        W31682   4.075  17.790  10.487  0.0369 -0.0605 -0.2045
18269W        W31683   3.785   4.143   6.126  0.0566 -0.1264 -0.2592
18270W        W31684   2.524  13.888  14.415 -0.2694 -0.1940  0.0799
18271W        W31685   7.449   5.748  15.685 -0.0600  0.2352  0.0065
18272W        W31686  10.003  16.116   0.317 -0.0286  0.2036  0.2023
18273W        W31687   6.941  15.006  13.790  0.2998 -0.1949  0.0757
18274W        W31688  11.149  12.394   0.678 -0.0805 -0.1088 -0.0107
18275W        W31689   3.399   1.821   6.342  0.2410 -0.0317 -0.1857
18276W        W31690   3.607  12.629  16.290  0.0578  0.0153  0.0787
18277W        W31691  10.170   4.257  16.299 -0.1800 -0.0575 -0.1537
18278W        W31692   9.971  17.630  15.113 -0.1450  0.0132 -0.0914
18279W        W31693   5.911   0.389   4.038  0.0523 -0.1859 -0.3897
18280W        W31694   1.007   3.986   2.173 -0.0862 -0.1843  0.1927
18281W        W31695  10.372  11.470   3.883  0.0591  0.1112 -0.1646
18282W        W31696  16.332   9.538   1.057  0.0755 -0.0285  0.0963
18283W        W31697  14.034   7.505  13.333 -0.1046  0.0572  0.0587
18284W        W31698  11.320  15.913  11.617  0.2778  0.2734  0.1131
18285W        W31699   2.341  17.310  15.609 -0.0176 -0.0261 -0.1738
18286W        W31700  13.811   6.851   0.640 -0.0139 -0.0919  0.0700
18287W        W31701   3.344  12.213  13.033  0.0082 -0.0510  0.4812
18288W        W31702   2.084  16.226   4.980 -0.0367 -0.0779 -0.1699
18289W        W31703   0.054   1.382  15.897  0.0459  0.0930  0.1200
18290W        W31704  12.396  10.367  13.805 -0.1713  0.2086  0.0089
18291W        W31705   3.457  13.035   4.644 -0.0071 -0.1044 -0.0265
18292W        W31706  18.064  11.107   5.107  0.1765 -0.0655 -0.1505
18293W        W31707   7.679  18.111   9.405  0.1238 -0.1554  0.0065
18294W        W31708   6.187   1.762  10.901  0.2435 -0.2311  0.1641
18295W        W31709   9.820  17.391   0.015  0.3101 -0.1571  0.0170
18296W        W31710   3.384   9.553   3.280  0.0641 -0.1520  0.1354
18297W        W31711  10.356  11.907   2.834  0.1306 -0.1323 -0.3181
18298W        W31712  13.762   1.894  16.067 -0.2432  0.1763 -0.0770
18299W        W31713   3.752  14.307   5.283  0.1413  0.2164 -0.0766
18300W        W31714  13.977   2.059   3.097  0.1126  0.2925  0.1029
18301W        W31715   1.164  11.283   1.254 -0.1707  0.2449  0.1008
18302W        W31716   1.127  17.891   3.534 -0.1179 -0.0968  0.2598
18303W        W31717  15.556   9.256   6.998  0.0921  0.5364 -0.3127
18304W        W31718   6.011   9.064   2.867 -0.3507  0.1162 -0.1835
18305W        W31719  10.513   0.582  10.682 -0.0366  0.3094 -0.0387
18306W        W31720  11.185  17.434  16.155  0.2564 -0.0213  0.2070
18307W        W31721   5.854   8.205  15.876 -0.0364  0.2021 -0.0833
18308W        W31722  13.302  17.936  13.744 -0.0067 -0.0860  0.4384
18309W        W31723  14.933  12.415   3.832 -0.0354 -0.3390 -0.0272
18310W        W31724   8.374  15.637   1.282 -0.0275  0.3631  0.1791
18311W        W31725   6.426   9.390  16.162  0.0266 -0.4362  0.2569
18312W        W31726  15.060  10.012  16.331 -0.0488 -0.0409  0.2162
18313W        W31727  15.822   7.863  15.267  0.1078 -0.1019 -0.0566
18314W        W31728   6.130  16.820  10.306  0.1402 -0.0617  0.3836
18315W        W31729   7.209  14.819   0.825 -0.0487 -0.2323  0.1861
18316W        W31730   0.498   4.757  11.035 -0.0550 -0.0217  0.0906
18317W        W31731   1.288  12.104  13.733  0.2411 -0.1934 -0.0467
18318W        W31732  14.358  15.802  11.601 -0.1512 -0.1952 -0.1497
18319W        W31733  13.600   9.225   0.338 -0.0436 -0.0740  0.2661
18320W        W31734   6.506  12.225   6.469  0.0058 -0.2773  0.0717
18321W        W31735   6.287   2.276  15.445  0.1096  0.0609 -0.2554
18322W        W31736  10.025   6.268   1.439  0.1923  0.0259  0.0079
18323W        W31737  10.269   5.501  14.558  0.3813 -0.1141  0.1661
18324W        W31738   1.327   9.749  11.316 -0.1010 -0.1246  0.1692
18325W        W31739   2.707   9.193   2.764  0.0677  0.1221  0.1012
18326W        W31740   6.942   4.416  13.258  0.0112 -0.1503  0.1202
18327W        W31741  16.835   8.585   4.273  0.1479  0.1189  0.0330
18328W        W31742  18.172  15.557  12.136 -0.0653 -0.1499  0.0919
18329W        W31743   5.801   2.691  16.312  0.1177  0.2365 -0.0482
18330W        W31744   4.931   2.181  16.434  0.0112 -0.1071 -0.0109
18331W        W31745   9.233   9.035  12.512 -0.2045  0.2082 -0.2132
18332W        W31746   2.879   3.045   4.250  0.2506  0.1690  0.0990
18333W        W31747  11.926   2.382  14.829 -0.0527  0.2470  0.2045
18334W        W31748   6.275   1.955   3.642 -0.0154 -0.4994 -0.2097
18335W        W31749   5.878   3.442  13.052  0.2370 -0.1172 -0.1836
18336W        W31750  15.083   4.471   0.118  0.1116 -0.0561 -0.0848
18337W        W31751   1.858  15.132   5.250 -0.0077  0.0600 -0.0246
18338W        W31752  17.940   0.771   4.581 -0.3597 -0.0229 -0.3314
18339W        W31753   2.613  12.043  12.450  0.1232 -0.0920  0.1518
18340W        W31754   5.358   1.470   1.368  0.1598  0.2062 -0.1102
18341W        W31755  16.491  11.788  11.440 -0.0148 -0.1066  0.2961
18342W        W31756  17.372   9.636  14.292  0.0769  0.1055  0.3622
18343W        W31757  11.536  12.236   1.052  0.4260  0.1678 -0.0508
18344W        W31758  17.969  10.040   1.591  0.1059  0.0783 -0.2507
18345W        W31759  11.514   9.459  16.300  0.2479  0.0099 -0.0603
18346W        W31760   3.457   6.613   1.474 -0.0010 -0.1171  0.0298
18347W        W31761  17.586   5.682   6.437  0.2061 -0.0102  0.0070
18348W        W31762  16.552  11.415   2.880 -0.5044 -0.3666 -0.1501
18349W        W31763   1.911  10.462   0.803 -0.3224  0.1434 -0.0223
18350W        W31764  10.650   0.267  13.625  0.0235  0.0698  0.1716
18351W        W31765   2.924   3.157   3.255  0.2362 -0.1625  0.4311
18352W        W31766   4.393  17.578   3.656 -0.0877 -0.2139  0.0137
18353W        W31767   0.272  16.027   3.389 -0.0208 -0.0887 -0.2277
18354W        W31768   5.997  13.336  11.617 -0.0313  0.1616  0.0872
18355W        W31769  16.843  17.521   1.116 -0.1338 -0.1293  0.2217
18356W        W31770   3.131   6.437  12.042  0.3279 -0.4030 -0.1525
18357W        W31771  11.322   6.910   3.251  0.2466  0.2069  0.1279
18358W        W31772   2.734  14.365  14.425 -0.1316  0.3133 -0.2405
18359W        W31773  15.444   0.491   3.768  0.0849 -0.0418 -0.1842
18360W        W31774  11.539   0.671   2.580  0.1394 -0.2233  0.3083
18361W        W31775  10.961   7.960  10.431 -0.2447  0.1213 -0.0483
18362W        W31776  11.202  11.934   3.378 -0.0429 -0.1185 -0.1953
18363W        W31777   6.392   0.298  14.688  0.0285  0.2116  0.2863
18364W        W31778   7.462   6.761   4.328  0.3734  0.0292  0.0013
18365W        W31779   2.162  16.040   1.123  0.0295  0.1011  0.1454
18366W        W31780   3.848  17.150   3.520 -0.2049 -0.3692  0.0875
18367W        W31781  14.125   0.246  11.375 -0.1429  0.0377  0.2091
18368W        W31782   8.397  13.184   4.966  0.0650 -0.0765  0.1167
18369W        W31783   9.122   9.087   4.487  0.0307 -0.1343 -0.0149
18370W        W31784   2.598   8.152  16.066 -0.2565  0.2055  0.2277
18371W        W31785   8.280   8.733   4.425 -0.2368 -0.0432 -0.1340
18372W        W31786  10.230  15.100   2.826  0.0931  0.1164 -0.3954
18373W        W31787   7.257   0.709   3.564  0.1815 -0.2346  0.1047
18374W        W31788   6.917   0.110   0.413 -0.1789 -0.0999 -0.1389
18375W        W31789   5.838   8.924  11.184  0.0617 -0.3734  0.2233
18376W        W31790  14.773   9.685  15.608  0.0525  0.0476 -0.0735
18377W        W31791  11.525  10.111   5.932  0.0795  0.1336  0.1421
18378W        W31792  10.640  14.477   4.111 -0.1392 -0.0286 -0.1894
18379W        W31793   6.065  14.626  12.060  0.2028 -0.2052  0.1851
18380W        W31794   4.409  13.165  13.934 -0.0186 -0.0316 -0.2434
18381W        W31795  11.692   2.399  16.423 -0.0030  0.2187 -0.0475
18382W        W31796   9.319  17.401  10.563  0.2360 -0.1671 -0.1457
18383W        W31797  14.839  17.140   3.814  0.2779 -0.0383 -0.2789
18384W        W31798  12.844  11.153   6.379  0.0078  0.0058  0.1310
18385W        W31799  13.900   6.320  16.468 -0.0422 -0.2940 -0.3484
18386W        W31800  16.177  10.579   1.355  0.3554 -0.4058 -0.0279
18387W        W31801  13.827   5.942  12.471  0.0429  0.0491 -0.0665
18388W        W31802   0.687  12.959   4.270 -0.5001  0.0040 -0.0997
18389W        W31803  17.842   9.657   1.181 -0.1547 -0.2723 -0.2901
18390W        W31804   0.802  10.237   5.993  0.0188  0.1481 -0.1533
18391W        W31805   7.444   0.331  11.254 -0.1300 -0.1319  0.0261
18392W        W31806  12.207   4.643   9.646 -0.4154  0.1452 -0.1813
18393W        W31807  14.347  17.463   5.549  0.1787  0.1295 -0.0445
18394W        W31808  11.142   2.583   0.751  0.0934  0.1025 -0.0377
18395W        W31809  18.170  13.264  11.070 -0.2656 -0.0019 -0.0186
18396W        W31810  10.142  16.027   1.312 -0.2433  0.1851 -0.1738
18397W        W31811  13.662  13.132   3.984 -0.0351  0.0129 -0.0970
18398W        W31812  14.449   1.102  11.746  0.0586  0.1401 -0.0405
18399W        W31813  12.704  17.837  15.661  0.1416 -0.2333  0.0624
18400W        W31814   7.872  13.268   0.393 -0.1158 -0.1766  0.2254
18401W        W31815   6.252   6.663  12.456 -0.1204  0.4704  0.0149
18402W        W31816  16.052   4.542  12.122 -0.2785 -0.1771  0.1726
18403W        W31817  10.129  17.125  11.280 -0.0707 -0.2419 -0.0880
18404W        W31818   9.058   6.329   3.904 -0.0058 -0.1306  0.0367
18405W        W31819   1.601  15.761   0.981  0.3489 -0.4808  0.2186
18406W        W31820   7.108   1.700  12.874  0.0590  0.0987 -0.0099
18407W        W31821  12.965   8.021   1.748 -0.1664  0.0401 -0.1478
18408W        W31822  11.613  11.491   6.371 -0.1836  0.0774  0.0476
18409W        W31823  17.034   2.169   1.696 -0.1741 -0.3064  0.2043
18410W        W31824   0.651  12.937   1.488  0.0727  0.2782  0.1718
18411W        W31825   9.844  10.969   4.928 -0.0576 -0.0775  0.1577
18412W        W31826  14.508   4.220  13.550  0.3707 -0.0551 -0.1024
18413W        W31827  17.320  14.327   3.701  0.1768  0.2988  0.0176
18414W        W31828  14.284   4.416  10.988  0.0636 -0.1259 -0.5200
18415W        W31829  15.860   5.897  11.115 -0.2312  0.1277 -0.3705
18416W        W31830   9.708   0.041  15.704  0.1073  0.0168  0.1897
18417W        W31831   5.483   6.691  15.137  0.2387 -0.1575 -0.1798
18418W        W31832  12.482  16.578   5.248  0.0790  0.3985 -0.1389
18419W        W31833   1.364  15.493  14.084 -0.2286  0.1189  0.0875
18420W        W31834  15.498  14.905  15.998 -0.1027 -0.3677 -0.1071
18421W        W31835  11.693  18.207  13.038  0.0252 -0.0309  0.1675
18422W        W31836  13.515  12.277   2.352  0.2273 -0.0049  0.2157
18423W        W31837  10.076  14.186   1.964  0.1094 -0.0888 -0.0505
18424W        W31838  15.094  10.070   5.442  0.0655 -0.1448  0.0306
18425W        W31839  11.419   4.961  13.030  0.3178 -0.2840 -0.1618
18426W        W31840  12.883   6.797  13.028  0.0750  0.1293  0.1549
18427W        W31841   8.609  12.117   2.352 -0.2791  0.0028 -0.1708
18428W        W31842   9.287   0.495   0.435 -0.0978  0.1400  0.3105
18429W        W31843   3.523   3.498   3.550  0.0381 -0.2257 -0.0770
18430W        W31844  12.455   1.687   2.016  0.0932  0.2850 -0.1566
18431W        W31845   1.037  12.724   3.743 -0.1415 -0.0108 -0.1701
18432W        W31846  17.694  11.646   2.525  0.2100  0.1335 -0.0975
18433W        W31847   3.967  15.917  13.301 -0.0181  0.0419 -0.3205
18434W        W31848  15.000  17.719   2.864 -0.2087  0.0441  0.1099
18435W        W31849   4.969  14.799  14.507 -0.1186  0.2052 -0.3597
18436W        W31850   8.770   6.185  13.306 -0.0940 -0.2673  0.1443
18437W        W31851  13.844   6.560  13.102  0.0076  0.0211  0.0485
18438W        W31852  16.500   8.909   0.303 -0.0312 -0.0991 -0.0344
18439W        W31853   5.270   9.745   2.678 -0.0751  0.0004  0.0340
18440W        W31854  11.124   0.260  10.362 -0.1252 -0.3193 -0.0193
18441W        W31855  15.447  15.266  14.170  0.0729 -0.2649 -0.2022
18442W        W31856   9.266  11.276   5.030 -0.0730 -0.1966 -0.0786
18443W        W31857  14.400   3.109  10.597 -0.0898  0.2670 -0.1453
18444W        W31858   6.583   0.555  12.505 -0.1795 -0.2146 -0.2354
18445W        W31859   2.578  11.619   1.350  0.4503  0.2612 -0.1554
18446W        W31860   5.828  14.822  15.884  0.0382  0.0029  0.1928
18447W        W31861  12.599   5.777   2.870  0.1096  0.1096 -0.0818
18448W        W31862   0.915  17.430  12.307  0.0449 -0.3041 -0.3854
18449W        W31863   5.141  10.068  16.387  0.1078  0.0083 -0.2478
18450W        W31864   5.174   9.948  10.355 -0.0393 -0.1958 -0.2258
18451W        W31865   0.662   1.315  14.782  0.4549 -0.0450  0.1380
18452W        W31866   2.157   2.751  12.344  0.0719 -0.1723  0.0284
18453W        W31867   5.069   1.792   5.437  0.0165 -0.0594 -0.1830
18454W        W31868   1.578   3.720   3.306  0.1744  0.0574  0.0523
18455W        W31869  14.918   9.754   2.613  0.0285 -0.3106  0.2725
18456W        W31870   2.536   9.241  15.078  0.1983  0.2452 -0.3730
18457W        W31871  13.593  14.121   5.368 -0.4061 -0.2515 -0.1962
18458W        W31872   4.825  12.651   0.295  0.1326  0.0755  0.1077
18459W        W31873   5.782   3.784  13.435 -0.2786  0.0307  0.2241
18460W        W31874  14.647   8.683  15.411 -0.3454  0.1255  0.2304
18461W        W31875   4.823   9.860  14.122  0.0020 -0.0550 -0.0524
18462W        W31876  11.289  15.405   1.432  0.1155 -0.2877 -0.0229
18463W        W31877  13.846   0.364   2.627 -0.1154  0.0498 -0.0390
18464W        W31878   3.006  16.047  13.698  0.0116 -0.2792  0.0399
18465W        W31879   0.310  11.223   2.292 -0.2389  0.2339  0.0645
18466W        W31880  13.153   0.990   1.116  0.0885 -0.1196 -0.2552
18467W        W31881   0.923   0.982  16.059 -0.2148 -0.2173 -0.0578
18468W        W31882  13.547   3.321  10.802  0.1648 -0.2709 -0.2718
18469W        W31883  17.601  11.408  15.396  0.0870  0.0110  0.1164
18470W        W31884   3.059   6.995   2.757 -0.3287 -0.1454  0.2043
18471W        W31885  15.732   3.148  15.667  0.2327 -0.1078  0.2021
18472W        W31886   1.144  11.044   4.127 -0.0805 -0.0591  0.0897
18473W        W31887   8.614  10.416   1.222 -0.3173  0.0406  0.0739
18474W        W31888   3.512   4.686  14.876  0.2066  0.2012 -0.0440
18475W        W31889   9.402  16.477   3.147  0.1003  0.4850 -0.1361
18476W        W31890   9.419   7.828  12.138  0.0741  0.0526  0.0287
18477W        W31891   4.737   1.682  11.563 -0.0643  0.1674 -0.2002
18478W        W31892  11.028  17.299   5.852  0.0457  0.0654  0.2186
18479W        W31893  11.460  16.684  14.802  0.0007  0.1259 -0.1156
18480W        W31894   5.464  10.421  14.924 -0.1116 -0.2204 -0.3912
18481W        W31895   2.374   9.720   1.080 -0.2773 -0.0600  0.0095
18482W        W31896  17.081   2.757  10.982  0.2944 -0.0077 -0.2968
18483W        W31897   8.118   0.466  12.025 -0.0020 -0.4615 -0.2279
18484W        W31898  14.269   1.630  11.533 -0.3458 -0.3368  0.0274
18485W        W31899   9.294   4.201  15.169  0.1098  0.1204  0.0490
18486W        W31900   4.296   8.875   5.673  0.0157 -0.0148 -0.2496
18487W        W31901   9.894   3.651  12.206  0.1071 -0.3351 -0.1148
18488W        W31902  10.746   5.440   4.185 -0.1092 -0.0259  0.0686
18489W        W31903   8.933   8.776  13.633  0.1280 -0.1196  0.2600
18490W        W31904   3.857  13.543   0.683  0.2956 -0.1106 -0.0628
18491W        W31905  12.293  12.733   1.230  0.0549 -0.0047  0.1722
18492W        W31906  10.494  12.407  11.721  0.1926 -0.0978 -0.4218
18493W        W31907  15.920  12.966  15.888 -0.1026  0.3098  0.0161
18494W        W31908   5.560   2.443   5.398  0.0145  0.0265 -0.1229
18495W        W31909  10.125  17.767  16.442  0.2156 -0.0756 -0.1338
18496W        W31910  12.432   6.988  12.396  0.0374 -0.1215  0.5692
18497W        W31911  12.849  16.963  11.700 -0.1755 -0.4309 -0.1728
18498W        W31912   4.692  11.726   2.929 -0.1374 -0.0291  0.1980
18499W        W31913   1.082   3.548   3.338 -0.2294 -0.4218 -0.0160
18500W        W31914   6.628   4.408   0.747  0.0769 -0.1303 -0.2434
18501W        W31915   7.964  12.344  15.256  0.0737 -0.1002 -0.0685
18502W        W31916  14.343  14.671   0.398 -0.0220 -0.0263  0.0119
18503W        W31917   7.282   2.523  14.140 -0.0723  0.2716 -0.1547
18504W        W31918  16.321  12.581  16.072  0.0396 -0.0737 -0.1470
18505W        W31919  14.746  13.840   4.143  0.1070  0.2302 -0.1132
18506W        W31920   0.096   4.211  11.005  0.2134 -0.0644  0.0723
18507W        W31921  15.856   9.639   2.952 -0.0887  0.2653 -0.1594
18508W        W31922  13.418   3.490   4.198 -0.2432 -0.1995 -0.1488
18509W        W31923  17.278   5.090  14.758  0.1491 -0.0268 -0.0876
18510W        W31924   2.380  16.398   3.014 -0.0190  0.2147  0.3687
18511W        W31925   8.484   7.714  14.947  0.0180  0.1098 -0.2827
18512W        W31926  12.883   4.053  10.055  0.0041  0.3755  0.2459
18513W        W31927  16.644  10.494  12.735 -0.0100 -0.1844 -0.2091
18514W        W31928   6.185   8.523   0.539 -0.4063  0.0104 -0.3806
18515W        W31929   5.616  12.541  14.038 -0.3092 -0.3198 -0.0139
18516W        W31930   2.346   2.284  16.161 -0.0029 -0.1320 -0.1507
18517W        W31931  11.024  14.569  11.772 -0.1249 -0.1912  0.0470
18518W        W31932  13.430  16.506  12.255  0.0517 -0.1363  0.1375
18519W        W31933  11.350   5.941   3.692  0.0139 -0.1887  0.4339
18520W        W31934   8.949  17.385  15.624 -0.2109  0.0393 -0.0151
18521W        W31935   1.016  16.735  14.625 -0.1839  0.0407 -0.0493
18522W        W31936  13.790  11.594   3.210 -0.1773  0.3056  0.0592
18523W        W31937   2.947   1.092  14.848 -0.0435  0.1355 -0.1853
18524W        W31938  10.925   4.205  13.611 -0.1748 -0.1879  0.2035
18525W        W31939   7.380  12.861   2.046 -0.0589  0.0916 -0.2513
18526W        W31940  13.458  14.397   0.352 -0.1978 -0.0810  0.2628
18527W        W31941  13.602   1.759  12.152  0.0459  0.0250 -0.2499
18528W        W31942  12.529   6.681   1.375  0.0925 -0.0221 -0.0952
18529W        W31943   8.987   9.154  15.769  0.1970  0.2934  0.1122
18530W        W31944   4.618  17.588   4.460 -0.2093 -0.1027 -0.1528
18531W        W31945  13.217  16.450   5.799  0.1862  0.0135  0.3446
18532W        W31946  14.431   9.217  14.275 -0.0601 -0.3812  0.3182
18533W        W31947  12.310   6.565  11.042  0.0742 -0.2792  0.5830
18534W        W31948  15.324  11.460  13.387  0.0300  0.0198 -0.1288
18535W        W31949  12.529   3.729   4.875  0.1520  0.0316  0.1699
18536W        W31950  11.969  17.195  10.457  0.0851  0.0878  0.0406
18537W        W31951  12.952   3.294   3.017  0.3121  0.4142  0.0240
18538W        W31952   8.644  10.227  12.840  0.1610  0.0843 -0.4011
18539W        W31953   2.110   9.682   0.120  0.0042 -0.0856 -0.2003
18540W        W31954   6.905   1.565   1.949 -0.1443 -0.0120 -0.1233
18541W        W31955  16.125   7.566  14.920 -0.1856 -0.0407 -0.0323
18542W        W31956   4.630  13.245  10.533 -0.2410 -0.1552 -0.0953
18543W        W31957   9.771  13.542   2.350 -0.3303 -0.1820  0.2484
18544W        W31958  12.907   9.938  12.445 -0.0670  0.2633 -0.1701
18545W        W31959  13.431  10.116  11.184 -0.0454  0.0288  0.0227
18546W        W31960   6.168   8.670   3.109  0.2480 -0.2506  0.0471
18547W        W31961   2.469  10.573  15.250 -0.0512  0.1523  0.0109
18548W        W31962   0.485  16.461  15.004 -0.1043  0.0326  0.0205
18549W        W31963  15.923  13.146   2.124 -0.0150 -0.0636 -0.0310
18550W        W31964  15.736   5.518  14.614  0.2024  0.2610  0.1614
18551W        W31965   2.463   3.231  13.090 -0.1782 -0.0634 -0.1469
18552W        W31966   8.393   4.692   5.244 -0.0870 -0.2344 -0.2419
18553W        W31967   4.977   9.550  14.947  0.0658 -0.1634  0.0896
18554W        W31968  15.705   9.679  12.144 -0.0737 -0.1239  0.0633
18555W        W31969   8.236  11.832   6.334 -0.1088  0.0781 -0.1199
18556W        W31970  10.710   4.330  11.719  0.2771  0.0664 -0.1075
18557W        W31971   4.512  11.620   6.035 -0.1715  0.0302  0.2246
18558W        W31972   1.705   4.970   0.469  0.1441  0.2093  0.0664
18559W        W31973   1.732   9.753  15.767  0.0569  0.0292 -0.1191
18560W        W31974  14.128  13.066  14.070  0.1844  0.1528 -0.0291
18561W        W31975   7.041   9.856  10.772 -0.0638 -0.1248 -0.0678
18562W        W31976   0.370   0.127  11.177 -0.0075  0.1567 -0.1832
18563W        W31977   6.028  12.607  12.797  0.1536 -0.0768 -0.2110
18564W        W31978  10.711   9.840   2.601  0.0691  0.3370 -0.1600
18565W        W31979   9.148   8.435  10.203  0.0821  0.2614 -0.0752
18566W        W31980   0.690  14.847   2.201  0.1130  0.1212 -0.0161
18567W        W31981   3.269   8.645   0.582  0.1361  0.1404  0.1263
18568W        W31982   7.570  11.117   2.454 -0.2952  0.2067 -0.0368
18569W        W31983   9.350   8.833  13.432 -0.1983  0.3231 -0.1511
18570W        W31984  15.311  10.954   2.983 -0.0728  0.1915  0.0640
18571W        W31985   6.748  10.532  15.380 -0.3216  0.0667 -0.0064
18572W        W31986   6.772  15.235  12.483  0.0630  0.1513 -0.0459
18573W        W31987   5.608   0.247   3.559  0.0119 -0.1895 -0.0153
18574W        W31988   7.884  16.799   3.848  0.1945 -0.2403 -0.1577
18575W        W31989   2.423  10.493  13.646 -0.0057  0.0558 -0.0271
18576W        W31990  15.671   9.485   4.840  0.2111  0.0312 -0.0194
18577W        W31991  14.519   5.717  10.720 -0.1070 -0.1705  0.2379
18578W        W31992   7.656   1.845  13.810 -0.1086 -0.3255 -0.1919
18579W        W31993   4.139   1.612  11.131 -0.0882  0.2062  0.2983
18580W        W31994  11.386   4.404   1.680 -0.1636  0.5497  0.1498
18581W        W31995  13.263  13.300   4.224  0.0336 -0.0169 -0.2361
18582W        W31996   3.148  11.892   4.968  0.1512  0.0055 -0.1055
18583W        W31997   9.139  11.098   1.554  0.1461  0.0471  0.2621
18584W        W31998   9.386  13.013   2.866 -0.2432 -0.0056 -0.0294
18585W        W31999  10.395  14.737  15.035 -0.2979 -0.1579  0.3774
18586W        W32000  11.504   8.968   5.006  0.1371  0.3124  0.1307
18587W        W32001   5.291  17.664   0.615 -0.1521  0.2042 -0.1414
18588W        W32002   7.937   9.968   6.791 -0.3574  0.3260  0.1410
18589W        W32003   8.268  12.194   4.392  0.1669  0.2709 -0.0493
18590W        W32004  15.750   8.816  13.926 -0.1728  0.0381  0.0054
18591W        W32005   2.773   5.638  14.540 -0.1615  0.0549  0.2704
18592W        W32006  16.619  12.585  12.387 -0.1505 -0.2083  0.0318
18593W        W32007  17.525  13.701   1.117 -0.0534  0.1783 -0.3798
18594W        W32008  13.090  13.225   4.719 -0.1221 -0.0895  0.0066
18595W        W32009   4.062   6.039   4.643  0.0515 -0.0482  0.1356
18596W        W32010  10.885   4.862  11.551 -0.0946  0.0125  0.0130
18597W        W32011   9.583  17.490  12.037  0.2993 -0.0496 -0.2470
18598W        W32012   7.785  17.228  14.145  0.1417 -0.0236  0.1017
18599W        W32013  15.949  18.032  14.438  0.0247 -0.2183 -0.0254
18600W        W32014  17.120   6.125  14.880 -0.1525  0.0241 -0.3762
18601W        W32015  13.382   0.115   5.499 -0.0170  0.0893  0.0116
18602W        W32016  16.982   1.986  11.853  0.1726 -0.1219 -0.0033
18603W        W32017  16.736  11.807   0.390 -0.4203  0.3737 -0.1863
18604W        W32018   6.310   1.487  16.086  0.0151  0.0325  0.0469
18605W        W32019  13.054  17.521   4.101 -0.2090 -0.2295 -0.0474
18606W        W32020  10.143   5.813  14.944  0.2420 -0.0269  0.3601
18607W        W32021   1.846   9.475  13.045  0.0658 -0.0304  0.1046
18608W        W32022  11.231  14.720   1.088 -0.2439 -0.0063  0.0454
18609W        W32023  15.030   0.508   4.632 -0.2450  0.0699 -0.0592
18610W        W32024   3.237   0.308  16.470 -0.2608 -0.3035 -0.1655
18611W        W32025   2.924   8.946  10.430 -0.1546  0.0517 -0.1649
18612W        W32026  11.601  16.002   2.897  0.1114 -0.2430 -0.1904
18613W        W32027  10.561  12.371  12.990  0.1371  0.1106  0.1993
18614W        W32028  11.662  10.788  16.375 -0.0002 -0.2967 -0.2091
18615W        W32029   1.467   4.666  14.236  0.1684  0.0640 -0.0020
18616W        W32030  10.144   2.904  12.737  0.0961  0.0104  0.5569
18617W        W32031  12.204   3.734  13.615  0.3208 -0.0240 -0.0904
18618W        W32032   2.327   1.529   0.836 -0.1807 -0.2239 -0.1828
18619W        W32033  13.720  10.983   3.297  0.1940 -0.0616  0.0930
18620W        W32034   4.578  18.147   3.039 -0.1888 -0.1567 -0.0448
18621W        W32035  15.111  13.753  10.617  0.3864 -0.0722  0.1458
18622W        W32036   7.544   1.388  11.108  0.2024  0.1650  0.2105
18623W        W32037   3.584  11.708  14.787  0.0422 -0.1549 -0.0706
18624W        W32038   8.743  14.221  11.325 -0.3802 -0.2321  0.0939
18625W        W32039   8.029  11.617   0.126 -0.0301 -0.2550 -0.0530
18626W        W32040   2.338  12.696  15.026 -0.0537  0.1657 -0.3011
18627W        W32041   7.117  13.208   5.736 -0.3182  0.2830  0.1397
18628W        W32042  17.804   1.250   4.254  0.2116 -0.0610  0.0930
18629W        W32043   3.609  14.606  12.835  0.1642  0.1579  0.0667
18630W        W32044  14.852   5.259   9.975 -0.2190 -0.4138  0.4789
18631W        W32045  15.365   5.552   1.540 -0.2929 -0.2695  0.1937
18632W        W32046   5.260  11.431   0.782  0.0118 -0.1954  0.0748
18633W        W32047   2.260  13.755   0.868 -0.0335  0.0205  0.0365
18634W        W32048  16.593  10.014  11.117 -0.2005  0.1323 -0.0086
18635W        W32049   3.945  13.749  15.625  0.1941  0.2183  0.0689
18636W        W32050  11.716  14.443   4.899  0.0794  0.1191  0.1469
18637W        W32051   1.680   7.565  15.858  0.1307  0.0436 -0.2703
18638W        W32052   9.346  17.922  10.637  0.0798 -0.0470  0.2619
18639W        W32053   1.376   6.553   5.168  0.0016  0.0711 -0.2320
18640W        W32054  14.517   6.162   0.757 -0.1431  0.1506  0.0323
18641W        W32055   4.535   2.434   3.470 -0.1364 -0.3154  0.2060
18642W        W32056  16.582  16.978  14.208 -0.0217  0.0993 -0.1327
18643W        W32057  15.335   4.751  16.298 -0.0299  0.1843 -0.0154
18644W        W32058  14.408  12.745  10.729 -0.2420 -0.2651 -0.1148
18645W        W32059  11.337  17.508  14.401 -0.2088 -0.3920 -0.0910
18646W        W32060   9.655  12.183   5.647 -0.3154 -0.0576  0.0347
18647W        W32061  17.730   0.408   2.394 -0.2422  0.2600 -0.0070
18648W        W32062  16.249  15.941  16.113 -0.2597 -0.0130 -0.1734
18649W        W32063  16.314  14.404   4.331  0.2900  0.0967 -0.1409
18650W        W32064   0.805  15.517  14.281  0.0606  0.1461 -0.0678
18651W        W32065   6.912   6.104   1.703 -0.0782 -0.1409  0.1236
18652W        W32066  13.451   5.127   5.504 -0.0087  0.4407  0.1008
18653W        W32067  15.045  15.462   2.751 -0.3317  0.0052 -0.1069
18654W        W32068   7.068   2.874  16.091  0.0803 -0.1960  0.0073
18655W        W32069  12.806  18.134   0.369 -0.4309  0.4729 -0.1632
18656W        W32070   1.619   7.133   3.432 -0.0463 -0.1896 -0.0481
18657W        W32071   2.987  12.041  15.204 -0.2537  0.2089  0.0972
18658W        W32072   8.850   2.396   9.847  0.0365 -0.0385  0.0748
18659W        W32073  16.053  16.067  13.379 -0.3401  0.2357 -0.0938
18660W        W32074   3.956  16.982   4.329 -0.0416 -0.3270 -0.2381
18661W        W32075  10.818  17.542  14.560  0.0032  0.0168  0.1421
18662W        W32076   3.323   5.553   4.881 -0.3087  0.1582 -0.4373
18663W        W32077  14.116  14.976   3.884 -0.1063  0.1391 -0.1146
18664W        W32078  12.111   1.512  15.938  0.1652 -0.0648  0.1017
18665W        W32079   8.945   4.499   2.556  0.0376  0.0724 -0.0985
18666W        W32080  15.376   3.052   0.966  0.0694  0.1718  0.1082
18667W        W32081   0.005   3.044   0.123 -0.2747  0.5083 -0.5344
18668W        W32082  17.798   1.827   4.720 -0.0643 -0.2671 -0.1089
18669W        W32083   8.908   2.573   2.836 -0.2308 -0.0644  0.1651
18670W        W32084  16.618  16.376  10.807 -0.1264  0.0634 -0.1244
18671W        W32085   8.063   2.323  10.203  0.0418 -0.2644  0.0650
18672W        W32086  15.970  16.023  11.489 -0.0936 -0.0376  0.1484
18673W        W32087   6.996   0.023   4.030 -0.2042 -0.2074  0.1414
18674W        W32088   1.226  14.420   1.753  0.0921  0.2145  0.2228
18675W        W32089  16.135  12.102  16.398 -0.2000 -0.2555 -0.1562
18676W        W32090   1.632   1.920  14.822  0.0797  0.1564  0.2321
18677W        W32091   0.496   6.240  13.658  0.2290 -0.0911 -0.0263
18678W        W32092  13.731   2.889  15.439 -0.3714 -0.0050 -0.4385
18679W        W32093  10.034   3.005   1.852  0.1240  0.0220  0.0308
18680W        W32094   3.378  15.164   6.075  0.1112 -0.1339 -0.2983
18681W        W32095  17.144   0.195   0.254 -0.4963 -0.2053  0.0467
18682W        W32096   9.521  14.936   3.780 -0.2126 -0.0584 -0.1228
18683W        W32097  11.451   0.808  12.797  0.2207  0.2894 -0.1769
18684W        W32098   0.298  15.980   4.690  0.1169 -0.3496  0.1116
18685W        W32099   3.487   6.101   1.447 -0.1245  0.0944  0.1877
18686W        W32100  13.271  10.087  16.026  0.0157 -0.1314 -0.2228
18687W        W32101  10.240  12.786   5.053  0.0941  0.0519  0.1505
18688W        W32102  12.757   3.270   4.869  0.1073  0.0777  0.0728
18689W        W32103   3.439   5.479   0.676 -0.1807 -0.0995  0.1291
18690W        W32104   0.879   1.697   4.232  0.2184 -0.0374  0.0866
18691W        W32105  14.282   7.785  14.206 -0.2768  0.3533 -0.0077
18692W        W32106  10.906   5.284   3.166 -0.1545  0.0437 -0.2921
18693W        W32107  16.607   4.760  10.692 -0.2294  0.4232  0.0850
18694W        W32108  15.385  15.766   2.910 -0.3149 -0.1501  0.0174
18695W        W32109   0.569  16.219  13.767  0.0416  0.1878 -0.1045
18696W        W32110   4.627  11.203  14.742 -0.0656 -0.1525 -0.1240
18697W        W32111   1.446  14.161  12.030  0.0643 -0.1230  0.1523
18698W        W32112  14.738  11.066   6.034 -0.4034  0.1660 -0.0096
18699W        W32113   7.121   9.716  11.784 -0.0413  0.4111 -0.0381
18700W        W32114   7.291   6.961  14.375 -0.1107 -0.3052  0.2845
18701W        W32115  11.035   1.385   1.226  0.0081  0.2809  0.1352
18702W        W32116   1.282  12.365   0.994 -0.0991 -0.0290  0.2769
18703W        W32117   8.045   9.613   3.228 -0.0565  0.4275  0.0275
18704W        W32118  17.508   8.174   4.748 -0.3396 -0.2020 -0.0251
18705W        W32119   9.920   4.634  15.124  0.0617  0.2446  0.1103
18706W        W32120   8.155  16.518  12.290 -0.0482  0.0665  0.2291
18707W        W32121   9.195  15.317  14.285 -0.0565  0.0424 -0.1844
18708W        W32122  13.232  17.863   0.387 -0.1459  0.0447  0.0518
18709W        W32123  18.194  12.493  11.457  0.0526 -0.2344 -0.0469
18710W        W32124  10.064   6.927  11.799  0.0201 -0.2593 -0.0699
18711W        W32125   4.626  15.494  13.137  0.0228 -0.0698 -0.0182
18712W        W32126  15.210   8.117  11.271 -0.0692  0.2056 -0.0847
18713W        W32127  17.647  13.793   0.626 -0.0125  0.0868  0.1335
18714W        W32128   9.880  13.276   5.652  0.1648 -0.2949 -0.1804
18715W        W32129  10.922   5.045   4.447  0.0130 -0.0890 -0.1596
18716W        W32130  11.326   4.080   2.029 -0.1545 -0.0006 -0.1273
18717W        W32131  13.955   7.226   3.273 -0.1047  0.2230  0.0595
18718W        W32132  17.792   1.910  10.128 -0.1580 -0.0519 -0.0157
18719W        W32133   8.955   8.323  13.853  0.1877  0.1349  0.2015
18720W        W32134   2.535   4.022   1.236  0.0762 -0.1517 -0.1465
18721W        W32135   5.812  13.724  13.550  0.0096  0.0005 -0.0848
18722W        W32136  14.891  14.155  13.436  0.2663 -0.1050  0.0824
18723W        W32137  11.774  17.141   5.490  0.3334 -0.0864 -0.0836
18724W        W32138   3.909  16.170   1.780 -0.0910  0.2124  0.1777
18725W        W32139  13.354   1.275  10.602  0.0237  0.4693 -0.1241
18726W        W32140  17.107  14.804  12.595  0.1434 -0.2592 -0.2421
18727W        W32141  13.427   2.225  16.265  0.1420  0.1159 -0.1553
18728W        W32142  16.824   1.519  10.906 -0.3695 -0.0374 -0.0169
18729W        W32143   0.594   6.825   1.582 -0.1667  0.1405 -0.1339
18730W        W32144   2.808  10.628   5.502 -0.1618 -0.1640  0.4104
18731W        W32145   0.748   2.350  16.273  0.0448 -0.0035  0.0588
18732W        W32146  17.586  16.725  13.504  0.0223 -0.0830 -0.0531
18733W        W32147   7.351  13.457  15.591  0.4882 -0.1076 -0.1790
18734W        W32148   7.304  15.428   5.531  0.0943  0.0570 -0.0228
18735W        W32149  16.054  17.821   5.087 -0.1570 -0.0149 -0.1495
18736W        W32150  14.989  18.150  14.305 -0.3788  0.3351  0.0755
18737W        W32151   1.576  17.655   4.978  0.0359  0.0448 -0.0127
18738W        W32152  12.778  15.100   3.335  0.0923  0.3447 -0.1657
18739W        W32153   2.530  16.838   5.546 -0.1297 -0.0446 -0.0924
18740W        W32154   2.334   4.747  13.069 -0.0286 -0.2305 -0.0709
18741W        W32155  15.050  15.039  11.751 -0.1567  0.1454  0.2432
18742W        W32156   2.171  16.849  12.840  0.0413 -0.3258 -0.0205
18743W        W32157  14.185  16.220   2.787 -0.1405 -0.0785  0.0526
18744W        W32158   9.520   9.133   4.891 -0.0155  0.0345  0.2376
18745W        W32159   5.306   7.383  15.598  0.1468 -0.3335 -0.0399
18746W        W32160   2.279  17.614  14.827 -0.0681  0.0311  0.0457
18747W        W32161  13.804  16.238   3.876  0.1665  0.1572 -0.0656
18748W        W32162  11.968  16.857  14.824  0.0273 -0.1016  0.0877
18749W        W32163   3.228   8.799   0.076 -0.1867 -0.0163 -0.0396
18750W        W32164   3.274   2.816  11.819 -0.0797 -0.1208  0.0175
18751W        W32165   9.124   4.359  13.702 -0.3065  0.1466  0.1017
18752W        W32166  12.099   3.900  15.303 -0.0698  0.0673  0.0050
18753W        W32167   0.607   4.425  14.760 -0.0207  0.0175 -0.1036
18754W        W32168   4.827  16.891  14.629 -0.0536  0.0977 -0.2433
18755W        W32169   3.073  14.270   0.406 -0.2350 -0.0584 -0.2655
18756W        W32170  18.206  17.127   1.791  0.0809 -0.2713 -0.2611
18757W        W32171   9.157  10.438  16.339  0.1156  0.0813  0.0612
18758W        W32172   9.118  15.182   2.858  0.2364  0.5258  0.0193
18759W        W32173   3.479   9.258  16.282 -0.2425 -0.3057 -0.0778
18760W        W32174  18.160  14.605  13.177 -0.0649  0.0385 -0.3118
18761W        W32175   0.428  12.434  16.312  0.4715 -0.1086 -0.0414
18762W        W32176   8.625  10.400   3.255 -0.1180  0.0609 -0.0779
18763W        W32177   7.117   8.593   6.543  0.6245  0.4012  0.2127
18764W        W32178   4.430   4.201   1.322 -0.2580 -0.4514 -0.0592
18765W        W32179   0.644  11.099   4.378  0.0671 -0.0466  0.1359
18766W        W32180   8.050  16.860  14.290  0.1837 -0.0310  0.0226
18767W        W32181  17.757   1.149  12.705  0.0542 -0.2413  0.3089
18768W        W32182  15.848  11.048  15.031 -0.1814 -0.2539 -0.2749
18769W        W32183  10.099   4.374  15.650  0.2028  0.0193 -0.0123
18770W        W32184  14.335   0.370  13.803 -0.0551  0.0061  0.1868
18771W        W32185  14.987   2.957   2.723  0.1133 -0.0312 -0.2335
18772W        W32186   5.263  13.202  16.301  0.0378 -0.1170 -0.0499
18773W        W32187  11.491   8.499   5.268 -0.2836  0.2577 -0.1683
18774W        W32188  16.685  11.530   4.625 -0.0030  0.0110 -0.1038
18775W        W32189   0.066   0.599  13.155  0.1059 -0.1099  0.2921
18776W        W32190   2.250   5.053   0.487  0.0144 -0.4530  0.2562
18777W        W32191  14.530  10.310   3.518 -0.2201  0.0548  0.0188
18778W        W32192   7.876   8.165  11.260  0.1656  0.1733  0.1359
18779W        W32193   8.459  17.743  15.033 -0.4326  0.2876  0.0623
18780W        W32194   8.313   4.922  10.655  0.0450 -0.1152  0.2346
18781W        W32195  13.913  13.600  13.716 -0.2523 -0.0368  0.2830
18782W        W32196   7.929   5.265  10.574  0.1294  0.0301 -0.1355
18783W        W32197  12.806   9.390   2.593  0.0118 -0.1310  0.0281
18784W        W32198  17.555  12.531  12.646 -0.0055 -0.4658  0.0735
18785W        W32199   1.922  17.565   0.048  0.1173 -0.2738  0.0274
18786W        W32200  14.973   9.413   6.220  0.0755 -0.1134 -0.2703
18787W        W32201   3.305  14.801   4.054 -0.4081  0.1831  0.0418
18788W        W32202  15.343  14.231  10.500 -0.0928  0.2246  0.2268
18789W        W32203  14.793  17.886  11.710  0.0817 -0.0334  0.0917
18790W        W32204   8.769   2.759  11.263 -0.1327 -0.0253 -0.2072
18791W        W32205  17.541   7.679   4.715  0.2234  0.1054 -0.0494
18792W        W32206  12.613  16.555  12.606 -0.0163  0.1367 -0.3102
18793W        W32207  16.690   5.433   1.002 -0.0555 -0.0334  0.2757
18794W        W32208  10.580  12.455   2.908  0.1327 -0.1946  0.0324
18795W        W32209  11.415   6.797   5.106  0.2804  0.0823  0.0096
18796W        W32210  17.573  12.597   4.083 -0.2480 -0.0163 -0.1279
18797W        W32211   4.708  17.735  16.265 -0.1530  0.0612 -0.0190
18798W        W32212   6.704   5.123   5.435 -0.0495 -0.1012 -0.0731
18799W        W32213   6.459   3.043   4.347 -0.1223 -0.1436 -0.1475
18800W        W32214  15.334   3.781   4.805 -0.1146  0.1028  0.1299
18801W        W32215  18.013   7.017  11.818 -0.2425 -0.0021 -0.0977
18802W        W32216  15.625  17.357  14.336 -0.2531  0.1040 -0.0059
18803W        W32217   3.836  17.523   1.633 -0.1123  0.1815 -0.1906
18804W        W32218   0.366   7.330  13.787 -0.1521 -0.2224  0.0473
18805W        W32219  15.056  10.782  15.681 -0.0985  0.2325  0.3006
18806W        W32220  10.014  16.997   2.557  0.1539 -0.1620 -0.3005
18807W        W32221  16.507  15.119   1.161 -0.2217  0.1231  0.1192
18808W        W32222  10.784  15.340  15.098 -0.0829  0.1354 -0.1318
18809W        W32223  14.165   6.144  13.823  0.1449  0.3860  0.1547
18810W        W32224  13.877  14.202   2.630 -0.0495 -0.0220 -0.1716
18811W        W32225   5.183  14.542   2.321 -0.0051  0.0924  0.1106
18812W        W32226  13.163  15.151  15.204 -0.1648  0.0148 -0.1013
18813W        W32227   3.278  14.141   1.797  0.1079 -0.0151  0.2233
18814W        W32228   8.273  12.533  15.891 -0.2192 -0.0695 -0.3702
18815W        W32229  14.180   4.841  10.842  0.1494 -0.2418 -0.1584
18816W        W32230  10.642   0.631  15.125 -0.0048 -0.0044  0.1055
18817W        W32231  15.870   7.990   3.767 -0.4378  0.2013 -0.1008
18818W        W32232   4.199   8.829   0.689  0.0152 -0.1945  0.2130
18819W        W32233   0.434   0.245  14.130 -0.0241  0.0710  0.2461
18820W        W32234   2.005   4.182   1.942 -0.0772  0.0450 -0.0345
18821W        W32235  13.759  17.280  13.224  0.1216 -0.1857  0.2567
18822W        W32236   2.284  11.783  14.754  0.0160  0.0367 -0.0751
18823W        W32237   9.728   8.355  13.601  0.1362  0.0302 -0.2435
18824W        W32238  13.114   5.700  11.777 -0.1173 -0.0158 -0.0898
18825W        W32239  11.390   1.517  12.205 -0.4249  0.0389  0.3133
18826W        W32240   0.043  15.969   4.156 -0.1549  0.2185 -0.3603
18827W        W32241   5.703   4.428  13.029  0.0167 -0.1964  0.0895
18828W        W32242   3.695  13.553   0.033  0.1087  0.2227 -0.0416
18829W        W32243  15.861   4.220   4.230 -0.3756 -0.0061  0.2079
18830W        W32244  12.949   2.691   5.306 -0.1823  0.1589  0.2564
18831W        W32245  10.511  12.393   2.439  0.1141  0.2390  0.3465
18832W        W32246   0.623   1.861  14.079  0.1094 -0.0067  0.0156
18833W        W32247   2.528  16.415  13.041 -0.2353  0.3506 -0.1160
18834W        W32248  14.052  11.485   1.430  0.1535  0.0557 -0.3216
18835W        W32249   3.185  10.049  14.847 -0.1099  0.3670  0.3105
18836W        W32250   6.913   6.986   2.964 -0.1816  0.1304  0.0478
18837W        W32251   6.647  16.307  11.009  0.0745 -0.0425  0.2622
18838W        W32252   2.168  17.130  10.993  0.2209 -0.0333  0.3441
18839W        W32253   2.239  12.819  12.858  0.0172  0.1882  0.0734
18840W        W32254  10.636   1.806  14.490  0.0608  0.1788  0.1922
18841W        W32255  13.511   9.097  14.408  0.1164  0.3889 -0.0982
18842W        W32256  14.427   1.130  10.745 -0.1230 -0.1537 -0.1045
18843W        W32257  14.979   0.035   2.957  0.1674  0.2394  0.4110
18844W        W32258   8.027   4.099   1.093 -0.1741  0.0212 -0.0856
18845W        W32259   8.837   1.287  10.753  0.1913 -0.2578  0.3763
18846W        W32260  15.430   3.955   2.737  0.0352  0.1896  0.2294
18847W        W32261   6.294   7.251  15.887  0.1339 -0.2218 -0.0780
18848W        W32262   9.051  13.684   5.522 -0.2328  0.0269  0.1897
18849W        W32263   1.516  11.075   2.858 -0.2239 -0.2479 -0.0076
18850W        W32264   5.740   5.790  12.714  0.1303 -0.0250  0.0135
18851W        W32265   3.277  11.477  12.442  0.2107  0.2213  0.3054
18852W        W32266   4.642   1.661   2.134  0.0612  0.1826  0.1885
18853W        W32267   3.296  10.487  16.513  0.0074 -0.0945 -0.1058
18854W        W32268   2.291   6.781  13.139 -0.0606  0.1972 -0.1515
18855W        W32269   1.395   5.346   0.624 -0.0950 -0.1081 -0.0383
18856W        W32270   7.706   7.989   0.262  0.0994  0.0750 -0.0613
18857W        W32271   2.779  12.901   1.390  0.0182 -0.1724 -0.4392
18858W        W32272   2.836   3.528   5.918  0.1594 -0.0277 -0.3447
18859W        W32273  11.229  17.655  13.926 -0.1356 -0.1018 -0.0805
18860W        W32274  12.758   6.440   4.574 -0.0094 -0.2338 -0.0192
18861W        W32275   5.381   4.736  13.196  0.1109  0.1258 -0.6186
18862W        W32276  11.438  18.142  12.221  0.0380  0.0108 -0.0691
18863W        W32277  14.190   5.256   3.246 -0.3237  0.0833  0.0291
18864W        W32278  10.625  16.953   3.509  0.1160  0.1568 -0.1471
18865W        W32279  17.229   6.051  11.140  0.0189 -0.0383  0.0100
18866W        W32280   5.324   9.887   4.081  0.1164 -0.1404 -0.1747
18867W        W32281   2.212  16.008  14.536  0.0698  0.0473 -0.0353
18868W        W32282   9.983   2.364   1.214 -0.2947 -0.1437 -0.2966
18869W        W32283   6.324  10.761  11.698 -0.2728  0.3409  0.1054
18870W        W32284  12.431   3.712  11.866  0.1911 -0.0303 -0.2368
18871W        W32285   6.526   4.217   3.058  0.1706  0.1110 -0.0572
18872W        W32286   8.933  11.396   4.421 -0.2296 -0.0509  0.5243
18873W        W32287  10.990   5.897   1.915  0.0623 -0.3133  0.1876
18874W        W32288   7.562   0.135   3.140 -0.4213 -0.0295  0.3228
18875W        W32289  11.022   2.742  12.039  0.0210 -0.1110 -0.0236
18876W        W32290  12.956   4.899   0.721 -0.0853 -0.1358  0.1148
18877W        W32291   0.216   6.361   4.887  0.2502 -0.0114  0.1538
18878W        W32292   9.842  11.400   5.647 -0.0011  0.0410 -0.1181
18879W        W32293  15.824  15.405   5.347  0.0177 -0.1950 -0.0911
18880W        W32294   7.896   2.040   0.193  0.0188 -0.0511  0.2075
18881W        W32295  10.380  17.200   3.847  0.0249 -0.1245 -0.2754
18882W        W32296   3.639  16.343  15.579 -0.0096 -0.3004  0.0347
18883W        W32297  12.839  14.443   4.622  0.1862  0.1006 -0.1911
18884W        W32298  17.172   0.596   4.251  0.1055 -0.0249  0.0081
18885W        W32299   0.467   6.204   2.403 -0.1453  0.0862 -0.0411
18886W        W32300   5.096   8.726   5.944 -0.3336  0.2139  0.1814
18887W        W32301   1.612  11.428   5.208  0.0104 -0.0770  0.0903
18888W        W32302  16.504   7.049   3.255  0.2072  0.0665 -0.1735
18889W        W32303   4.102  16.195   4.833 -0.0442  0.0158  0.0597
18890W        W32304   4.970   8.505   1.483 -0.2327  0.2979 -0.2210
18891W        W32305  10.942   0.785  11.011 -0.0817 -0.1700  0.2281
18892W        W32306   1.852  15.796   3.293 -0.3035  0.0102  0.2667
18893W        W32307   9.942   5.825  13.804 -0.1517  0.1234  0.1066
18894W        W32308  16.567  15.977  15.210 -0.1556  0.3796  0.0295
18895W        W32309  13.312   9.536   6.096 -0.1740 -0.2946 -0.3328
18896W        W32310   9.681   9.359  15.971  0.0514 -0.0291  0.0901
18897W        W32311  12.831  17.070   4.335  0.0065  0.0576 -0.0166
18898W        W32312   3.834   3.082  13.018  0.1948  0.0171 -0.1174
18899W        W32313  12.314   7.114   4.114  0.1100 -0.2838 -0.1269
18900W        W32314   8.958   0.995   9.408  0.0409  0.1120  0.3430
18901W        W32315  10.773  10.374  10.951  0.3150 -0.0673 -0.0040
18902W        W32316   5.264  15.721  15.274 -0.1549  0.0083  0.2349
18903W        W32317   6.157  12.306   0.627  0.1757  0.1408  0.1243
18904W        W32318  12.452  12.660  15.698  0.0279  0.1968 -0.3378
18905W        W32319   2.756   9.879  10.156 -0.2568  0.0486 -0.3930
18906W        W32320  10.649  15.364   4.285 -0.0133 -0.0078 -0.0531
18907W        W32321  13.102   1.070  10.986 -0.2162 -0.0051  0.0006
18908W        W32322  13.619  12.035  12.478 -0.1391 -0.2605 -0.2068
18909W        W32323   6.552   0.676  11.199 -0.0721 -0.1261  0.2671
18910W        W32324   3.637   3.630   1.480  0.0112  0.1163 -0.1192
18911W        W32325  11.776  17.226  11.697  0.1477  0.3436 -0.1774
18912W        W32326  16.112   3.223   3.568  0.1991  0.3113  0.3096
18913W        W32327  16.960   5.587  10.875  0.1415  0.0578 -0.1987
18914W        W32328   3.406   3.508   2.246 -0.1780 -0.2093 -0.1505
18915W        W32329  15.377  17.019   3.581 -0.1187 -0.3526 -0.0723
18916W        W32330  11.922   6.539   6.095 -0.1948 -0.4037 -0.0055
18917W        W32331  12.076   0.399  14.344 -0.1175  0.1864 -0.0698
18918W        W32332  13.014   7.247   2.246 -0.0420 -0.1253  0.2672
18919W        W32333  11.157   6.870   0.968  0.2785  0.1326  0.5368
18920W        W32334   1.304   3.492   4.093 -0.0039 -0.0003  0.1311
18921W        W32335  15.161  10.956   0.377  0.0001 -0.0474 -0.2201
18922W        W32336  16.486  14.356  15.847 -0.2979 -0.0050  0.1586
18923W        W32337   7.807   0.331   3.891  0.2531  0.0336 -0.0805
18924W        W32338  12.159  16.573   4.046  0.1010  0.0651 -0.1234
18925W        W32339  17.805   4.896   4.702  0.0976  0.1096  0.1272
18926W        W32340  12.008  13.279   6.508 -0.0463 -0.0479 -0.1123
18927W        W32341   7.579   1.544   0.893  0.0781  0.0103 -0.2580
18928W        W32342  10.063  16.376  12.539 -0.0618 -0.3251 -0.1155
18929W        W32343   6.699  17.248   1.995  0.1662 -0.0393 -0.1229
18930W        W32344  10.575   3.691  15.674  0.4111 -0.2972 -0.2045
18931W        W32345   0.077  18.120  13.393  0.1346 -0.0922  0.0005
18932W        W32346   9.612  12.241   1.750 -0.0090 -0.0112 -0.0209
18933W        W32347   5.649  14.612   3.683  0.3835 -0.2851  0.2100
18934W        W32348  13.276  15.643   1.534 -0.0481 -0.1147 -0.0690
18935W        W32349   1.500  14.730  16.239 -0.0447  0.1861 -0.0806
18936W        W32350  15.787   9.759   4.383 -0.3068  0.1174 -0.3412
18937W        W32351  11.678   7.296  12.776 -0.2612 -0.1631 -0.0026
18938W        W32352  15.152   5.554   5.676  0.4708 -0.2535 -0.0225
18939W        W32353   7.434  14.349  16.166 -0.1584  0.1565 -0.0827
18940W        W32354  15.911   4.622  15.058  0.0332 -0.3215  0.1296
18941W        W32355   5.361   0.901   3.844 -0.0454  0.0923 -0.3333
18942W        W32356  12.983   3.758  15.406 -0.0494  0.0358 -0.1112
18943W        W32357  11.188  16.404  11.844  0.3822 -0.2170  0.0512
18944W        W32358   0.939   2.018   1.663  0.0428  0.1102 -0.0243
18945W        W32359   3.446  11.092   4.017  0.0320  0.0337 -0.2430
18946W        W32360   4.250  11.254   2.100  0.0515 -0.0415  0.0169
18947W        W32361  12.589  13.167  13.216  0.0628 -0.0742 -0.3625
18948W        W32362  18.137  14.002   3.855 -0.0680 -0.0954  0.5055
18949W        W32363  16.108   8.237   0.616 -0.0233 -0.5710  0.0639
18950W        W32364   6.556  14.393   4.808 -0.4492 -0.1767 -0.1905
18951W        W32365   7.043  17.012   0.773 -0.1506  0.1844 -0.3764
18952W        W32366  14.458   8.898   1.232 -0.3431 -0.0583 -0.2025
18953W        W32367   3.161  14.787   2.612  0.0359  0.0290 -0.3727
18954W        W32368  14.655  14.165   4.595  0.0692  0.1588 -0.1427
18955W        W32369  16.474   8.804   3.287  0.2208  0.2826 -0.1048
18956W        W32370  12.677   0.365  12.544  0.0709 -0.0469 -0.3290
18957W        W32371   2.207   1.616   2.218 -0.2600  0.1193  0.4184
18958W        W32372  15.628   9.991   4.970  0.0786  0.1050 -0.1513
18959W        W32373   2.780   5.028  14.500 -0.1978  0.0623  0.0611
18960W        W32374   2.772  16.111   2.961  0.0510 -0.3076  0.0057
18961W        W32375   4.160  17.188  15.662 -0.0033  0.1924 -0.0518
18962W        W32376  13.321  17.787  11.369  0.1665  0.1809 -0.0103
18963W        W32377  13.934   5.203  14.618  0.1060 -0.1810 -0.0498
18964W        W32378   5.998   6.982  15.279 -0.0788 -0.1702  0.1439
18965W        W32379   3.879  14.373  11.284 -0.2459 -0.1199  0.1375
18966W        W32380  16.547  15.890   0.061 -0.2004  0.0100  0.3291
18967W        W32381   9.737   7.253  11.604  0.1149  0.1465 -0.0237
18968W        W32382   7.416   2.699  13.693  0.0730  0.0200  0.1725
18969W        W32383  15.705  15.738  14.138  0.1217  0.3242  0.3675
18970W        W32384  12.558   2.103   2.327 -0.2484 -0.2292  0.1977
18971W        W32385  17.656   7.393  11.836  0.0195 -0.0255 -0.0035
18972W        W32386  16.481   0.112  13.912 -0.1609  0.0976 -0.2225
18973W        W32387   7.010   5.655  14.080  0.0907 -0.1108  0.0265
18974W        W32388  11.006  12.496  11.670  0.0279  0.0364  0.0990
18975W        W32389   6.862   0.135   1.462 -0.1429 -0.0105 -0.2600
18976W        W32390  13.381  17.868   5.787  0.1027  0.0670  0.0907
18977W        W32391   8.900   3.952   2.467 -0.2079 -0.3256  0.0879
18978W        W32392   8.876   4.992  14.377  0.1030  0.0612 -0.0145
18979W        W32393   6.980   8.930  13.514  0.2349  0.2309 -0.0060
18980W        W32394  15.040  11.262   0.000  0.0241  0.1347 -0.1818
18981W        W32395  17.060  14.073   1.772  0.0335  0.1287  0.1660
18982W        W32396  12.270  17.022  13.320  0.0845  0.1680  0.0530
18983W        W32397   4.280   8.339  13.858  0.2136 -0.2615  0.1869
18984W        W32398   0.881   1.848   2.576  0.0523  0.0745 -0.2457
18985W        W32399  10.996  11.571  14.290  0.0007  0.2567  0.3698
18986W        W32400   1.413   3.972  13.001 -0.2387 -0.1558 -0.2066
18987W        W32401   9.854   0.331  16.116  0.0665 -0.0979  0.2207
18988W        W32402  14.088   7.164  15.441 -0.0409 -0.0924 -0.2068
18989W        W32403  15.650   3.502   2.969  0.1656 -0.1039 -0.2530
18990W        W32404  15.953  15.397   3.348 -0.1174 -0.0448  0.1523
18991W        W32405   3.875   1.995  12.664  0.0010 -0.1955  0.0301
18992W        W32406   6.117   6.104  14.949 -0.2432  0.1673  0.3985
18993W        W32407   4.067   0.430   3.839  0.0609  0.0658 -0.3390
18994W        W32408  13.924   1.212   3.800 -0.1395  0.1106  0.0565
18995W        W32409  11.042   6.229  14.229  0.1227  0.3437  0.1117
18996W        W32410  13.592   0.894  12.002 -0.2398  0.0498 -0.0993
18997W        W32411   0.316   0.164   2.705 -0.0018 -0.2088 -0.1967
18998W        W32412  13.027  11.518   1.199 -0.2549  0.1206  0.4211
18999W        W32413   6.407  14.113  11.971  0.1810 -0.0117  0.1348
19000W        W32414  17.620   4.914   4.200  0.3156 -0.0630  0.0110
19001W        W32415   9.246   3.673  16.268  0.1021 -0.2618  0.1425
19002W        W32416  14.904   7.987   3.922  0.1312  0.1143  0.0099
19003W        W32417   0.087  16.951   4.661 -0.1426  0.2338 -0.1514
19004W        W32418  11.644  16.493   4.342 -0.0805 -0.0889  0.0376
19005W        W32419  13.946  10.715  13.818  0.1126 -0.0042 -0.0310
19006W        W32420   4.959   1.996   3.101  0.3906 -0.1163 -0.4243
19007W        W32421  13.231   8.900  11.581  0.1249 -0.1934  0.0061
19008W        W32422  18.056   2.446  14.955 -0.1874 -0.0520 -0.0633
19009W        W32423   2.520   5.492  12.129  0.2386 -0.2368 -0.0795
19010W        W32424  12.709  13.858  10.869 -0.4360  0.0257 -0.1261
19011W        W32425   6.188   8.527   5.440  0.1088  0.0546 -0.0455
19012W        W32426  15.252   3.158  15.491 -0.1221  0.0272  0.1678
19013W        W32427  10.721   5.330  14.447  0.0421  0.0496 -0.3105
19014W        W32428   7.454  13.765   1.760 -0.1685  0.1008  0.2028
19015W        W32429  15.470   6.671  10.952  0.0054 -0.1924  0.1186
19016W        W32430   9.756  17.273  12.474  0.0972  0.0975 -0.0106
19017W        W32431   2.726   5.936  11.498 -0.2714  0.0954  0.0575
19018W        W32432   4.454  14.562   1.265 -0.0896  0.2882  0.2663
19019W        W32433   1.705  14.400  14.906  0.2090 -0.0771 -0.4058
19020W        W32434  11.324  11.218  16.306 -0.0628 -0.1703  0.1504
19021W        W32435   8.857  13.137   5.323 -0.1932  0.1556 -0.1387
19022W        W32436   3.721   7.812   4.687  0.1947  0.2971 -0.2316
19023W        W32437   6.459   0.108  11.004  0.1996 -0.0281 -0.1769
19024W        W32438   9.874  17.268  13.880 -0.1178 -0.0408 -0.1564
19025W        W32439   4.044   9.663  11.190  0.1571  0.0754  0.2738
19026W        W32440  11.937  15.720   2.016  0.3262 -0.1959 -0.1394
19027W        W32441   7.482   0.093  10.527  0.0285 -0.1270 -0.0975
19028W        W32442   3.545  12.791   5.878 -0.1359  0.1060  0.2121
19029W        W32443   9.577  13.291   0.405  0.0341  0.2124 -0.1600
19030W        W32444   2.379   6.701   4.484  0.1465 -0.0977  0.2390
19031W        W32445  10.455   7.359   1.801  0.0780 -0.1884  0.2796
19032W        W32446  12.092   1.460   1.586 -0.1979  0.2297 -0.0991
19033W        W32447  10.412   2.299  15.417 -0.1220 -0.1733  0.2582
19034W        W32448   2.603  13.392   2.148  0.3160  0.2091  0.0270
19035W        W32449  10.782   7.315  11.791  0.0169 -0.0302  0.2111
19036W        W32450   1.229  12.159   1.833  0.2282  0.3517 -0.1217
19037W        W32451   0.236  18.010  16.303 -0.0638 -0.2509  0.0829
19038W        W32452  18.009   8.037   4.956  0.2864  0.1124 -0.3229
19039W        W32453   2.609  15.441  13.367  0.2160 -0.0488  0.0832
19040W        W32454   6.785   6.299  10.719 -0.1440 -0.1275  0.1063
19041W        W32455   0.419   3.145  12.540 -0.3191  0.0245 -0.4668
19042W        W32456   5.291   5.353   6.024 -0.1289  0.0121 -0.0353
19043W        W32457  10.736   3.958   1.156 -0.2586 -0.0236  0.1863
19044W        W32458   3.400   8.748  16.173 -0.1487  0.0090  0.2296
19045W        W32459   8.200   1.341   2.754 -0.0948 -0.0978 -0.0050
19046W        W32460   1.921   3.098   1.375 -0.1623  0.2994 -0.0801
19047W        W32461  15.415   6.997  14.222 -0.0527  0.1212 -0.1098
19048W        W32462  14.210  17.959   3.993 -0.1506  0.0950 -0.1682
19049W        W32463  10.285  15.109  14.064 -0.3352 -0.1208 -0.1075
19050W        W32464  16.908   8.440  13.922  0.3228  0.0156 -0.1100
19051W        W32465  15.382   0.151   3.360 -0.0024  0.1224  0.3415
19052W        W32466   4.843  13.484  13.591  0.3998 -0.0194  0.2651
19053W        W32467   8.779   9.527   3.267  0.1405 -0.0903 -0.0251
19054W        W32468   9.412  11.041   4.168 -0.1876  0.0080 -0.0832
19055W        W32469  13.085   7.782  13.461  0.3171 -0.0174 -0.1461
19056W        W32470  11.175   8.938   4.578  0.0032  0.2161 -0.0997
19057W        W32471   1.794  13.678  15.715  0.1530  0.2866 -0.0135
19058W        W32472   2.819  15.717  12.399 -0.0418 -0.1420 -0.0112
19059W        W32473   3.000  17.168   4.868 -0.0990  0.3151 -0.1041
19060W        W32474  16.169   8.931  13.557  0.0143 -0.0314 -0.0517
19061W        W32475   3.132   6.648  13.929  0.0665 -0.2322  0.0788
19062W        W32476   4.086   2.833  14.308 -0.0850 -0.2497 -0.3405
19063W        W32477   5.279   3.278  15.550 -0.4519 -0.1368 -0.0228
19064W        W32478   9.874   0.534   1.764 -0.1943 -0.2330  0.2991
19065W        W32479   0.798  17.451   3.071 -0.2695 -0.0247  0.2443
19066W        W32480   0.801  13.804   0.631  0.1095 -0.3160 -0.1585
19067W        W32481  16.871   1.125   3.147  0.1123 -0.1652  0.2853
19068W        W32482   5.413  17.838   6.066 -0.2439 -0.1165 -0.0424
19069W        W32483   2.202  16.583  11.080  0.0662  0.2736  0.1238
19070W        W32484   0.838  11.471   4.077  0.0670 -0.0330  0.0402
19071W        W32485   8.843  17.536   2.199 -0.0048  0.0626 -0.2552
19072W        W32486  13.498   9.041   3.253 -0.1898  0.0270  0.2363
19073W        W32487   6.779   5.951   4.427 -0.0236  0.0453 -0.0466
19074W        W32488  14.027  11.610  13.259 -0.2210  0.1952 -0.0415
19075W        W32489   3.971  15.379   2.673  0.1742 -0.0956 -0.0211
19076W        W32490  10.280   5.731   4.295 -0.1510  0.0298 -0.0053
19077W        W32491   4.390   0.770   5.650  0.0274 -0.0897  0.0825
19078W        W32492   2.219   8.929   4.950  0.1347  0.0364  0.0826
19079W        W32493   4.699  12.454   4.337  0.6257  0.0791 -0.2133
19080W        W32494   4.029   3.809   2.546 -0.0080 -0.0491  0.2812
19081W        W32495  10.418   7.900  10.427  0.0878 -0.0044  0.2970
19082W        W32496   1.677  15.126  11.305  0.0439  0.1833  0.0181
19083W        W32497   8.729  10.847  15.956  0.3540 -0.1431 -0.1139
19084W        W32498  11.536   8.736  15.898 -0.0471  0.0359  0.1267
19085W        W32499   7.193  13.361   2.190  0.1299  0.0897 -0.1469
19086W        W32500   6.472   4.749  13.703  0.2776  0.0565 -0.0596
19087W        W32501  12.200   1.743   3.368  0.0253 -0.1568  0.1384
19088W        W32502   5.455  14.663   2.825 -0.0298 -0.2450  0.0857
19089W        W32503  13.906  10.192   4.774 -0.3306 -0.1021  0.1411
19090W        W32504   3.721   9.918  15.213 -0.0761 -0.3536  0.1043
19091W        W32505   3.895   1.192   2.853 -0.1464 -0.1580 -0.2608
19092W        W32506   0.433   8.273   6.497 -0.0549 -0.1434 -0.1206
19093W        W32507   9.215   8.309  13.457 -0.1313  0.0628  0.0575
19094W        W32508   6.838  15.855   2.041 -0.1952  0.1529 -0.1063
19095W        W32509  16.175  16.475  11.585 -0.2865  0.0818  0.1019
19096W        W32510   1.987   1.214   2.452  0.0591  0.1226 -0.0437
19097W        W32511  17.357   6.789   5.628  0.1948 -0.0353  0.3181
19098W        W32512  11.885  12.877   4.657 -0.1608 -0.0401  0.0046
19099W        W32513  14.361   5.333   5.725  0.3140 -0.0252 -0.2528
19100W        W32514   3.998   3.646   6.164  0.4001  0.1050 -0.3385
19101W        W32515  13.863   6.250   1.964  0.1831 -0.0170 -0.0450
19102W        W32516   8.660   8.796  14.633  0.4353 -0.0865  0.0558
19103W        W32517   4.247   7.141   3.799 -0.3632  0.0528  0.0238
19104W        W32518  16.123   2.726   5.302 -0.1617  0.0965 -0.3156
19105W        W32519  14.377  10.115  12.198  0.0494  0.1667  0.1240
19106W        W32520   9.407   1.221   1.283  0.3887  0.0531  0.1619
19107W        W32521  13.607  16.666   4.071  0.1373  0.2333  0.1753
19108W        W32522  14.813   3.230   5.252 -0.2508 -0.0102  0.2268
19109W        W32523   4.730  10.032   1.210  0.1041  0.1429 -0.2006
19110W        W32524   7.204  13.099  15.139 -0.2994 -0.0316  0.0409
19111W        W32525  17.760   8.122   3.269  0.1962 -0.1673  0.1709
19112W        W32526  10.699  11.301   2.606  0.0047  0.0216  0.0223
19113W        W32527   5.354  10.663   0.364 -0.3755  0.1224  0.1857
19114W        W32528   9.756   6.279   6.009 -0.0470  0.0574  0.1149
19115W        W32529   3.425   2.324  16.514  0.0770 -0.0214  0.1995
19116W        W32530   4.891  18.056   0.472 -0.3523 -0.1489  0.1368
19117W        W32531   1.978  15.420  11.035  0.1674 -0.2629 -0.0267
19118W        W32532   7.363   3.210  14.411  0.1922 -0.1480 -0.0202
19119W        W32533   9.541  14.661  12.911 -0.0354 -0.0349  0.1165
19120W        W32534   3.276  15.690   2.087 -0.2428  0.1114 -0.1795
19121W        W32535  11.399   3.073   2.991 -0.2227  0.0027 -0.1137
19122W        W32536  11.555  11.190   5.836 -0.0768 -0.0920  0.1318
19123W        W32537   7.165   8.744   0.578 -0.4759  0.0580  0.0251
19124W        W32538  17.178   7.103  16.110  0.2059  0.0285  0.1135
19125W        W32539  11.059  12.054  16.283 -0.1150 -0.1777  0.3008
19126W        W32540  13.892  14.827   2.922  0.0738 -0.1718  0.1035
19127W        W32541  10.380   2.424   3.741  0.0727 -0.2358 -0.3776
19128W        W32542  10.975   1.274   4.520  0.1210  0.0223  0.1779
19129W        W32543   1.476  17.743  14.033  0.0518 -0.0068  0.0560
19130W        W32544  15.204  11.086  13.692 -0.0343 -0.1195 -0.0779
19131W        W32545   8.598  10.828   2.951  0.0834  0.1541 -0.2706
19132W        W32546  17.142   5.165   3.969 -0.1594  0.0897 -0.2486
19133W        W32547   7.936   2.630  14.995  0.0547 -0.2840  0.2166
19134W        W32548   3.195   6.732  16.206  0.0507 -0.0708  0.3314
19135W        W32549   2.898  11.809  14.098 -0.1389 -0.2568  0.0728
19136W        W32550   7.631  10.418  11.812  0.0845  0.2057 -0.1289
19137W        W32551   0.405  12.612   4.028  0.1402 -0.1185 -0.1355
19138W        W32552   0.596   4.451  16.104 -0.1617 -0.0178  0.0005
19139W        W32553   6.312   5.317   0.551  0.1652  0.1896  0.1319
19140W        W32554  13.602   0.624   3.409  0.2867 -0.0164 -0.1347
19141W        W32555  17.964   7.594  14.660 -0.1766  0.0477 -0.3677
19142W        W32556   1.974   2.673   2.054  0.0722  0.1500 -0.3478
19143W        W32557  16.689   9.633   3.288  0.0510 -0.1825  0.0424
19144W        W32558  15.484  18.175   6.121  0.3978 -0.0588 -0.0618
19145W        W32559   5.162  14.809  11.742  0.0122  0.0148  0.2592
19146W        W32560   8.879  13.349  11.115 -0.1308  0.2040 -0.2259
19147W        W32561   8.998  10.847  15.463  0.0731 -0.2158 -0.1990
19148W        W32562   7.232   8.403   3.037  0.0364 -0.1001  0.1128
19149W        W32563   0.938  11.910  15.775 -0.1956  0.3926 -0.0167
19150W        W32564   8.939  10.572  12.096 -0.2039 -0.2619 -0.1315
19151W        W32565  14.740   9.726   0.122 -0.1313  0.2757  0.1405
19152W        W32566   4.330  11.397   0.335 -0.2076 -0.1366  0.1584
19153W        W32567   8.662   1.642  11.281  0.2425 -0.0830 -0.2817
19154W        W32568   2.580  11.829   3.423  0.1199  0.0620 -0.0977
19155W        W32569   7.889   1.182  14.282 -0.0046 -0.3296 -0.1296
19156W        W32570   0.291   7.263  11.505 -0.2992 -0.0398 -0.3729
19157W        W32571   5.719   3.647  10.702 -0.1614 -0.3294 -0.0919
19158W        W32572  13.256  14.259   3.297 -0.0264  0.0837  0.2781
19159W        W32573  13.607   9.114   4.474  0.1891  0.0380 -0.3022
19160W        W32574  11.809  16.018  14.443 -0.0805  0.0378  0.1105
19161W        W32575   1.788  11.068   1.857 -0.0167  0.1198 -0.6966
19162W        W32576  14.315  16.182   4.391 -0.2744 -0.0599 -0.4865
19163W        W32577  16.128  15.576   0.236  0.1405 -0.0701  0.1728
19164W        W32578  14.767  11.107  13.964  0.0870 -0.0871  0.0735
19165W        W32579   7.835   5.994  14.944  0.2296  0.3390  0.0723
19166W        W32580   5.908   1.954   3.235  0.0474 -0.1551 -0.0283
19167W        W32581   2.252   0.106   2.083  0.0967  0.3523  0.0381
19168W        W32582   9.223  12.646  12.116 -0.1779  0.1242  0.2141
19169W        W32583   8.524  16.815  12.218 -0.0021  0.0292  0.1442
19170W        W32584  15.723  14.648   0.934  0.0927 -0.0460  0.1550
19171W        W32585   9.635   7.685   0.051  0.1946 -0.1826  0.0606
19172W        W32586   5.063   5.875   4.845 -0.0617 -0.2250 -0.0760
19173W        W32587  13.649  10.984   1.485 -0.3243  0.1403 -0.0562
19174W        W32588  10.839  12.050   2.737 -0.2793  0.2208 -0.1727
19175W        W32589  18.032   1.520   3.855 -0.0288 -0.2256  0.2039
19176W        W32590   0.835   9.134   0.890  0.3341 -0.3180 -0.1246
19177W        W32591  10.118   7.587   4.810 -0.0717 -0.0428  0.0033
19178W        W32592   5.707  17.321   0.682  0.1182 -0.1153 -0.3637
19179W        W32593  15.504   9.971  10.742 -0.0343 -0.3012 -0.0372
19180W        W32594  16.531  14.332  11.942 -0.1231  0.0045 -0.1110
19181W        W32595  11.369  15.723   1.864 -0.0984  0.0356  0.0692
19182W        W32596   4.281   7.826   0.117  0.2716 -0.3102 -0.0178
19183W        W32597   4.577   8.652  14.883 -0.0995  0.3515 -0.0279
19184W        W32598  13.628   8.182  14.700 -0.0489 -0.2299 -0.0495
19185W        W32599  11.102  14.953  15.983  0.0809  0.2287 -0.2792
19186W        W32600  15.208  11.897   6.467 -0.0714  0.0180  0.2706
19187W        W32601  16.961  14.500   1.045  0.0798  0.0919 -0.1166
19188W        W32602  12.298   6.996  15.951  0.0162 -0.2838 -0.2456
19189W        W32603  10.587   6.620   2.741  0.0385 -0.0690 -0.3862
19190W        W32604  16.403  13.045   2.362  0.1360  0.1866  0.2460
19191W        W32605   7.513  15.444   6.182 -0.0945 -0.2645  0.0853
19192W        W32606   7.102   6.272  12.868 -0.1198 -0.1280  0.0096
19193W        W32607   3.652   9.970   5.501  0.0671  0.3217 -0.1623
19194W        W32608   4.607  12.051   5.796  0.2844  0.1301  0.2141
19195W        W32609   1.540  12.948   3.831  0.2117 -0.2844  0.1173
19196W        W32610  16.404   3.922  15.720  0.0983 -0.1576  0.0711
19197W        W32611   1.532   7.431  13.182 -0.0329  0.0762 -0.1290
19198W        W32612   5.344   0.823   5.539 -0.1257 -0.1650  0.3588
19199W        W32613  12.937   9.732   3.106  0.2014 -0.1143 -0.1312
19200W        W32614  12.404  15.059  11.231 -0.3417  0.4713 -0.2975
19201W        W32615   3.949   1.296  10.795 -0.2368 -0.1994  0.0292
19202W        W32616   6.838  13.813   5.697  0.1857 -0.4805  0.0502
19203W        W32617  14.376  13.273  11.512 -0.1139  0.3595 -0.1732
19204W        W32618   8.857  17.814   1.452  0.2033  0.1845  0.0353
19205W        W32619  16.030  15.217  12.928  0.2387  0.2170 -0.2076
19206W        W32620   0.568  14.024   0.985  0.2658 -0.1343  0.1038
19207W        W32621  13.652  18.181  15.496 -0.0969  0.0311 -0.0619
19208W        W32622  10.262  14.964  14.611 -0.0109 -0.2701 -0.0541
19209W        W32623   3.353   4.949  15.383  0.1865  0.0916 -0.1064
19210W        W32624   9.505  17.290  10.098 -0.1623  0.0135  0.0888
19211W        W32625  13.934   9.597   1.033  0.1060  0.0226  0.2948
19212W        W32626  10.653  18.031   5.633  0.1367  0.2144  0.2030
19213W        W32627  12.808   2.688   2.384  0.0868  0.2048  0.0077
19214W        W32628   5.898  13.736   0.343  0.0277 -0.3816  0.2498
19215W        W32629   0.044   2.341  15.425  0.3472 -0.3401  0.1579
19216W        W32630   9.405  17.825   4.475  0.0410  0.4178  0.2979
19217W        W32631  13.201  17.860   3.725 -0.0334  0.0929 -0.1991
19218W        W32632  14.516   8.327  13.701  0.2153 -0.2110  0.1942
19219W        W32633  10.823   7.539  14.793  0.1919 -0.1894  0.3438
19220W        W32634   2.362  18.165   4.497 -0.2025  0.1475 -0.2750
19221W        W32635  11.268   5.190   1.356 -0.0245 -0.1064  0.0838
19222W        W32636  11.489   4.259  11.114  0.0182 -0.0812  0.0220
19223W        W32637   8.449  13.674   4.927 -0.0117 -0.3828  0.3127
19224W        W32638   1.676  11.575   2.503  0.2344 -0.0305 -0.0908
19225W        W32639  17.914  16.664   4.241  0.3539 -0.0093  0.2450
19226W        W32640  13.413   4.113   0.201  0.2412  0.1107 -0.1035
19227W        W32641  11.273   3.414  13.863  0.0209  0.0750  0.0336
19228W        W32642  15.035  13.025   5.113 -0.1949 -0.0044 -0.0755
19229W        W32643   5.873   2.842  11.353 -0.0305  0.2886  0.0248
19230W        W32644   4.359   8.628   3.063 -0.0343  0.1295 -0.1544
19231W        W32645  16.922   8.826   4.731  0.2672 -0.1340  0.0180
19232W        W32646   3.177   6.197   2.658 -0.1785 -0.0835  0.1995
19233W        W32647  17.947   0.233  13.508 -0.0368  0.3982  0.0773
19234W        W32648   3.735   8.685  13.144  0.3211  0.0059  0.1099
19235W        W32649   6.098   7.685   4.251 -0.0321 -0.4002  0.5341
19236W        W32650   8.716   8.727   6.622  0.1340 -0.1633  0.0514
19237W        W32651   1.482  18.169   5.700 -0.0911  0.0493 -0.0021
19238W        W32652  12.760  16.715  13.390 -0.1900 -0.0658  0.0062
19239W        W32653   6.985  17.732  10.881  0.1420 -0.1032 -0.1237
19240W        W32654  11.444  13.086   1.779  0.0695 -0.0514 -0.1982
19241W        W32655   9.117   2.343  16.139  0.0108 -0.0735 -0.2331
19242W        W32656   0.701  10.215  15.590 -0.2518 -0.1005  0.2341
19243W        W32657  14.605  12.501   0.400 -0.1391 -0.1045  0.0869
19244W        W32658  15.481   3.735   0.072 -0.1376 -0.2613  0.0245
19245W        W32659   5.219  15.853  11.977 -0.0118 -0.0497  0.2152
19246W        W32660  11.761   0.645   1.986 -0.0008  0.1317 -0.0478
19247W        W32661  15.072   6.483   4.572  0.1368  0.1925 -0.1831
19248W        W32662   7.225  11.817  14.233 -0.2388  0.1734 -0.0866
19249W        W32663   0.249  15.135   2.706  0.3029 -0.2597  0.0471
19250W        W32664  13.494   7.142   1.979 -0.4677 -0.1403 -0.2892
19251W        W32665  10.836   6.857  12.658 -0.3245 -0.5070 -0.1436
19252W        W32666  11.856  14.610  11.720 -0.2917 -0.2554  0.2672
19253W        W32667   9.098   1.439   0.643 -0.1363 -0.2593 -0.0641
19254W        W32668   9.998   0.268  14.778  0.0267 -0.1282 -0.4374
19255W        W32669   6.731   3.939   0.895 -0.1013 -0.0035 -0.2238
19256W        W32670   8.491  10.104  14.633  0.2707 -0.1075 -0.3179
19257W        W32671  15.486   8.544  12.830  0.0574  0.2823 -0.1591
19258W        W32672   4.975   1.274   1.952 -0.2411  0.0387  0.2481
19259W        W32673   3.279   4.285  15.629  0.0421  0.4143 -0.1843
19260W        W32674   2.493   4.502  15.941 -0.0204 -0.3618 -0.0148
19261W        W32675  12.158   0.242  12.966  0.0894  0.2899  0.0323
19262W        W32676  14.460  16.401  12.980 -0.0991 -0.2212 -0.2298
19263W        W32677  10.918  16.695   0.766 -0.3600 -0.1600 -0.2541
19264W        W32678   9.172   9.833  15.050  0.0606 -0.0820 -0.4367
19265W        W32679   6.897   1.410   2.986 -0.0851  0.0450  0.3212
19266W        W32680   7.437  13.656  11.762  0.0780  0.0279 -0.5519
19267W        W32681   3.619  11.583  13.577  0.2631 -0.1467 -0.1649
19268W        W32682  15.674  10.346   1.399  0.2571 -0.3247  0.0185
19269W        W32683  13.966   2.047   2.349  0.1832 -0.0855 -0.1146
19270W        W32684  17.191  17.388   5.393 -0.3595  0.4077  0.2249
19271W        W32685   9.464  15.729  14.598 -0.3111  0.2148 -0.0574
19272W        W32686   9.899  16.053  10.478  0.1874 -0.3152  0.1427
19273W        W32687   2.788  16.603  10.373  0.0500  0.2900 -0.5648
19274W        W32688  13.595   4.336   4.909  0.0982 -0.0142  0.0020
19275W        W32689   1.274   2.965  12.692 -0.1891  0.0957  0.1597
19276W        W32690  14.260  12.583   5.212  0.2118  0.1339  0.1181
19277W        W32691   9.478  18.211   3.304  0.0176 -0.1765 -0.1823
19278W        W32692   1.668   6.902  11.786  0.3703  0.0314  0.1042
19279W        W32693  14.124   7.223   0.786 -0.3458 -0.2808 -0.2025
19280W        W32694  12.685   2.526  15.140 -0.1908 -0.2426 -0.0602
19281W        W32695  12.403   5.653   4.598  0.0326  0.0133  0.3335
19282W        W32696   3.144  10.742   0.688  0.4538 -0.2594 -0.0285
19283W        W32697   9.402  15.066  13.115 -0.1027  0.0526  0.0385
19284W        W32698  13.262   4.598  15.033  0.2008  0.1638  0.0523
19285W        W32699   0.257   8.765   2.939  0.3055 -0.1427 -0.0357
19286W        W32700   0.938   8.813   0.542  0.0403 -0.1611  0.2637
19287W        W32701   5.970   9.124  14.844  0.0618  0.0844  0.2410
19288W        W32702  12.455  12.178  12.507  0.0674 -0.1318 -0.0392
19289W        W32703  17.910  10.511   0.848 -0.1368  0.2860  0.1576
19290W        W32704   3.654  16.787  13.886  0.0302 -0.0963 -0.0133
19291W        W32705  12.243  12.312   2.533  0.1578  0.2274 -0.0292
19292W        W32706  17.002   0.561   6.340  0.0300 -0.0916 -0.2406
19293W        W32707  15.971  11.538  11.353 -0.1249 -0.2957 -0.1405
19294W        W32708   8.961   3.348   2.911  0.1454 -0.1497  0.0618
19295W        W32709  10.871   2.513   2.251  0.4399 -0.0322  0.2987
19296W        W32710  18.129  11.313   4.281 -0.1698  0.1198  0.0643
19297W        W32711   3.856   8.376  12.693 -0.1216  0.0735 -0.0628
19298W        W32712  14.693  11.001   0.660  0.1345  0.1391  0.0107
19299W        W32713   3.407  10.728  13.377 -0.2336  0.1411 -0.1201
19300W        W32714   8.735  14.112  12.769  0.1352  0.0818  0.0446
19301W        W32715  14.677   2.271  10.422 -0.0651 -0.2819  0.0034
19302W        W32716  14.701   6.488   1.601 -0.0658 -0.2411 -0.1661
19303W        W32717  18.154  13.520   2.557  0.3117  0.1204 -0.0350
19304W        W32718   7.498   5.585  15.185  0.0516  0.2552  0.1587
19305W        W32719  13.216  17.298   5.163  0.4298  0.1908  0.0448
19306W        W32720   8.515   8.705  11.410  0.2430 -0.0268 -0.4466
19307W        W32721  14.214  14.052   5.376 -0.0252 -0.2313 -0.1759
19308W        W32722   4.020   1.717   4.679  0.1694  0.0518  0.0616
19309W        W32723   9.497  10.084   5.495 -0.1453  0.0849 -0.2618
19310W        W32724  12.579   4.356   0.206  0.0181 -0.1466 -0.1861
19311W        W32725  13.130  11.097   5.562  0.1078 -0.1448 -0.0573
19312W        W32726  13.232  11.230   1.574  0.3810  0.2171 -0.1327
19313W        W32727   2.130   2.670  13.371  0.0162 -0.1903 -0.2933
19314W        W32728   0.846   6.610  16.387  0.1898  0.1212 -0.0502
19315W        W32729  18.102  15.164   5.699 -0.0044 -0.1264 -0.0436
19316W        W32730   7.592  14.635   5.481  0.1362  0.0918  0.0410
19317W        W32731   1.045  12.295   3.982  0.0758  0.0349  0.1485
19318W        W32732  14.489  14.009  11.662 -0.1206  0.1436  0.2645
19319W        W32733   6.922  17.510   5.182 -0.3970 -0.1021  0.1291
19320W        W32734  16.400  10.502   5.671  0.1760 -0.1916 -0.3111
19321W        W32735  14.900  10.802  16.463 -0.0861  0.0962 -0.1656
19322W        W32736   9.067  14.834  12.315  0.1623  0.4444  0.4013
19323W        W32737   5.589   4.970  11.430  0.2943  0.1105 -0.0620
19324W        W32738  18.209  15.962  11.813 -0.0117 -0.0544  0.1266
19325W        W32739  17.323  11.189   0.199  0.4517 -0.3819 -0.0192
19326W        W32740  12.941  13.186   2.531  0.1148 -0.2568  0.3173
19327W        W32741   0.796   9.189   0.255 -0.1080 -0.1908  0.0032
19328W        W32742   0.650   3.796   6.421  0.1270  0.0439 -0.0414
19329W        W32743   9.357  14.468   3.556  0.1528 -0.0545 -0.0530
19330W        W32744   2.208   3.555  11.136 -0.0867 -0.1257 -0.0200
19331W        W32745  16.831  16.689   1.930 -0.4039  0.0087 -0.0208
19332W        W32746  11.943   7.475  15.060  0.0046  0.0676 -0.1068
19333W        W32747  15.215   1.878  14.380  0.0661 -0.2312 -0.0444
19334W        W32748  14.632  16.228  14.542  0.0902 -0.0801 -0.0814
19335W        W32749  18.079   5.339   1.938 -0.1240 -0.1820  0.1436
19336W        W32750   7.136   9.613  14.629 -0.0312 -0.2836 -0.2335
19337W        W32751   3.909   0.418  10.871 -0.0460 -0.1363  0.1529
19338W        W32752  14.437   3.971   0.710  0.0784  0.0277 -0.0296
19339W        W32753  14.942  12.275  12.091 -0.0703  0.0784  0.3443
19340W        W32754  16.966   4.137  14.927  0.2382 -0.1409  0.0964
19341W        W32755   7.537  16.199  16.215  0.0733 -0.1300 -0.1692
19342W        W32756  14.016   1.103  14.466  0.0992  0.1189  0.1521
19343W        W32757  14.346   4.075   3.751 -0.1243 -0.0777 -0.1184
19344W        W32758  14.983  13.183   2.183 -0.1091  0.2830 -0.4218
19345W        W32759  15.006  10.286   2.917 -0.1346 -0.1079 -0.0510
19346W        W32760   0.204  12.930   6.009  0.0036 -0.1772 -0.0045
19347W        W32761  11.748   2.267  13.459 -0.0785 -0.2438  0.0674
19348W        W32762  15.047  12.243   2.451  0.1150  0.0957  0.3868
19349W        W32763   9.990  11.791  11.351  0.0816 -0.1040  0.3769
19350W        W32764   6.170  14.921  11.663 -0.0239 -0.1104  0.0617
19351W        W32765  17.575   9.015  13.420  0.0424 -0.1523  0.0367
19352W        W32766  17.741  12.781   5.593 -0.0208 -0.2416  0.1331
19353W        W32767   7.753   9.656   0.720  0.3226  0.1960 -0.2934
19354W        W32768  12.937  11.871   2.982  0.2549 -0.1359 -0.0850
19355W        W32769  18.087   7.635   4.235 -0.4026  0.2061 -0.2153
19356W        W32770  14.804   7.924  12.939 -0.3820  0.2307  0.2678
19357W        W32771   6.333   7.439   0.566  0.0656  0.1268 -0.3225
19358W        W32772   3.664  17.005  16.433 -0.0950 -0.2542 -0.0349
19359W        W32773  17.597   0.506   0.361 -0.3876 -0.0877  0.0728
19360W        W32774   1.033  17.952   5.718 -0.0479  0.0151  0.1728
19361W        W32775   1.841   2.990  11.971 -0.1786  0.1296 -0.0904
19362W        W32776   4.750   3.120   6.223 -0.1487 -0.2018 -0.2122
19363W        W32777  11.200   5.893  13.025 -0.1482  0.3130 -0.2640
19364W        W32778  11.504   0.258  10.064  0.0258 -0.0559  0.3060
19365W        W32779  17.435  16.841   1.153  0.2344  0.0395  0.0715
19366W        W32780  13.987   5.435   6.290 -0.2738  0.2440 -0.1685
19367W        W32781   7.172  14.239   3.771  0.0744 -0.0959 -0.0943
19368W        W32782  17.637  15.572   5.348  0.0878 -0.0311  0.2144
19369W        W32783   4.915  12.177  12.943 -0.0862  0.0982 -0.0496
19370W        W32784   9.334  10.568   5.702  0.1540  0.1036 -0.0359
19371W        W32785  12.745  10.610  15.723  0.1687 -0.1383  0.1079
19372W        W32786  15.733   4.615   1.129  0.0995  0.2476 -0.1639
19373W        W32787  13.887  11.376   5.726 -0.2176  0.0020 -0.0663
19374W        W32788   3.953   5.032  15.069  0.2962 -0.1223  0.2549
19375W        W32789   2.881  10.632   6.619 -0.2772 -0.0818  0.2899
19376W        W32790   7.292   0.856   1.849  0.2122 -0.0306  0.1442
19377W        W32791   8.304  15.516  11.181 -0.0275 -0.1783  0.0893
19378W        W32792  14.179  13.055   6.759  0.1902  0.0882 -0.0159
19379W        W32793  16.313   4.418  13.761  0.1862  0.0473  0.1596
19380W        W32794  13.184  14.676   4.845  0.1453 -0.0129  0.0213
19381W        W32795   7.843  10.320   5.129  0.0506 -0.2394 -0.2820
19382W        W32796   8.784  11.497  11.484  0.1818  0.0354 -0.0449
19383W        W32797  13.652  12.124   0.917  0.0588  0.0013  0.0428
19384W        W32798  16.924   8.171   2.034 -0.2676  0.0630  0.0661
19385W        W32799   8.087   4.107  11.698  0.0219 -0.0974 -0.2535
19386W        W32800   6.924  13.267  12.825 -0.1120 -0.0742 -0.0900
19387W        W32801   6.322  17.090  14.219 -0.1061 -0.0769 -0.4267
19388W        W32802  16.845   3.250  11.807 -0.0511 -0.0145  0.2036
19389W        W32803   1.662   1.806  11.725  0.2452  0.1035 -0.0637
19390W        W32804   3.858  12.001  13.047 -0.0822 -0.0105 -0.1360
19391W        W32805  12.815   3.723  12.188  0.1201  0.0435  0.1361
19392W        W32806  17.172  11.801   3.581 -0.0152  0.2628 -0.0240
19393W        W32807  11.439   7.326  14.701  0.1128  0.1526  0.2444
19394W        W32808  13.210   9.203   2.332  0.1849  0.0322 -0.1014
19395W        W32809  12.193   1.994   0.775 -0.0978  0.1041  0.0047
19396W        W32810  11.880  11.286   0.402 -0.0565 -0.0130  0.0696
19397W        W32811  10.131   5.009  12.453  0.0366 -0.0476  0.1943
19398W        W32812  13.769   8.678  12.110 -0.1305 -0.1807 -0.1226
19399W        W32813   5.902  14.893  13.111  0.0127  0.1768  0.1868
19400W        W32814  15.592  14.423  16.088 -0.1205  0.2535  0.0352
19401W        W32815   5.917  13.416   3.099  0.3099  0.1687  0.0659
19402W        W32816  15.313   1.556  16.105  0.0425 -0.4297 -0.2392
19403W        W32817   6.278  12.213  14.391 -0.1731  0.1179 -0.1806
19404W        W32818  11.847   5.937  13.851 -0.0003 -0.0391  0.0348
19405W        W32819   0.417  15.769  13.475 -0.1329 -0.0038  0.1267
19406W        W32820  16.527   7.318   5.720  0.0733 -0.2592 -0.0992
19407W        W32821  12.393   6.386   0.998 -0.0342 -0.0547  0.1066
19408W        W32822   2.587   7.653  12.416  0.1787 -0.1610 -0.0215
19409W        W32823   2.533   0.892   3.006 -0.0167 -0.0228  0.0371
19410W        W32824   8.247   6.039   6.408 -0.0226 -0.0032 -0.1969
19411W        W32825   0.364  16.381   5.307 -0.0730 -0.1495 -0.0016
19412W        W32826   5.794   6.904  12.645 -0.1229  0.1784 -0.1642
19413W        W32827   1.468  17.507  15.015 -0.0405  0.1119 -0.0323
19414W        W32828  10.489  17.504  10.447  0.1839  0.0425  0.0678
19415W        W32829  12.951   7.687   3.557 -0.0619  0.0488 -0.1581
19416W        W32830  11.143  13.106   5.796  0.1655  0.0405  0.0688
19417W        W32831   6.930   9.939  15.981  0.2518  0.1630 -0.0910
19418W        W32832  11.792   4.550  12.684  0.3811  0.0972 -0.1163
19419W        W32833   7.875   3.301   2.916  0.0881  0.0148 -0.1573
19420W        W32834   9.840  11.461   3.164 -0.0991 -0.0132  0.1312
19421W        W32835   4.319   4.741   3.672  0.4583  0.0860  0.2013
19422W        W32836   9.212   4.570  13.242 -0.0783 -0.3692  0.0339
19423W        W32837  16.292   2.738   1.926  0.1089  0.4061  0.0279
19424W        W32838   6.578   4.192  13.594 -0.1121  0.1995  0.4365
19425W        W32839  15.233   8.699   5.602  0.2960  0.1917 -0.1172
19426W        W32840   4.974   1.831  12.151  0.2633  0.3659  0.0280
19427W        W32841  17.370  12.093   4.699 -0.0678  0.0496  0.0733
19428W        W32842   4.664   3.250   3.683 -0.1199  0.0250  0.2352
19429W        W32843   0.829  11.479  15.438  0.1076  0.1833  0.0753
19430W        W32844   9.090  13.209  15.467 -0.3629  0.0304  0.1697
19431W        W32845   8.240  14.466  10.505 -0.0367 -0.3230 -0.1242
19432W        W32846   1.764   3.219  16.208 -0.1540  0.0307 -0.2280
19433W        W32847   4.944   6.861  13.708  0.0754 -0.0040 -0.0294
19434W        W32848  17.008  17.044   4.876  0.1319 -0.0420  0.2421
19435W        W32849  15.100  13.746   2.924  0.0392  0.0718 -0.1194
19436W        W32850  14.575  18.063   0.492 -0.1136  0.0592 -0.0336
19437W        W32851   4.603   8.859  10.829 -0.0305 -0.0206  0.1358
19438W        W32852   3.306  18.038  12.387  0.1029 -0.0505 -0.0463
19439W        W32853  11.165   9.750   6.792 -0.1452  0.0645 -0.2138
19440W        W32854  18.221  16.585  15.012  0.1350 -0.0037 -0.0137
19441W        W32855  16.972   6.911  15.641 -0.1839  0.1140 -0.0768
19442W        W32856  15.334   7.172   2.189  0.0107  0.1308 -0.3164
19443W        W32857  11.443  10.143  12.898  0.1075 -0.1737 -0.2083
19444W        W32858  16.342   4.683   2.386 -0.1203  0.0182 -0.1135
19445W        W32859   5.767  12.675  15.027  0.1186  0.1434 -0.1510
19446W        W32860  15.424  12.224   2.159 -0.1652 -0.1555 -0.1445
19447W        W32861  13.347  11.721  12.710  0.2257 -0.0350 -0.3148
19448W        W32862   9.073  13.704  15.069  0.1692  0.0945  0.0259
19449W        W32863   4.764   8.482  13.938 -0.2211 -0.0315  0.0884
19450W        W32864  17.224   3.917   2.140 -0.1225  0.0324  0.3434
19451W        W32865   3.718   5.486   2.289 -0.2307 -0.1581  0.0049
19452W        W32866   9.640   4.332  10.427 -0.2303  0.0924  0.0873
19453W        W32867   9.300   9.388  15.358 -0.2306  0.1988  0.4281
19454W        W32868  17.537  10.796  16.483 -0.0275  0.0212  0.1426
19455W        W32869  11.859  13.316   1.813 -0.2516 -0.4553 -0.1153
19456W        W32870   5.303  17.750  11.080  0.0565 -0.0767  0.4546
19457W        W32871  13.922  12.844   0.430  0.1146 -0.1047 -0.0890
19458W        W32872   9.319   2.445   1.063  0.2226 -0.4544  0.1010
19459W        W32873   7.621   2.930  15.818 -0.1020  0.1333 -0.0681
19460W        W32874   1.434   6.881   1.478  0.2355  0.3278  0.0179
19461W        W32875   1.273  16.158   0.926 -0.1386 -0.1742  0.4236
19462W        W32876   7.831  10.629   5.673  0.2417  0.1681  0.1776
19463W        W32877  12.049  16.243   2.640  0.1133  0.1084  0.0001
19464W        W32878  14.784  11.371   3.729 -0.2028 -0.0794  0.2143
19465W        W32879   9.180   7.127   0.275  0.0400  0.2739  0.2901
19466W        W32880   9.622   2.499  13.985  0.0759 -0.2395 -0.2270
19467W        W32881  17.547   0.113  10.241  0.1639 -0.2440  0.3114
19468W        W32882   0.263  12.800  10.087 -0.3465 -0.1557 -0.0748
19469W        W32883  16.062   1.633  15.754 -0.0637  0.2891  0.1369
19470W        W32884  15.684  10.364   2.378 -0.1757 -0.1331  0.0016
19471W        W32885   8.539  15.135  13.655  0.0255  0.1651  0.0206
19472W        W32886   0.540  14.248   3.078 -0.0012 -0.2563  0.0707
19473W        W32887  17.667  13.052  11.675  0.1436 -0.1436 -0.1793
19474W        W32888  17.438  15.191  11.651 -0.1076  0.0833  0.2599
19475W        W32889   0.712   0.472  15.410  0.1265 -0.0708 -0.0271
19476W        W32890  10.884  16.424  12.806 -0.1824  0.1026 -0.2063
19477W        W32891   6.463  15.173   3.522  0.0498  0.0435  0.4192
19478W        W32892  11.110   1.419  14.497  0.0970 -0.1507 -0.0583
19479W        W32893  15.500  11.878  15.443 -0.2361  0.1541 -0.1275
19480W        W32894  17.066  12.386   2.120 -0.3356  0.0192  0.2144
19481W        W32895   9.119  18.155  16.190  0.0257 -0.1145  0.0811
19482W        W32896   1.682   9.558   3.914  0.1415  0.1588 -0.1765
19483W        W32897  10.069   0.985  15.399  0.0503 -0.0870 -0.0844
19484W        W32898   9.882   5.972   0.786 -0.0388  0.1749  0.0508
19485W        W32899   1.697   3.785  11.117 -0.0110 -0.1508  0.0740
19486W        W32900   8.055  15.999  14.693  0.0407 -0.1514  0.1777
19487W        W32901  11.957   7.495  11.881 -0.1686 -0.1536 -0.0348
19488W        W32902   6.255   9.518  12.239 -0.2657  0.0409  0.0347
19489W        W32903   5.028  11.140  15.565  0.1347 -0.3243 -0.0839
19490W        W32904  14.101   2.829  11.792  0.3919  0.1881 -0.0570
19491W        W32905   6.621  11.923  13.261 -0.1472  0.0441 -0.1112
19492W        W32906   7.793   7.759  13.363 -0.2241 -0.1153  0.0608
19493W        W32907   6.882   8.282  10.993  0.1588 -0.1431  0.0783
19494W        W32908   4.388   9.928  10.388  0.2126 -0.2482 -0.0429
19495W        W32909  13.102   6.776  14.324 -0.0625  0.0193 -0.2935
19496W        W32910   5.677  10.843   3.277  0.1875 -0.0796  0.1783
19497W        W32911  17.902  14.455  16.079  0.5636 -0.1099 -0.0567
19498W        W32912  15.997   9.311   1.352 -0.0405 -0.1835 -0.2550
19499W        W32913   0.664   0.442   4.801 -0.1986 -0.2615 -0.2361
19500W        W32914  10.193   2.355  12.343  0.1430  0.0057  0.1708
19501W        W32915  11.241   2.077  15.847 -0.3566 -0.0124 -0.0361
19502W        W32916   9.291   7.930  16.284 -0.0235 -0.0870 -0.0701
19503W        W32917   8.352   4.601  15.496  0.1176 -0.1449  0.4230
19504W        W32918   8.968  15.821   2.540 -0.0469 -0.1391 -0.1566
19505W        W32919   6.360  11.605   3.623 -0.0381  0.0163  0.2964
19506W        W32920   9.152  17.856  13.517 -0.3696 -0.0501 -0.1018
19507W        W32921  12.191   2.484   2.228 -0.0325 -0.0742 -0.0503
19508W        W32922  14.921   6.120   3.744  0.3742 -0.0135 -0.0693
19509W        W32923  11.423  14.332  11.694  0.3227  0.1995 -0.2895
19510W        W32924   0.347   2.849  14.086  0.2496  0.1498  0.0247
19511W        W32925  13.964  16.884  15.156  0.1579 -0.0869  0.3250
19512W        W32926   0.431  17.410   5.326 -0.2525 -0.1106  0.1439
19513W        W32927  13.608   0.722   4.680  0.1126  0.0418 -0.0318
19514W        W32928   3.448  17.857  14.517 -0.0153 -0.0449 -0.1452
19515W        W32929   9.496  13.841  16.052  0.1695 -0.0021  0.0000
19516W        W32930   9.119   5.831  14.025 -0.3677  0.0358  0.1569
19517W        W32931  16.699  10.469   2.816  0.0157 -0.0586  0.2345
19518W        W32932   1.400   0.746  13.997 -0.5085  0.1310 -0.1949
19519W        W32933  15.181   1.076  10.991 -0.0074 -0.0879 -0.0242
19520W        W32934   4.124  17.938  13.531  0.0376  0.3444  0.0161
19521W        W32935   8.660   8.988   4.231  0.3073 -0.1975 -0.0798
19522W        W32936  12.277   9.810   6.311 -0.0451  0.2730 -0.0648
19523W        W32937   5.412   9.344   0.967 -0.1976 -0.1520 -0.1803
19524W        W32938   2.063  17.438   4.273 -0.1877  0.2356  0.1875
19525W        W32939  13.863  16.634   2.666  0.0337 -0.0729  0.0422
19526W        W32940   4.851  17.806   2.704  0.0153  0.2081 -0.1718
19527W        W32941   4.220  12.872  14.338 -0.0658 -0.2483  0.1474
19528W        W32942  10.703   1.775   1.511 -0.1144 -0.0490 -0.1200
19529W        W32943   2.859   7.147  13.953 -0.0047  0.0800  0.0095
19530W        W32944   2.913   1.835   5.578 -0.0942 -0.1038  0.1402
19531W        W32945  13.842   4.673  11.267  0.1332  0.2060  0.0710
19532W        W32946  16.927  15.686  16.359 -0.1416  0.0656  0.0845
19533W        W32947  15.010   1.310   1.501  0.3365 -0.1461 -0.1710
19534W        W32948  17.548  11.298  10.603  0.1676  0.0727  0.1769
19535W        W32949   9.881   3.689   1.053  0.4424 -0.0350 -0.2432
19536W        W32950  17.611   9.426   3.217 -0.0326  0.1730 -0.3384
19537W        W32951   5.351  16.898  10.747  0.2188 -0.0679  0.1315
19538W        W32952   9.056  14.044  12.129  0.1976 -0.2680  0.2203
19539W        W32953  15.166  16.984  11.964  0.0094  0.0535 -0.0935
19540W        W32954  13.783  10.179   6.230  0.1819  0.0879  0.2534
19541W        W32955  14.604   1.606   1.611 -0.2835  0.1098 -0.3965
19542W        W32956  11.472   2.934   0.501  0.0599 -0.0154  0.2412
19543W        W32957   4.593  14.726   4.158  0.0378 -0.2525 -0.0066
19544W        W32958   0.315   6.082   1.913  0.1304 -0.0619  0.1531
19545W        W32959  15.871   7.659  15.779  0.2746  0.0162 -0.1800
19546W        W32960  13.713  14.773  12.304  0.1369  0.0317 -0.1277
19547W        W32961  10.887   5.392   5.438 -0.0419  0.1460 -0.1741
19548W        W32962  16.747   9.216  12.024 -0.1175 -0.1630 -0.1503
19549W        W32963  14.264   8.392   0.644 -0.1163  0.1204  0.2074
19550W        W32964  16.080   2.711  15.465 -0.0938 -0.1468 -0.3283
19551W        W32965   5.458  17.033  14.607  0.1266  0.1777 -0.1843
19552W        W32966   0.325  16.995   0.901 -0.0890  0.0218  0.3716
19553W        W32967  17.428   7.783   0.006 -0.1985  0.2836 -0.1402
19554W        W32968  15.804  13.507   1.239  0.1124 -0.0079  0.2816
19555W        W32969  10.291   6.949  12.697 -0.1698 -0.0595  0.2854
19556W        W32970   7.435  17.382  11.027 -0.1738 -0.4798  0.1010
19557W        W32971  11.497  12.627  15.331  0.0542 -0.0088  0.0735
19558W        W32972  14.247  13.635   0.726  0.1112  0.0989 -0.0065
19559W        W32973   5.007   2.948  16.482  0.3159  0.3989  0.0585
19560W        W32974  14.194   5.826  10.363 -0.0010  0.1495  0.2253
19561W        W32975  10.449   3.592  14.388  0.1397 -0.0260  0.2018
19562W        W32976  10.323   8.837  13.539  0.0536 -0.1251 -0.3388
19563W        W32977  10.477  16.730   2.281 -0.1250  0.4116  0.2910
19564W        W32978   0.736   4.291   2.601 -0.0618 -0.0404 -0.0615
19565W        W32979   2.459  14.217  11.195  0.0296 -0.2034 -0.2910
19566W        W32980  16.169  11.635  11.816 -0.1831  0.0211  0.2071
19567W        W32981   5.049   7.527   4.221 -0.1352  0.1543 -0.2737
19568W        W32982   7.949   5.506   3.979  0.0476 -0.0991  0.0716
19569W        W32983   6.235   3.532   2.513 -0.1838  0.4946 -0.0125
19570W        W32984  15.483  14.517   2.258 -0.0561  0.0958 -0.0035
19571W        W32985  17.474   1.933  15.802  0.2698  0.0366  0.0301
19572W        W32986   5.882  14.942   5.842 -0.0548 -0.1120 -0.3578
19573W        W32987  16.016   4.746  10.521 -0.1037 -0.1462 -0.4245
19574W        W32988   4.371   4.158   3.461  0.0471  0.2785 -0.0159
19575W        W32989   9.967   9.758  14.200  0.3321 -0.0343  0.1628
19576W        W32990   1.845   7.247   5.460  0.1062  0.1593  0.0297
19577W        W32991  13.171  16.586  13.053 -0.0537  0.3177 -0.1168
19578W        W32992  17.677  11.577  11.125  0.2740  0.0064  0.0642
19579W        W32993   7.956   3.813  13.853  0.2683 -0.0258 -0.0386
19580W        W32994   2.466   0.393   6.094  0.4379 -0.1662  0.0531
19581W        W32995   0.200  16.887   2.472  0.1126 -0.1151 -0.1868
19582W        W32996  14.951  11.288  14.801 -0.1233  0.1692 -0.0669
19583W        W32997  11.540   1.880  14.080  0.4215  0.0517 -0.1239
19584W        W32998   6.639   3.879   2.322  0.1194  0.2101 -0.1215
19585W        W32999   5.658  14.116  11.931 -0.0497 -0.1316 -0.0263
19586W        W33000  13.306  11.809   4.198  0.2845  0.0089 -0.0684
19587W        W33001   4.586  11.068   2.368  0.1974  0.0342 -0.2210
19588W        W33002  17.207  14.926  13.626  0.0088  0.1854  0.2020
19589W        W33003   0.880  18.092   0.994  0.1493 -0.0039  0.0267
19590W        W33004   2.139   1.191  12.075  0.1014  0.2730 -0.0868
19591W        W33005   6.293  16.413  13.652 -0.1147 -0.1658  0.2392
19592W        W33006  14.745  10.193   2.019  0.0002  0.0345 -0.1688
19593W        W33007   4.123  11.514   4.834  0.1214 -0.1876 -0.4069
19594W        W33008   8.391   3.978  13.945 -0.2139 -0.1080  0.0877
19595W        W33009   5.504  16.422  10.135 -0.0381 -0.1131  0.0612
19596W        W33010   2.148   1.227   1.252 -0.4238 -0.0123  0.1055
19597W        W33011   2.315  15.040  16.518 -0.2542 -0.0260 -0.2620
19598W        W33012   5.395   4.337   0.479 -0.0093  0.1381  0.0088
19599W        W33013   1.772  12.342   3.318  0.1044 -0.0462 -0.0258
19600W        W33014   9.142  17.277  11.910  0.0835 -0.0506  0.3466
19601W        W33015  15.966  15.802  14.604 -0.3590  0.4306  0.2842
19602W        W33016  12.363   4.827  10.952 -0.0207  0.0938 -0.2720
19603W        W33017  12.678   7.444  12.828 -0.2093  0.0980 -0.0216
19604W        W33018   2.413   5.875  13.752  0.1216 -0.0747  0.2063
19605W        W33019   5.588  13.276   6.045  0.1134  0.3125  0.0104
19606W        W33020   2.054   0.395   2.479  0.0696  0.0184  0.0897
19607W        W33021   3.780   6.890  14.685  0.2975  0.0128 -0.0263
19608W        W33022   2.485   2.611   1.167 -0.0406  0.1612  0.2342
19609W        W33023   6.926   1.561   2.472 -0.3382 -0.2797 -0.2035
19610W        W33024   6.548   2.706  12.422 -0.1009 -0.0596 -0.2057
19611W        W33025   5.278   9.453  12.296 -0.0499  0.0484 -0.1669
19612W        W33026   0.783  11.828   2.225  0.1295 -0.0329 -0.0269
19613W        W33027  11.587   3.202   4.601  0.2242 -0.1869 -0.0044
19614W        W33028   0.450   3.079   3.205 -0.0030  0.0891 -0.1775
19615W        W33029   0.214  17.935   3.158 -0.2285  0.1357  0.3005
19616W        W33030   7.444  12.407   1.812 -0.1235 -0.2945 -0.0333
19617W        W33031   3.824  16.717  15.280  0.1489  0.0900  0.2258
19618W        W33032  11.843  17.344  15.583  0.0908 -0.0509 -0.1339
19619W        W33033   9.705  14.335   3.962  0.0306 -0.1239  0.1927
19620W        W33034   5.160  17.636   4.283  0.2969  0.0314 -0.2674
19621W        W33035  14.460  10.923   5.022  0.0624 -0.1407  0.3023
19622W        W33036   0.630   8.181   1.138 -0.0460 -0.0568  0.0066
19623W        W33037  17.437   2.263   2.327 -0.0718  0.0429 -0.1915
19624W        W33038   3.925   8.434  11.846 -0.1697  0.1357  0.1392
19625W        W33039   6.606   9.128  15.687  0.1693 -0.0617  0.1142
19626W        W33040   1.810   6.808   4.287 -0.0966 -0.0297  0.1979
19627W        W33041   3.956   4.953  13.591 -0.0908 -0.1975  0.1481
19628W        W33042  11.432  13.801  14.788 -0.1914  0.1697  0.0345
19629W        W33043  10.365  15.132   3.958 -0.0426  0.2264 -0.0141
19630W        W33044   2.598   6.033   3.784 -0.0980 -0.0551 -0.1108
19631W        W33045  17.719  14.725   1.586 -0.1745  0.0822 -0.3910
19632W        W33046   7.725  11.767  12.521 -0.1913 -0.3169  0.1803
19633W        W33047   7.440   2.209   2.897  0.1387 -0.3100  0.1824
19634W        W33048  15.098   9.580  15.914 -0.0866 -0.3054 -0.3056
19635W        W33049   4.101   6.877   2.660  0.0787 -0.0309  0.2153
19636W        W33050   4.382  10.603   2.126  0.0685  0.0930 -0.2164
19637W        W33051   4.467   1.359   1.747  0.2960 -0.2237  0.1487
19638W        W33052   8.243   9.161   4.063 -0.2433  0.1748  0.1559
19639W        W33053   0.489   3.319  16.312 -0.1360  0.0436  0.1071
19640W        W33054  11.147   0.774   4.632  0.1358 -0.0965 -0.0169
19641W        W33055  14.031   1.106  10.193 -0.0305 -0.1390 -0.1832
19642W        W33056   7.200   2.444   0.522  0.3316  0.1129 -0.1604
19643W        W33057   0.233   7.724  13.297  0.0054  0.0839 -0.3849
19644W        W33058  16.540  12.754  15.162 -0.1866  0.5268 -0.1128
19645W        W33059   1.192   2.706   3.034  0.1789 -0.2560  0.2727
19646W        W33060   6.474  17.876  10.788 -0.1296 -0.1237 -0.0654
19647W        W33061   6.668   5.488  16.331  0.2055 -0.0488  0.0703
19648W        W33062   0.386   8.872  12.417 -0.1037 -0.0041 -0.1131
19649W        W33063   3.454   1.541   3.694 -0.1763 -0.1377 -0.1488
19650W        W33064   7.233   3.571  11.692  0.0052 -0.0715  0.1288
19651W        W33065   8.756  17.851   3.037  0.3960  0.2501 -0.1477
19652W        W33066  10.874   2.401  13.326 -0.3569 -0.3900  0.0305
19653W        W33067   3.361   4.148  12.204  0.2430 -0.1828  0.1796
19654W        W33068   8.944   6.753   5.177  0.0348  0.1617 -0.0891
19655W        W33069   0.450   1.487   2.648 -0.0952 -0.0964  0.0077
19656W        W33070   2.327   6.842   1.731  0.1028  0.1171  0.0947
19657W        W33071  10.584   6.647  11.032 -0.1722  0.1823  0.0277
19658W        W33072  11.948  12.705   2.352  0.1860 -0.2909  0.2654
19659W        W33073  15.877  15.451   4.372  0.0926  0.0648 -0.1920
19660W        W33074  16.528  14.027   3.450 -0.1931  0.1657  0.1774
19661W        W33075  12.960   0.466  13.950 -0.0596 -0.3978 -0.1596
19662W        W33076   2.633  14.856  12.588 -0.0413  0.2166  0.2222
19663W        W33077  16.211   9.208   3.532 -0.0407  0.3012  0.1542
19664W        W33078  16.740  10.235   2.041 -0.0473  0.3919 -0.1843
19665W        W33079   7.220   5.189  14.122 -0.1713  0.3296  0.0563
19666W        W33080   1.278  17.244   6.158 -0.2041 -0.0976  0.1247
19667W        W33081   8.274   7.507  12.496  0.1104 -0.0869 -0.0752
19668W        W33082   4.447   8.433   1.432 -0.0528  0.3028  0.1183
19669W        W33083  10.429  15.284  12.297 -0.0581 -0.1949 -0.1572
19670W        W33084   4.243  13.367   3.557 -0.2217  0.0505 -0.0671
19671W        W33085   0.714  12.947   1.972 -0.0242 -0.0669 -0.0412
19672W        W33086  13.182  18.052  15.571 -0.0189 -0.0446 -0.0694
19673W        W33087   4.214   8.846   1.892  0.2232 -0.0135 -0.2743
19674W        W33088   7.742   9.724   5.221 -0.0521 -0.1682  0.1803
19675W        W33089  15.877  14.062  16.201 -0.1082  0.3226 -0.0037
19676W        W33090   4.869  12.020   4.583  0.1935 -0.0483  0.2553
19677W        W33091   1.363   2.369  14.088  0.2393 -0.0319  0.2979
19678W        W33092  14.865  13.199  14.330 -0.1849 -0.3363 -0.2902
19679W        W33093  14.470   4.133   0.243 -0.0069  0.0154 -0.0311
19680W        W33094   2.900   1.136   0.048  0.2169 -0.1739 -0.2088
19681W        W33095  13.559   1.567   2.843 -0.0608  0.3373 -0.0522
19682W        W33096   4.276  12.620  15.576 -0.2330  0.2052  0.1101
19683W        W33097   2.446   2.102   1.003 -0.1063 -0.0359 -0.0560
19684W        W33098  16.183  12.714  12.555 -0.1434  0.2538  0.1072
19685W        W33099   4.148  14.537  13.775 -0.1920 -0.0474  0.3786
19686W        W33100  14.051  17.166  11.482 -0.1200 -0.0297 -0.0218
19687W        W33101  11.684   8.351   5.921 -0.3032 -0.2895 -0.1171
19688W        W33102   9.653   9.420  11.494 -0.0088 -0.0207  0.3280
19689W        W33103   4.941   3.521  14.557 -0.2089 -0.1391  0.0011
19690W        W33104   3.513  11.895   1.506  0.1262  0.0917 -0.0248
19691W        W33105  14.489  17.327  12.791  0.3977 -0.3928 -0.0008
19692W        W33106   1.432   0.071  15.703 -0.2768 -0.0360 -0.0968
19693W        W33107   9.898   7.404   1.782  0.0256 -0.2831 -0.2973
19694W        W33108  15.126   0.636  14.887 -0.2277 -0.0501 -0.1081
19695W        W33109   6.530   7.633   0.084  0.0641  0.1829  0.0835
19696W        W33110   9.154   5.035   2.828 -0.0904 -0.1170 -0.0613
19697W        W33111   8.871   6.252   4.616 -0.0368 -0.1797  0.2463
19698W        W33112  13.968   6.214  12.025 -0.1768  0.1598  0.2712
19699W        W33113  17.037   0.951  16.129 -0.1701 -0.0633 -0.1148
19700W        W33114  14.824   1.834   3.287 -0.2221 -0.0279 -0.0158
19701W        W33115   6.031  17.674   3.972 -0.0607 -0.0730  0.2339
19702W        W33116   4.130  14.363   0.248  0.1116 -0.0496 -0.0426
19703W        W33117   9.115   2.245  12.349  0.1152  0.0595 -0.1588
19704W        W33118   9.103  13.788  13.689 -0.5706 -0.0612  0.0860
19705W        W33119  12.350   0.202  15.043 -0.1937 -0.2283 -0.0227
19706W        W33120   1.217   4.394   2.293  0.2356  0.1348  0.1586
19707W        W33121   3.568   5.696  15.396  0.4476 -0.1947 -0.0053
19708W        W33122   5.178  16.941  14.156 -0.1370 -0.1653 -0.0697
19709W        W33123  13.425   1.161   2.125  0.3426 -0.0458 -0.1008
19710W        W33124   2.996   7.487   3.122 -0.0400 -0.2822 -0.2142
19711W        W33125   1.522   4.443   6.149 -0.0744 -0.0305  0.1175
19712W        W33126   6.679  11.844   4.331  0.1644 -0.2485 -0.1276
19713W        W33127   5.954   4.813   4.580  0.0988  0.0377 -0.1199
19714W        W33128  14.003   2.745   4.093 -0.0041  0.1322  0.1628
19715W        W33129  12.073  15.222   1.154 -0.2219 -0.0531 -0.2501
19716W        W33130   5.778   6.481   0.992 -0.0684  0.2963 -0.0512
19717W        W33131  13.986  13.370   0.290 -0.0533 -0.1892 -0.2545
19718W        W33132   1.534  12.580   1.955  0.0684  0.1421  0.0244
19719W        W33133   5.722   5.950  14.043 -0.3032 -0.2238  0.1573
19720W        W33134   4.757   8.177   1.894  0.0582  0.0380  0.0137
19721W        W33135  13.328  15.677  10.613  0.1285  0.2001 -0.2302
19722W        W33136   0.868  17.028   6.343  0.0272 -0.0214 -0.0269
19723W        W33137   8.724  16.943   2.865 -0.2255  0.0256  0.1999
19724W        W33138  12.999   9.979  13.335  0.0256 -0.1431  0.0946
19725W        W33139  17.538   5.602  13.332 -0.2232 -0.0516  0.1520
19726W        W33140   4.766   0.844  16.345 -0.0782  0.2457  0.1997
19727W        W33141  15.120   1.371  13.220 -0.0663 -0.0446 -0.0876
19728W        W33142  13.905   8.532   5.926  0.1376  0.2836  0.0680
19729W        W33143   6.430  12.491  13.160  0.0572  0.0668 -0.2682
19730W        W33144  14.484  12.353   6.441 -0.0448 -0.1559  0.0229
19731W        W33145  13.510  14.435   2.874 -0.0631 -0.1361  0.3321
19732W        W33146  11.044   5.042  12.154 -0.3075  0.2990 -0.0319
19733W        W33147  15.664  11.075  16.188 -0.2188  0.0507  0.0670
19734W        W33148  11.098  17.044   2.598  0.2871  0.0620  0.2743
19735W        W33149  17.500   4.194   5.272 -0.1472 -0.1989 -0.0127
19736W        W33150  11.690  12.250   0.549 -0.2849 -0.0920 -0.3453
19737W        W33151  12.212  12.629  12.306 -0.1272 -0.1112 -0.3061
19738W        W33152   0.950  15.257   2.101  0.0918  0.2091  0.3993
19739W        W33153   4.475  12.660   1.725 -0.2852  0.0712 -0.3068
19740W        W33154   6.600   1.486  12.757  0.2765  0.2544 -0.3863
19741W        W33155  10.224   0.320   9.936 -0.0503  0.3586  0.0917
19742W        W33156   9.579  16.630  16.269 -0.0767  0.0803  0.2052
19743W        W33157  15.330  12.365  16.250  0.2597  0.0388  0.0370
19744W        W33158  11.776   6.326   0.932 -0.1498 -0.4057  0.0810
19745W        W33159  15.772   1.881  15.417  0.0443  0.0003 -0.2021
19746W        W33160   5.839   6.175   1.643 -0.0248  0.2095  0.0089
19747W        W33161   2.907  17.400   4.073  0.0978  0.2527 -0.0841
19748W        W33162   0.865  12.950   3.228 -0.0698  0.0250 -0.2175
19749W        W33163  11.181   7.599   5.720 -0.3432  0.0593 -0.1003
19750W        W33164   1.171   0.319   2.836 -0.1185 -0.0968  0.2248
19751W        W33165   8.365   5.510  11.798 -0.0970  0.0575 -0.0884
19752W        W33166  11.909  12.658  14.956  0.0599 -0.1781  0.0356
19753W        W33167  13.813  17.147   4.021 -0.0072 -0.0545 -0.0349
19754W        W33168   1.282  15.870  12.341  0.0470 -0.0196 -0.3634
19755W        W33169   9.286  14.474  16.074  0.1783 -0.0428 -0.0450
19756W        W33170   9.234   5.674   1.722  0.1215 -0.4357  0.2406
19757W        W33171   5.377  14.307   0.400 -0.0990  0.0961  0.1108
19758W        W33172   0.377   9.258   3.124  0.1310 -0.0527 -0.0053
19759W        W33173  10.732   9.515  14.199 -0.0630  0.0483  0.1731
19760W        W33174  10.420  15.561  13.333 -0.1503  0.2780 -0.2169
19761W        W33175   5.993   2.646   5.677  0.0189 -0.2339 -0.1922
19762W        W33176  13.838   4.778   3.662 -0.1225  0.0267  0.0360
19763W        W33177   7.214  15.015  11.202 -0.0619 -0.1512  0.0831
19764W        W33178  15.444   0.670  13.972  0.1219 -0.4392 -0.0760
19765W        W33179  16.179  10.015   6.105 -0.0851 -0.0274 -0.2675
19766W        W33180   4.422  16.553  11.011 -0.1019  0.0686 -0.0860
19767W        W33181  10.653   9.248  11.463  0.1311 -0.2072  0.0952
19768W        W33182   4.771  13.858   4.186  0.3824  0.0176 -0.1130
19769W        W33183   1.387  16.000   5.686 -0.2511 -0.0115 -0.0496
19770W        W33184   5.559  13.190   3.423 -0.0769 -0.3356  0.3969
19771W        W33185   6.604   5.574   3.356 -0.1067 -0.1742 -0.2273
19772W        W33186  14.146  17.107   3.093 -0.0321 -0.1110 -0.1358
19773W        W33187  10.234  11.001   5.858  0.2072  0.2311  0.2891
19774W        W33188   9.117  17.054   2.561 -0.2706 -0.3042 -0.1395
19775W        W33189   7.036  13.517  16.030  0.1078  0.0836 -0.3409
19776W        W33190  10.838  15.179  10.924  0.2168  0.2375  0.0354
19777W        W33191   9.842  10.051   1.029  0.0365  0.0259  0.0628
19778W        W33192   1.561   2.783  14.133  0.0978 -0.1679  0.2284
19779W        W33193   5.083  17.163  10.425 -0.1665 -0.4302  0.2149
19780W        W33194   2.158   5.017  14.163  0.0238 -0.2548  0.0656
19781W        W33195  13.264   2.445  13.239  0.1373 -0.1537 -0.2626
19782W        W33196   7.566  11.312  12.785 -0.3646  0.0005  0.1898
19783W        W33197   9.628  12.461   1.271 -0.0832  0.2482  0.0408
19784W        W33198  15.207  16.411  15.820 -0.1404 -0.3398 -0.0042
19785W        W33199  15.304   4.484  13.703 -0.1368 -0.3499 -0.1110
19786W        W33200   1.739  11.426   3.658 -0.0991 -0.1302  0.0008
19787W        W33201   6.282   1.807  10.428 -0.1887  0.3152  0.1309
19788W        W33202   3.688   9.698  14.273  0.1871 -0.0444  0.0566
19789W        W33203   4.331   1.653   5.053  0.0585  0.0204  0.1050
19790W        W33204   6.616  10.066  13.200 -0.0515  0.0014 -0.1390
19791W        W33205  18.000   2.979   4.874  0.2826 -0.0232 -0.2846
19792W        W33206  12.975   5.685   3.195 -0.0836  0.0320  0.0185
19793W        W33207   2.704  17.734   0.334  0.0094 -0.2959 -0.2767
19794W        W33208  14.616   3.552  15.520 -0.1886  0.1883 -0.2391
19795W        W33209  14.375   9.971  13.666 -0.1423 -0.2062 -0.0361
19796W        W33210   8.842  17.398   1.713  0.2754  0.0660  0.0229
19797W        W33211  13.256  12.305   4.283 -0.0869  0.0746 -0.0276
19798W        W33212  13.984  17.113   5.569 -0.1408 -0.1638 -0.0852
19799W        W33213  13.450   0.520   0.410 -0.0129  0.0595  0.1165
19800W        W33214   7.197   6.646  10.848  0.1475 -0.1320 -0.1123
19801W        W33215   3.560  18.114   6.207  0.1252 -0.1650 -0.0137
19802W        W33216  14.226  15.989  13.194 -0.2416  0.1346  0.0233
19803W        W33217   6.174  17.412  11.194 -0.1770  0.2165 -0.2108
19804W        W33218   0.198  17.287  11.693 -0.3875  0.1325  0.0811
19805W        W33219  16.584  15.993   4.761 -0.2647  0.3067 -0.0861
19806W        W33220   6.289  16.757   1.170 -0.1953  0.0515  0.1363
19807W        W33221  16.231  11.220  15.519  0.2945 -0.0204  0.1701
19808W        W33222  14.771   9.108  11.915 -0.2208  0.1221  0.0474
19809W        W33223  17.241   3.591   1.739  0.1380  0.1822  0.0880
19810W        W33224  15.501  17.275   2.520 -0.0882 -0.3906 -0.0702
19811W        W33225   9.785   8.253  15.139  0.2196 -0.2367  0.0478
19812W        W33226  12.915   5.823  14.470 -0.0211  0.0788  0.2805
19813W        W33227  15.682  15.144   0.945 -0.4047 -0.1360 -0.2199
19814W        W33228  15.870   6.609  13.572 -0.3622 -0.0934 -0.1238
19815W        W33229  17.862  10.789   6.304 -0.1955 -0.2412 -0.2845
19816W        W33230   0.399   3.547   5.541 -0.0756 -0.0554 -0.0002
19817W        W33231  11.016   2.637   1.233  0.1965  0.1758  0.1797
19818W        W33232   3.664  16.030  14.665  0.2624 -0.0487 -0.3464
19819W        W33233   7.525   4.793   5.669 -0.2617  0.1969 -0.2032
19820W        W33234   5.536   1.767   2.313  0.0945 -0.1093  0.1238
19821W        W33235   7.103  16.627  10.465  0.0761  0.0764  0.1087
19822W        W33236   4.553   5.713   1.870  0.2329  0.0965  0.3507
19823W        W33237  11.005  17.564   2.418  0.1943  0.0257  0.0584
19824W        W33238   8.558   2.094  11.578  0.1578  0.1294 -0.0295
19825W        W33239   8.225   8.873   3.538  0.0374 -0.2316 -0.2648
19826W        W33240   9.196  10.621   4.007 -0.2393  0.0059 -0.1024
19827W        W33241  14.691   9.980   5.163  0.1257  0.1773 -0.2003
19828W        W33242   6.036  18.204  15.521 -0.0770  0.0065 -0.2748
19829W        W33243   7.470  11.938   0.917  0.1131  0.0685  0.2930
19830W        W33244  11.581  10.831  12.616 -0.5518  0.0736  0.3173
19831W        W33245   5.059   2.953  14.688  0.4255 -0.3374  0.1407
19832W        W33246  15.432  12.250   0.520  0.1861  0.5145 -0.0836
19833W        W33247  11.293   1.804   5.624  0.1520  0.3365  0.1641
19834W        W33248  14.663  15.825  13.325  0.5166 -0.0865  0.0784
19835W        W33249  16.299   5.187   4.599  0.1715  0.2481 -0.0009
19836W        W33250  10.294  12.235   3.294  0.0843 -0.3318  0.1832
19837W        W33251   1.171   0.026  16.150 -0.1587  0.2712  0.0894
19838W        W33252   9.680  13.822   1.877 -0.0929  0.1286  0.4375
19839W        W33253  10.067   3.757   4.351  0.1108 -0.3117  0.1208
19840W        W33254  14.614   1.661  14.950 -0.1523 -0.0110 -0.0579
19841W        W33255   4.023   9.313   4.064 -0.1517 -0.3061 -0.1469
19842W        W33256   1.775   9.026   4.029 -0.0071  0.0994 -0.1698
19843W        W33257  14.999  17.660   3.683  0.1619 -0.0426 -0.1466
19844W        W33258   3.503   5.215  13.094 -0.0988 -0.0163  0.0053
19845W        W33259   4.033  18.176  14.926 -0.0949  0.2131  0.1629
19846W        W33260  13.863  12.527   4.912 -0.4281  0.1777  0.1038
19847W        W33261   2.410   7.147  16.195 -0.1340  0.1510  0.0654
19848W        W33262   3.554   0.530   3.785  0.1300  0.1917  0.1365
19849W        W33263   0.061   6.053  11.344 -0.1523  0.3690 -0.1118
19850W        W33264   5.933   4.002  15.196  0.0562 -0.3733 -0.1177
19851W        W33265   5.334   5.660  11.897  0.0079 -0.1163  0.0960
19852W        W33266   3.446   9.739  16.229 -0.2465  0.0228  0.1002
19853W        W33267   9.278   3.341   2.111 -0.0465 -0.2795  0.2691
19854W        W33268   3.489  11.949  15.381 -0.3246  0.3634  0.0493
19855W        W33269   3.300   3.838   5.158  0.0982 -0.0156 -0.1564
19856W        W33270   1.174  17.316   4.907  0.0738  0.1603  0.0997
19857W        W33271   7.138  15.791   1.069  0.1158 -0.0769 -0.0118
19858W        W33272  17.771  16.762   0.142 -0.2128 -0.2161 -0.1302
19859W        W33273  15.535   0.196  13.750  0.1342  0.0324  0.0251
19860W        W33274   3.314  15.830   4.610 -0.2483 -0.1059  0.0578
19861W        W33275   0.098  13.567   3.029  0.0332  0.1943  0.0816
19862W        W33276   2.783  17.829   1.738  0.2385 -0.2562 -0.0652
19863W        W33277   8.358   6.165  14.077  0.1322  0.0346  0.1227
19864W        W33278   8.346   8.124   1.245  0.4205 -0.0308 -0.2818
19865W        W33279   2.263  13.285   3.667  0.0959 -0.3775  0.1573
19866W        W33280   7.944   1.841  14.926  0.0639 -0.0172  0.0735
19867W        W33281  10.268   9.339  12.950  0.0904  0.0158  0.0569
19868W        W33282   5.932  16.902   2.441 -0.0592  0.2383  0.2595
19869W        W33283   7.863  11.557  13.097 -0.2164  0.0673  0.0038
19870W        W33284   9.629  15.664   0.414  0.1709 -0.1663 -0.0364
19871W        W33285  17.947   1.529  14.983  0.0192 -0.2280  0.2012
19872W        W33286   4.955   3.538  13.895 -0.1350  0.2830 -0.2709
19873W        W33287   0.921  11.902  14.139  0.3453 -0.0120  0.0870
19874W        W33288  15.462   1.581  11.487  0.3177 -0.2714 -0.2289
19875W        W33289  15.457   3.501  11.536 -0.1449 -0.2042  0.0201
19876W        W33290  14.487  14.411   1.820 -0.1430  0.0859  0.1554
19877W        W33291  17.380  14.897   5.432 -0.0197 -0.3646  0.1772
19878W        W33292  14.178  10.164   3.873 -0.1758 -0.0779 -0.3349
19879W        W33293   1.632   2.109  12.123  0.1765 -0.1375 -0.1334
19880W        W33294   6.894   7.367   3.824 -0.1664 -0.1524  0.1196
19881W        W33295   5.523   0.903   5.999  0.0193 -0.0639  0.0937
19882W        W33296   8.574   0.509   4.093 -0.0760  0.3814  0.3512
19883W        W33297   9.035  16.578  10.129 -0.1365  0.0656  0.0120
19884W        W33298   5.049   6.947   3.876  0.0223 -0.2315  0.1959
19885W        W33299  11.069  14.245   0.227  0.0674 -0.0490 -0.0940
19886W        W33300   6.911   5.153   6.241 -0.0741  0.1344  0.1865
19887W        W33301  13.205  12.699  14.955  0.4223  0.2079  0.2148
19888W        W33302   5.159   6.838   5.899  0.0425  0.1560 -0.0330
19889W        W33303  13.335   7.346  11.012  0.0448  0.0055  0.3693
19890W        W33304   3.772   5.261   3.311  0.0217 -0.1053 -0.0147
19891W        W33305   5.151  11.793   5.003 -0.0058  0.0517  0.3241
19892W        W33306  12.321   8.815   3.653  0.0253 -0.1935 -0.1177
19893W        W33307  15.010  10.283  13.193 -0.2694  0.0625  0.3404
19894W        W33308   2.474  14.163   0.978  0.0544  0.0235 -0.2665
19895W        W33309  10.383   0.702  15.730 -0.0110  0.3147  0.0206
19896W        W33310  10.694   6.897  13.686  0.1388  0.0424  0.0020
19897W        W33311  16.290   3.151  14.415  0.0207  0.3048  0.2429
19898W        W33312  13.291   7.341   2.790  0.2544 -0.2712 -0.0775
19899W        W33313  10.432   3.795   3.361 -0.2120  0.0114  0.1657
19900W        W33314  12.560  15.002   4.204  0.0014 -0.0347  0.2198
19901W        W33315   6.208  15.554   1.821 -0.0574  0.2613 -0.1322
19902W        W33316  15.091   2.668  15.568  0.0085 -0.1937 -0.0039
19903W        W33317  10.534   3.266  14.014 -0.1551 -0.1472  0.3079
19904W        W33318  11.982   9.096  14.501 -0.0703  0.1465 -0.1061
19905W        W33319  13.483   0.775  10.916 -0.2056 -0.1907  0.0435
19906W        W33320  13.714   3.638  15.864  0.0570  0.1354 -0.1815
19907W        W33321   6.565   6.889   1.382 -0.0533 -0.0352 -0.0350
19908W        W33322  12.466   3.504   4.365 -0.0801 -0.1890 -0.0242
19909W        W33323   7.637   3.479  14.778  0.0412  0.2967  0.0916
19910W        W33324  12.128  13.991   2.519  0.2230  0.0274 -0.3613
19911W        W33325  15.088   2.378   6.069 -0.1546  0.2377  0.1735
19912W        W33326   0.170  14.629   3.130  0.1928 -0.0907  0.2418
19913W        W33327   0.148   4.290  13.891 -0.0155 -0.1380  0.1667
19914W        W33328  16.231  11.144   0.411  0.0591 -0.0835  0.0253
19915W        W33329  18.083  10.996  15.168  0.1176 -0.1263 -0.1126
19916W        W33330  13.745  12.651  16.479  0.1997 -0.2707  0.0750
19917W        W33331   7.598  17.269   2.507  0.0841  0.2805  0.1124
19918W        W33332  16.420   7.986   0.377  0.2652  0.3422  0.1237
19919W        W33333   4.244   1.560   3.670 -0.2321 -0.0627  0.0784
19920W        W33334  12.833  11.767  12.297  0.0887 -0.0148  0.3120
19921W        W33335   1.570   2.661  13.050 -0.0815 -0.0438  0.2212
19922W        W33336   9.283  13.502   5.112  0.2492 -0.2242 -0.1849
19923W        W33337   5.011  18.065  16.508 -0.3135  0.4677 -0.0389
19924W        W33338  11.853   4.374   2.748 -0.0551  0.1542  0.0307
19925W        W33339  14.975  13.137  12.535  0.0748 -0.2564 -0.2038
19926W        W33340   5.346  12.442   2.402 -0.0802 -0.2547 -0.1535
19927W        W33341  14.382   0.854   2.018 -0.0989  0.0120  0.1225
19928W        W33342  18.023  13.742  12.709 -0.0505 -0.0876  0.0606
19929W        W33343   2.885  14.450   3.448  0.2730 -0.0267 -0.1843
19930W        W33344  12.577   1.892   4.660 -0.0447  0.2216  0.1722
19931W        W33345  17.362  17.331   4.816 -0.1048  0.0968 -0.0699
19932W        W33346   4.081   2.699   5.712 -0.1085  0.2428  0.0935
19933W        W33347   1.357   3.550  16.096  0.2771  0.0533  0.0602
19934W        W33348  14.591   7.267  15.592  0.3209  0.0929 -0.0232
19935W        W33349  13.407  11.036   4.652  0.1478  0.2871  0.0356
19936W        W33350   2.299  14.039   5.938 -0.0927  0.0669  0.0240
19937W        W33351  13.784  16.218  14.185 -0.1027  0.0019 -0.0751
19938W        W33352  12.720   1.214  12.177  0.1022  0.3707  0.0655
19939W        W33353   8.944   3.321   0.607 -0.2144  0.2570 -0.0997
19940W        W33354   7.992   4.961   3.967 -0.1469 -0.0812 -0.0174
19941W        W33355   4.771   5.894  12.883 -0.2119 -0.1279 -0.1575
19942W        W33356   5.376   1.513  15.676 -0.1326  0.0045 -0.1051
19943W        W33357  12.678   1.037   3.383  0.0189  0.1052 -0.1481
19944W        W33358  11.843  16.516  14.297 -0.0884 -0.4072  0.2152
19945W        W33359  10.766   3.017   5.330  0.4221 -0.0663  0.0168
19946W        W33360   3.893  17.770   5.530 -0.1253 -0.0870 -0.0591
19947W        W33361  11.931   7.843   2.802  0.3192 -0.0703  0.0972
19948W        W33362   9.893   6.559  15.752  0.2846 -0.1751 -0.2044
19949W        W33363  13.976   6.141   4.304 -0.3674  0.2668 -0.0025
19950W        W33364   5.595   2.245  11.655 -0.0872 -0.0327 -0.0599
19951W        W33365  12.733  17.207   2.773  0.3162  0.2272  0.1072
19952W        W33366   0.869  11.400  10.926  0.1689  0.0247 -0.0090
19953W        W33367  11.499   1.833   1.769 -0.1326 -0.0081 -0.1010
19954W        W33368  17.812   7.829  11.254  0.0129  0.0464  0.1084
19955W        W33369   0.037   8.886  13.878 -0.2825  0.0948  0.0472
19956W        W33370  10.233  15.906  16.462 -0.0517 -0.0957 -0.0056
19957W        W33371   0.929   9.845   3.589  0.4087  0.0564 -0.2738
19958W        W33372   6.192  11.831   0.883 -0.2981 -0.1325  0.0231
19959W        W33373  12.121   8.968  12.264  0.1613  0.3173  0.3797
19960W        W33374   8.517  11.234   1.369  0.1342  0.0106  0.0488
19961W        W33375  16.133   5.849  16.018 -0.2918 -0.1125 -0.2429
19962W        W33376  14.925   7.480  14.878 -0.1459  0.5540  0.1714
19963W        W33377   7.274   9.778   3.911  0.0265  0.1761 -0.2053
19964W        W33378  11.007   2.624  11.488 -0.1942 -0.1564  0.1638
19965W        W33379   9.294   5.722   1.133 -0.0259  0.0169  0.0188
19966W        W33380  10.680   0.047   1.653 -0.0195 -0.0035 -0.2749
19967W        W33381   1.334  13.402   0.763 -0.0393  0.2417 -0.0427
19968W        W33382   1.736   1.728   4.205 -0.2143  0.1582 -0.2761
19969W        W33383   9.809  11.981   4.626  0.2359  0.1612  0.1909
19970W        W33384   0.979   7.245   1.687 -0.0389 -0.1123  0.2983
19971W        W33385   0.256  10.118   6.041 -0.2055 -0.2409 -0.0775
19972W        W33386  14.682   8.973  11.171 -0.1537 -0.1174 -0.0229
19973W        W33387   4.940   6.005  11.880  0.1521 -0.2020  0.2754
19974W        W33388  14.792  15.057   2.526 -0.1694 -0.2928 -0.0373
19975W        W33389   0.398  17.322   4.790 -0.2441 -0.0215  0.1958
19976W        W33390  12.917   6.392   4.117 -0.2148  0.1172  0.0533
19977W        W33391  16.429   4.991   2.773 -0.0284  0.0982  0.1376
19978W        W33392   6.459   9.117   3.878  0.0825 -0.2102  0.1211
19979W        W33393  15.326   7.452  16.342  0.0282 -0.2347 -0.0532
19980W        W33394   1.970  16.305   4.002 -0.0902 -0.1432  0.3296
19981W        W33395   2.820   1.886  14.235 -0.2271  0.0295 -0.2425
19982W        W33396   7.106   6.371   0.755 -0.3985  0.2357  0.1211
19983W        W33397   3.784   3.621  12.976  0.0815  0.1959  0.2448
19984W        W33398   2.027   9.094  14.989 -0.2602 -0.2194  0.1828
19985W        W33399  14.897   1.143  10.551 -0.1241  0.0839 -0.0162
19986W        W33400   8.486   8.883   2.733 -0.2271  0.1792 -0.2374
19987W        W33401   8.053   3.943  12.922 -0.0056  0.4260  0.0307
19988W        W33402  11.265   0.586   1.801 -0.0822  0.2871  0.0622
19989W        W33403   2.629  12.359   0.699 -0.1020 -0.2202 -0.1601
19990W        W33404  16.421   2.952   0.324 -0.0701  0.1514 -0.0990
19991W        W33405  10.761  10.672  14.825 -0.0933 -0.0563  0.1004
19992W        W33406   6.555  12.595   5.968  0.2534 -0.0674  0.1049
19993W        W33407   5.599   9.252  15.665  0.2198 -0.0806  0.0838
19994W        W33408   9.568   4.017  14.436  0.3271  0.1273 -0.3011
19995W        W33409  12.146  16.752   2.680 -0.1885  0.1043 -0.2132
19996W        W33410   5.147   2.209   1.192 -0.0332 -0.0900 -0.0225
19997W        W33411   8.434   4.924  14.652  0.3002  0.0797 -0.2353
19998W        W33412   8.060   5.194  16.100  0.4463 -0.0867  0.1217
19999W        W33413   5.798  13.299   2.262  0.1077  0.1732  0.1802
20000W        W33414  17.616   0.398   3.305 -0.3687  0.2490 -0.1827
20001W        W33415  14.594  14.435  11.409  0.2567  0.3705  0.0416
20002W        W33416  13.176   1.416  12.935  0.3761 -0.2481 -0.0367
20003W        W33417   1.638   9.355   5.310 -0.0696  0.3586  0.2350
20004W        W33418  11.986   3.541  11.143 -0.2460 -0.2137  0.0580
20005W        W33419   6.781  11.267  11.142  0.0177  0.0028  0.0192
20006W        W33420   6.604   5.220   2.590  0.0831 -0.0894 -0.4061
20007W        W33421   7.741   3.409  15.689  0.0540 -0.0893 -0.0018
20008W        W33422   1.128   9.991  12.184  0.1079 -0.2121 -0.0491
20009W        W33423  16.379   8.090   3.966  0.3582 -0.0254 -0.1503
20010W        W33424  10.253  14.795  13.677  0.1053  0.1440 -0.0150
20011W        W33425  16.600   0.120   1.083 -0.0117  0.3756 -0.0441
20012W        W33426   3.362   1.825   4.112 -0.1295  0.0015  0.0138
20013W        W33427   5.436   0.068   1.301  0.0055 -0.0015 -0.1719
20014W        W33428  15.496   1.162   4.636  0.2124 -0.0718 -0.0474
20015W        W33429   8.064   7.854  10.919  0.1820  0.3333  0.2032
20016W        W33430  10.419   0.220  12.265 -0.1158 -0.3465  0.0400
20017W        W33431   7.812   1.221  13.194 -0.0281  0.0215  0.1339
20018W        W33432  16.598   2.405   5.374 -0.0248  0.2274 -0.0008
20019W        W33433   0.221  12.370  12.452 -0.0794 -0.2286  0.1241
20020W        W33434   8.820   7.062   4.418 -0.0669  0.1625 -0.2145
20021W        W33435   7.518  12.054  12.074  0.1131  0.1547 -0.1630
20022W        W33436  17.810  14.125  12.516 -0.0474 -0.1080  0.1757
20023W        W33437   2.104  11.204  15.944  0.0673  0.2047 -0.0934
20024W        W33438   1.689   3.161  12.817 -0.2348  0.1867  0.1236
20025W        W33439   7.704   1.569   9.952  0.0066 -0.1113  0.1769
20026W        W33440   4.437   3.364  14.117 -0.0674 -0.1277  0.1304
20027W        W33441  16.487   9.484  16.148  0.1729 -0.1215 -0.1998
20028W        W33442  17.151   7.389  14.035 -0.1831 -0.0703 -0.2168
20029W        W33443  11.567   8.203  12.639 -0.1728 -0.1306 -0.0008
20030W        W33444  12.366  11.113   0.270 -0.2934  0.3154 -0.0065
20031W        W33445   5.969  12.033   4.370 -0.0897  0.2339 -0.1363
20032W        W33446   7.458  17.590   5.112  0.2072 -0.0610 -0.3325
20033W        W33447   5.168  16.732   4.052  0.0801 -0.1124  0.0475
20034W        W33448   9.446   9.610  16.337  0.1948 -0.0652  0.2112
20035W        W33449   3.061   7.129   5.154  0.0853  0.3922  0.1228
20036W        W33450   9.474   0.223  16.501  0.0807  0.0912 -0.1526
20037W        W33451  10.838  16.862   5.305 -0.0281  0.1858  0.1081
20038W        W33452   7.088   7.138   3.434  0.0962  0.1267  0.0429
20039W        W33453  16.568   8.426   0.548  0.1567  0.1366 -0.2242
20040W        W33454  16.684   3.269  14.211 -0.1259  0.1976 -0.0157
20041W        W33455  11.104   7.663  13.896 -0.1249  0.0550 -0.3832
20042W        W33456   9.907   8.228   0.205  0.2643 -0.0271 -0.0325
20043W        W33457   1.383   9.344  12.694  0.2030  0.2094  0.0053
20044W        W33458  14.427   7.359   1.176  0.1334 -0.2978  0.1545
20045W        W33459   1.884  17.303   2.160  0.2018 -0.1355 -0.1159
20046W        W33460   7.931   2.855   2.603 -0.3307 -0.3318  0.0403
20047W        W33461   0.780  17.687   4.997  0.0403  0.3209  0.0938
20048W        W33462  14.427   1.676  14.076 -0.1103  0.0160 -0.1773
20049W        W33463   2.747  10.939   5.886 -0.2227 -0.2032 -0.0699
20050W        W33464  13.524  15.630  11.109  0.0800 -0.2238 -0.1927
20051W        W33465  14.940   8.798   0.379  0.1318  0.1553  0.2801
20052W        W33466   2.780   4.666   5.159  0.1297 -0.1246  0.2316
20053W        W33467   7.731   2.680   3.491  0.0147 -0.1073  0.0863
20054W        W33468   6.201  15.520   4.515  0.2596 -0.0565  0.0552
20055W        W33469   7.869  14.629   3.501  0.2332 -0.0060  0.2256
20056W        W33470   0.799   7.668  13.598 -0.2186  0.0418 -0.3868
20057W        W33471   5.977   0.525  14.205 -0.2304 -0.0111  0.1151
20058W        W33472   7.238  15.663  12.545 -0.1028  0.1193 -0.3199
20059W        W33473   6.382   5.723  15.123  0.1964  0.2137 -0.3829
20060W        W33474   9.813   5.699   4.004  0.0616  0.1999  0.0776
20061W        W33475  12.861   2.615  12.967 -0.2365  0.0737 -0.4655
20062W        W33476  15.804   0.760  15.900  0.1378  0.0225  0.0291
20063W        W33477   2.939   3.055  14.601 -0.1997  0.0919 -0.3874
20064W        W33478   4.794   8.017  12.122 -0.0711 -0.0417  0.0206
20065W        W33479   5.494   5.067  16.454 -0.2953 -0.0707  0.1257
20066W        W33480  12.557   7.788   2.901 -0.2902  0.1420 -0.2224
20067W        W33481  10.112   3.866   0.100 -0.2347  0.0350 -0.2741
20068W        W33482  13.717  11.718  16.522 -0.0639  0.2470 -0.1282
20069W        W33483   3.632  11.985  14.062 -0.1049  0.1465 -0.0381
20070W        W33484   3.186   8.313   6.143 -0.1598  0.1674 -0.0344
20071W        W33485   5.968   1.829  14.098 -0.1619  0.2619 -0.0665
20072W        W33486   6.402  17.901   3.134 -0.2322 -0.0562 -0.3196
20073W        W33487   0.840   7.080   3.308 -0.1384  0.1127  0.2267
20074W        W33488  10.331  14.170  14.287  0.1244 -0.1967  0.0496
20075W        W33489  16.666  10.722  13.583 -0.2283  0.1364 -0.2237
20076W        W33490  12.124   0.543   4.643  0.1232  0.0503 -0.2889
20077W        W33491   3.080  16.899   0.051  0.0556 -0.3737 -0.1573
20078W        W33492  17.822   8.485   6.183  0.1162  0.2616 -0.0535
20079W        W33493   9.822  11.904  15.192  0.0229  0.0313  0.2752
20080W        W33494   7.108   5.610   3.614  0.0704  0.1045  0.1629
20081W        W33495   6.384  16.769   2.188 -0.0805 -0.0884  0.0791
20082W        W33496   5.218   8.732  13.871  0.0123  0.0616 -0.3028
20083W        W33497  14.731  17.595  14.547 -0.2485  0.1767 -0.1116
20084W        W33498   0.512  14.352  12.386 -0.2290  0.1973  0.0843
20085W        W33499  13.292  14.758   0.026 -0.0065 -0.4220 -0.2042
20086W        W33500   2.767   1.661   1.034  0.2583 -0.1160 -0.0590
20087W        W33501   1.096   9.761   4.845 -0.2140  0.2598 -0.1603
20088W        W33502   4.592  14.751   1.757 -0.0921 -0.5708  0.0723
20089W        W33503   7.454   9.301   5.998 -0.0162 -0.3005 -0.1153
20090W        W33504  15.116   9.820  14.265  0.2219  0.1776  0.1403
20091W        W33505  17.135   1.393   1.118  0.0109  0.0590  0.1216
20092W        W33506   9.371   0.500  13.783  0.3631  0.0638  0.1455
20093W        W33507   6.404   3.369   5.528 -0.3435  0.3045  0.4479
20094W        W33508   1.219  14.158   3.811  0.2108 -0.1000 -0.4455
20095W        W33509  14.170   4.183  12.597 -0.1138  0.1347 -0.0175
20096W        W33510   8.692   1.205   0.895 -0.1662  0.2264 -0.0872
20097W        W33511   3.997  11.741   1.230 -0.0222 -0.2596 -0.1253
20098W        W33512  12.547  11.814  15.740  0.2828  0.0307  0.0227
20099W        W33513  15.022   4.672   1.659  0.0936 -0.1115  0.0166
20100W        W33514  16.240   9.508  13.517  0.0679  0.1519 -0.0456
20101W        W33515   7.336  15.024  12.598  0.3370 -0.1806 -0.0806
20102W        W33516   9.312  15.460  16.416  0.1305  0.3679  0.3017
20103W        W33517  11.885   3.617  10.649 -0.0412 -0.1607 -0.1445
20104W        W33518   5.214  10.681  16.370 -0.0218  0.1100  0.2421
20105W        W33519  15.567  15.088   9.895  0.0006 -0.0279  0.4388
20106W        W33520  18.031   2.274   4.360 -0.0161 -0.0007  0.0108
20107W        W33521   4.453   2.105  14.976 -0.2759  0.0250  0.0692
20108W        W33522   9.070   7.569  11.147  0.2170  0.3753 -0.0783
20109W        W33523   4.472   8.405   6.056  0.0118 -0.0502  0.3383
20110W        W33524   8.245   2.253  14.862  0.0267  0.0449 -0.0922
20111W        W33525   1.613   4.534  12.798  0.2007  0.1305  0.1174
20112W        W33526   7.076   1.400  15.231 -0.0878 -0.3494  0.1134
20113W        W33527  15.418   0.532  16.193 -0.1015 -0.1757 -0.0143
20114W        W33528  12.053   9.646   3.597 -0.1580 -0.0964 -0.0402
20115W        W33529  16.262  13.275  11.852 -0.1514 -0.1391  0.2533
20116W        W33530   2.187  12.465   5.428  0.0492 -0.2726  0.2228
20117W        W33531  12.493  17.570  13.625 -0.0792  0.2500  0.0666
20118W        W33532   8.802  10.660  12.588 -0.0236  0.1921  0.1424
20119W        W33533   8.160  11.317  11.355  0.0741  0.0681  0.4292
20120W        W33534   6.572   8.966   0.520  0.0443 -0.0355 -0.1601
20121W        W33535  16.603  13.799  11.916 -0.0482 -0.0153 -0.4176
20122W        W33536  17.628  11.123   4.874 -0.1676 -0.3729  0.2188
20123W        W33537   9.570  15.996   1.499  0.3509  0.0993  0.2398
20124W        W33538  10.704  10.831  15.498 -0.3098  0.0244  0.0694
20125W        W33539  14.693   1.367   3.100  0.2985  0.1083 -0.3223
20126W        W33540  14.609   5.661   3.630  0.1880  0.0306 -0.0979
20127W        W33541  13.902  11.710   0.996 -0.2909 -0.0383  0.1719
20128W        W33542   0.417  13.340   2.244 -0.0821 -0.4361  0.0162
20129W        W33543   7.052  16.194  10.728  0.0566  0.0692  0.0287
20130W        W33544   6.987  15.631  15.216 -0.2462 -0.1190 -0.1465
20131W        W33545   9.010   0.146   3.210 -0.0048 -0.0328 -0.3110
20132W        W33546   7.114   6.948   4.961 -0.0321 -0.0292  0.2397
20133W        W33547   9.508  11.784   5.923  0.0534 -0.0147 -0.0579
20134W        W33548  10.170   1.758   3.166  0.0154  0.1573  0.2279
20135W        W33549   5.030   6.910   4.389  0.1625  0.0142 -0.1974
20136W        W33550   9.939   4.073   1.471 -0.0706 -0.3445 -0.2579
20137W        W33551   4.187   3.386  11.711 -0.1831  0.0295 -0.3674
20138W        W33552  18.182   5.667  14.140  0.1492 -0.1633 -0.1868
20139W        W33553   9.035   4.653  14.900 -0.1783  0.0932 -0.1962
20140W        W33554  14.132   7.102   6.108 -0.0546 -0.0547 -0.0320
20141W        W33555  11.123   9.675   5.994 -0.1156 -0.2895  0.3012
20142W        W33556  12.818   4.849  11.685 -0.1875 -0.2290 -0.2558
20143W        W33557   2.904  10.297   4.973 -0.1169  0.3406 -0.0195
20144W        W33558   7.927   7.535  11.954  0.0001  0.0407 -0.1731
20145W        W33559   6.082   8.380   4.489  0.4007 -0.3990 -0.0826
20146W        W33560  12.506  11.520  14.862 -0.0621  0.4034 -0.0050
20147W        W33561   9.597   6.214  14.395  0.4152 -0.2244  0.2540
20148W        W33562   0.724   8.141  16.358 -0.2350  0.1914 -0.0089
20149W        W33563  10.567   5.639   3.274  0.0775 -0.0335  0.2097
20150W        W33564  17.742  12.576  14.038  0.2639 -0.0382  0.0610
20151W        W33565  11.418   9.282   1.673 -0.0674  0.2116 -0.0115
20152W        W33566  12.435   5.162   3.807 -0.0953 -0.0158  0.0697
20153W        W33567  10.270   1.137   0.309  0.0275 -0.1126  0.4040
20154W        W33568  17.444   7.508  11.373 -0.0784  0.2130  0.3250
20155W        W33569   5.275  12.526   3.868 -0.0983 -0.1370  0.0753
20156W        W33570  13.219   9.633  15.617 -0.0522 -0.0609  0.1429
20157W        W33571  16.612   5.256   3.470 -0.1270 -0.1723  0.0203
20158W        W33572  16.146   1.133   5.851  0.0752  0.0806 -0.0012
20159W        W33573  13.242  11.558  12.275 -0.1716 -0.0065  0.3155
20160W        W33574  11.382   1.463  16.019 -0.2988 -0.1043 -0.0211
20161W        W33575   3.047  12.652   3.056  0.0204 -0.2736  0.2224
20162W        W33576   7.740   8.388  16.480 -0.1158  0.2118 -0.1276
20163W        W33577  18.019  16.045  15.102  0.0425 -0.0719  0.0325
20164W        W33578  11.542   6.836  14.755 -0.0831  0.0184 -0.0894
20165W        W33579   9.758   8.790   5.115  0.0262 -0.3739  0.0385
20166W        W33580   1.278  14.493  13.677 -0.1261  0.1718 -0.0166
20167W        W33581  15.576  14.723  11.691  0.1818 -0.1067 -0.0495
20168W        W33582   1.245   3.054  13.720  0.3037  0.2950  0.2038
20169W        W33583   0.813  17.984   3.083  0.0961 -0.0247 -0.2984
20170W        W33584  17.880   1.304   1.452  0.1278  0.1879 -0.0398
20171W        W33585   0.425   2.401   3.704 -0.0509  0.4469 -0.0767
20172W        W33586   0.782  11.123  16.336  0.0373  0.0283  0.2645
20173W        W33587  11.473  13.634   1.951  0.3728  0.4368  0.1246
20174W        W33588   1.085  10.782   2.040 -0.4272  0.1081  0.1221
20175W        W33589  11.114   2.905   3.415  0.2261  0.2029  0.2963
20176W        W33590   0.247   7.819   4.941 -0.2683  0.1043  0.0690
20177W        W33591  10.003   6.647   5.742  0.3515  0.0205  0.6018
20178W        W33592   6.652  10.897   5.367  0.4045  0.1925  0.0926
20179W        W33593   1.928  15.807  12.997 -0.1023 -0.1187  0.0403
20180W        W33594  16.814  16.822  10.536 -0.2318  0.1775  0.1887
20181W        W33595   7.582   4.111  13.991  0.1199  0.1455  0.1714
20182W        W33596  16.813   9.730   2.793  0.1174 -0.0029 -0.0126
20183W        W33597   4.391   3.703   3.729  0.1671  0.3750 -0.1337
20184W        W33598   5.659  15.982   5.060 -0.0139 -0.2659  0.1873
20185W        W33599   3.712  12.328   1.568  0.0613  0.1079 -0.0275
20186W        W33600  14.329   8.045  11.834 -0.0362 -0.1290  0.0268
20187W        W33601   9.825   5.637   1.127  0.2179 -0.2399  0.3611
20188W        W33602   5.514   8.505  14.928 -0.1228 -0.1094  0.0465
20189W        W33603  12.951  14.943  13.517 -0.1593 -0.3183 -0.0062
20190W        W33604   7.897   5.539  11.980 -0.3216 -0.2687 -0.2214
20191W        W33605   0.258  15.182   0.393 -0.0198  0.0031 -0.1514
20192W        W33606   3.412   9.094   0.465 -0.1105 -0.0161  0.2113
20193W        W33607   6.910  14.354  12.777 -0.1287  0.3611 -0.1305
20194W        W33608   6.808   1.901   4.108 -0.3053 -0.1767  0.1255
20195W        W33609   2.407   8.082  12.073  0.0527 -0.1430 -0.0110
20196W        W33610   4.738   3.029  10.963 -0.0180 -0.2250  0.3782
20197W        W33611   9.625   3.137  11.382  0.0483  0.0834  0.0023
20198W        W33612  17.366   8.769  15.769  0.2286 -0.2620  0.3713
20199W        W33613  12.426   4.537  12.561  0.2305  0.1164  0.1581
20200W        W33614  15.771  10.642   3.194 -0.1778 -0.1971 -0.1436
20201W        W33615   3.240   9.379   2.390  0.1515 -0.3140  0.2386
20202W        W33616  17.152   9.351  15.112  0.1290  0.0785  0.2193
20203W        W33617  12.034  13.661   3.331 -0.3294  0.0824 -0.0708
20204W        W33618  11.877  14.246   5.440 -0.0099 -0.1916 -0.4059
20205W        W33619   1.610   3.677  12.664 -0.1274  0.0443 -0.0506
20206W        W33620  12.411  15.039  10.521 -0.2796 -0.1408 -0.1384
20207W        W33621  15.129   9.589  13.731  0.2732  0.3185 -0.1156
20208W        W33622  10.454  15.882  12.351 -0.1292  0.1736 -0.0232
20209W        W33623   3.245   2.361  16.043 -0.0948 -0.1041  0.0239
20210W        W33624  13.432   0.531  14.111  0.0065  0.5264 -0.0948
20211W        W33625  16.957  14.111  12.104  0.2786 -0.4657 -0.0695
20212W        W33626  14.015   2.979  14.906 -0.0350  0.2409  0.1083
20213W        W33627   2.535   1.292   4.279  0.1854  0.0620  0.0643
20214W        W33628   7.208   0.274  15.925 -0.1892  0.3526  0.1489
20215W        W33629  13.983   6.852   2.171  0.1015  0.2511 -0.0176
20216W        W33630   6.196   3.211   4.840 -0.2402 -0.4240  0.0397
20217W        W33631  11.633   6.458   6.466  0.1200  0.0507  0.3463
20218W        W33632   7.454   8.871  15.297 -0.1629  0.0558  0.0712
20219W        W33633   0.097   6.608   0.003 -0.1533 -0.0914  0.1203
20220W        W33634   3.662  15.957   4.981  0.0087 -0.0339 -0.1063
20221W        W33635  13.843  15.053  10.286  0.1699  0.2532  0.1454
20222W        W33636   9.163   7.047   0.795 -0.0043 -0.1506 -0.3384
20223W        W33637   4.661   7.431  13.765  0.4099  0.2569  0.4363
20224W        W33638  11.557   5.619  14.808 -0.0908 -0.1643 -0.1701
20225W        W33639   6.208   0.122   4.995  0.0613 -0.0677 -0.0762
20226W        W33640  13.517  13.056   0.218 -0.2376 -0.2517 -0.4543
20227W        W33641  17.245   1.902   0.819 -0.0451 -0.2781  0.0619
20228W        W33642   5.647  16.633  12.236  0.2425 -0.4102  0.1028
20229W        W33643  17.461   4.013   4.678 -0.0751  0.0482 -0.1139
20230W        W33644  13.234   9.555   7.247 -0.0265  0.1708  0.1303
20231W        W33645  13.385  12.527   1.150  0.0752  0.0255 -0.0613
20232W        W33646  13.137   8.138  12.655 -0.1175 -0.1870  0.0883
20233W        W33647   1.617   9.660   0.730  0.0991  0.2190 -0.1218
20234W        W33648   4.666   3.917   3.114 -0.0612  0.3757  0.3036
20235W        W33649   6.040   6.902  13.908 -0.1902  0.0404 -0.0126
20236W        W33650  12.995   0.394   2.425 -0.2054  0.0139 -0.0194
20237W        W33651  17.181  17.213   2.603  0.1663  0.1358 -0.1423
20238W        W33652   1.902  12.054   3.800  0.2143 -0.0386  0.0156
20239W        W33653   7.403  13.140   3.907  0.0368 -0.2191 -0.2189
20240W        W33654  10.477  18.072  11.932 -0.2680  0.1940  0.1258
20241W        W33655   4.356  10.673   0.357 -0.1113  0.1735 -0.1810
20242W        W33656   3.042  11.192   0.473  0.1599  0.2051  0.1990
20243W        W33657  16.841  13.791   3.111 -0.2960  0.0397 -0.0979
20244W        W33658  16.259  16.619   2.568  0.1816  0.1178 -0.0415
20245W        W33659  15.488  18.194  10.559 -0.0522 -0.1454 -0.3778
20246W        W33660  13.211   4.442   2.447  0.3205  0.2816  0.0358
20247W        W33661  10.848  14.324  14.291  0.0886  0.0260  0.0768
20248W        W33662  12.716   9.126   1.005 -0.1326 -0.2325 -0.0746
20249W        W33663  10.817  15.759   2.555  0.0243 -0.3694 -0.4860
20250W        W33664  10.911   4.459  11.176  0.1434 -0.0721  0.2498
20251W        W33665   2.842  13.167   5.535 -0.2208 -0.3752  0.0122
20252W        W33666   2.686  16.509   0.666 -0.0895 -0.0694  0.1206
20253W        W33667   1.350  10.902  12.678 -0.0744  0.2967  0.2175
20254W        W33668   5.516   2.717  12.737  0.2157 -0.1052 -0.3523
20255W        W33669  11.640   0.716  12.377  0.0729 -0.2024  0.1113
20256W        W33670   7.300   2.995   1.704 -0.0467 -0.0939 -0.2603
20257W        W33671   0.015   8.851   4.429  0.1793  0.1136 -0.2445
20258W        W33672   6.866   9.195   5.424 -0.3151  0.1978 -0.2043
20259W        W33673  17.039   2.718   0.668 -0.0571  0.1090 -0.0828
20260W        W33674  15.774   5.568  12.095  0.3262  0.0984  0.0219
20261W        W33675  17.056   0.082  13.754 -0.0373  0.0914 -0.0028
20262W        W33676  10.210   7.417  11.849 -0.2813  0.1587 -0.0811
20263W        W33677   2.588  11.822   0.002  0.1759  0.1176 -0.1646
20264W        W33678   5.822  14.130  15.573  0.1953  0.0682 -0.0066
20265W        W33679   8.688   6.717  16.482 -0.0044 -0.2843 -0.0739
20266W        W33680   6.794   1.133  15.653  0.1182  0.4111  0.2090
20267W        W33681   3.601  13.917  14.375 -0.0526  0.1701  0.0017
20268W        W33682   6.003   0.381  12.848 -0.2660  0.1963 -0.0795
20269W        W33683   4.609  12.194   0.789 -0.1368 -0.2323 -0.0792
20270W        W33684   9.373  12.892   3.915  0.1845 -0.0553  0.3189
20271W        W33685  13.269   3.062  11.132 -0.1761 -0.0832  0.0392
20272W        W33686  16.967   2.491  16.459  0.1971  0.1314  0.1432
20273W        W33687  13.291   8.127   3.362 -0.0428 -0.2539 -0.1276
20274W        W33688  13.052  13.343   5.693  0.2698  0.1793  0.2356
20275W        W33689   4.059   0.179   3.029 -0.1209  0.3037  0.0845
20276W        W33690  14.045  11.980   0.609 -0.1086  0.1728  0.0553
20277W        W33691  18.185   0.214  14.982  0.2204  0.1122 -0.1437
20278W        W33692  16.147  16.199   3.963  0.2568 -0.0985 -0.0559
20279W        W33693  16.261   4.961  11.380  0.1093  0.0546  0.1307
20280W        W33694  17.967  10.269  14.143 -0.4240 -0.1176  0.1301
20281W        W33695   2.612   9.013   5.251  0.1472 -0.0698 -0.0095
20282W        W33696   6.150   5.012   2.771 -0.1182  0.1463 -0.0871
20283W        W33697  14.105  12.095  14.077 -0.0554 -0.0574  0.2806
20284W        W33698  12.880   8.724   2.894 -0.2112  0.0574  0.0962
20285W        W33699  15.467  16.574   0.525 -0.1608 -0.0507 -0.0221
20286W        W33700  13.811  17.947   4.967  0.2143  0.2213  0.1020
20287W        W33701   5.903   2.892   0.255  0.1669  0.0762  0.2157
20288W        W33702  16.994  15.899   2.066 -0.0867 -0.0411  0.0764
20289W        W33703   0.223   6.362   1.373 -0.0225 -0.1028  0.1305
20290W        W33704   1.742  10.683  14.189 -0.2146 -0.2918  0.2900
20291W        W33705   2.921  13.381  14.316  0.1418  0.0954 -0.3492
20292W        W33706   5.641   2.238  13.418  0.1282 -0.0082  0.0074
20293W        W33707   0.295  13.858   1.773  0.2211  0.0071  0.4618
20294W        W33708  12.867   8.936  13.094  0.1958  0.3546 -0.1110
20295W        W33709   3.994   0.903  15.192 -0.0049  0.1031  0.0480
20296W        W33710   3.832   2.829  12.234 -0.4708  0.1041  0.2428
20297W        W33711   0.073   1.605  11.843  0.0188 -0.2000  0.1856
20298W        W33712   6.892   8.882   0.144 -0.2659  0.2489 -0.0334
20299W        W33713  13.563   7.297   0.873 -0.0954 -0.2018  0.0394
20300W        W33714  16.284   6.328   2.468 -0.0227 -0.0053 -0.0099
20301W        W33715  13.267  17.182  15.048  0.3689 -0.1346 -0.2191
20302W        W33716  11.940  16.653   0.180  0.0626  0.0469  0.0959
20303W        W33717  10.004  16.988  15.925 -0.1315 -0.1097  0.1411
20304W        W33718   7.200  17.180   4.903 -0.3856  0.0067  0.0950
20305W        W33719   1.925   5.622  14.478 -0.1118  0.0022  0.2282
20306W        W33720   9.204   1.016  12.114 -0.0734  0.3056 -0.0833
20307W        W33721   3.715  14.807  11.045 -0.3343 -0.0839 -0.0224
20308W        W33722  16.555   2.295   1.863  0.3517  0.0249 -0.1141
20309W        W33723  10.229   2.007   0.428  0.2786 -0.0205  0.0882
20310W        W33724   1.216   3.761  11.567  0.2613  0.2668  0.2332
20311W        W33725   9.154   9.203   3.494 -0.0218  0.0640 -0.1623
20312W        W33726  11.360   1.442   0.599  0.0228  0.0038 -0.2988
20313W        W33727  15.648  11.911  11.170  0.0240 -0.1039  0.1515
20314W        W33728   0.578   3.714  16.046 -0.0303  0.2932  0.0009
20315W        W33729   1.282   9.103   1.175 -0.0661  0.1533 -0.0164
20316W        W33730   8.033  13.146  14.598  0.0374 -0.2846 -0.0974
20317W        W33731  13.298  17.075  13.122  0.2232  0.0357 -0.0938
20318W        W33732  15.302   4.393  15.383  0.2991 -0.3564  0.0811
20319W        W33733  11.737   6.445  13.974  0.1646 -0.0095 -0.2866
20320W        W33734  15.142  16.326  14.386  0.4641  0.1212  0.0329
20321W        W33735   2.464   6.415  13.791  0.1185 -0.1482  0.2634
20322W        W33736  15.277   3.071   3.640  0.3686  0.1250 -0.0779
20323W        W33737  14.811   4.064  15.524 -0.0258  0.0327  0.2234
20324W        W33738   1.826   3.186  14.570 -0.2449  0.4893  0.0603
20325W        W33739  10.223  14.305   5.784 -0.0958 -0.2336 -0.1889
20326W        W33740  13.774   3.253   2.795  0.0060 -0.2925 -0.2003
20327W        W33741  17.304   7.046   4.674 -0.1588  0.1761 -0.0015
20328W        W33742  16.429  18.068  14.360 -0.2064  0.0344  0.2634
20329W        W33743   6.548   9.170  13.665 -0.1755 -0.1519 -0.2148
20330W        W33744   0.585  15.943   4.166 -0.2567 -0.0535  0.1336
20331W        W33745  17.937  12.958   5.120  0.2348  0.1472  0.1165
20332W        W33746  16.918   3.190  11.121 -0.2480  0.1491 -0.1955
20333W        W33747  17.936   5.255  15.189 -0.0710  0.2384 -0.0213
20334W        W33748  11.469   8.965   3.584  0.1585  0.2073  0.1763
20335W        W33749  14.983  15.077   3.012  0.1033  0.2159  0.1296
20336W        W33750   4.650  12.567  11.970 -0.0460 -0.0469 -0.0171
20337W        W33751   8.041  16.684   0.629 -0.0341  0.3309  0.1360
20338W        W33752   7.125   8.493  13.719 -0.0356 -0.1254 -0.0445
20339W        W33753   2.917  12.493  13.821 -0.0087 -0.0148 -0.0927
20340W        W33754   6.086  14.055   5.529  0.0659 -0.0682 -0.1573
20341W        W33755   3.004   3.798   0.403 -0.1470 -0.1787  0.1359
20342W        W33756  14.540   9.842   4.146 -0.0761  0.0875 -0.1043
20343W        W33757  13.034  12.990  12.059  0.0377 -0.1996 -0.0555
20344W        W33758  10.441  14.223   4.481  0.0195 -0.1741  0.1515
20345W        W33759   7.062   5.022  14.995  0.2498  0.0752 -0.0300
20346W        W33760   7.277  17.763   4.200 -0.1514  0.2072 -0.0901
20347W        W33761  15.673   3.437  12.444  0.3567 -0.0847 -0.1321
20348W        W33762   2.362  17.839  13.183 -0.2300 -0.4820 -0.1121
20349W        W33763   6.971   9.447   2.489  0.4506 -0.0346  0.0099
20350W        W33764  15.595   7.943   5.690 -0.0800  0.0983 -0.1119
20351W        W33765   1.141  16.593   0.630 -0.5104  0.1987 -0.1530
20352W        W33766   7.139   7.807   0.342  0.1753 -0.0707 -0.1223
20353W        W33767   9.915   3.325  13.274  0.2862 -0.2145  0.0123
20354W        W33768   5.810   2.947   3.153  0.0991 -0.0188  0.1369
20355W        W33769   9.777   0.614  11.579 -0.0023 -0.0920 -0.1459
20356W        W33770  16.729   7.960  15.493  0.0049 -0.1687 -0.3758
20357W        W33771  11.781  13.195  16.106 -0.0180 -0.0285  0.0509
20358W        W33772   0.954  15.027   6.284 -0.2947  0.0416 -0.0982
20359W        W33773  13.815   1.728   5.076 -0.2428 -0.0345  0.1138
20360W        W33774  16.193   4.896  13.841  0.0248  0.0359  0.1662
20361W        W33775  15.774  17.764  11.344 -0.0890 -0.0028  0.2264
20362W        W33776  14.298  17.612  12.380  0.2627 -0.1326  0.0013
20363W        W33777   7.876   6.490   0.168 -0.1929 -0.1503  0.2171
20364W        W33778  17.388   3.241   0.473  0.2825  0.0215 -0.1324
20365W        W33779  15.715  11.595   2.171 -0.1751  0.0962 -0.0982
20366W        W33780  13.010   9.669  14.333 -0.2836  0.0220  0.0086
20367W        W33781   7.151   0.923   0.134 -0.0276  0.1337  0.1972
20368W        W33782   3.297   0.684   4.755 -0.0723  0.1250  0.5277
20369W        W33783  12.827  15.140  12.341  0.0120 -0.2820  0.0829
20370W        W33784   6.300  11.075  12.375 -0.0111  0.4058  0.0192
20371W        W33785  11.217   6.639   5.630  0.2426 -0.1811 -0.1194
20372W        W33786  14.759   1.791  15.428 -0.0888 -0.0857  0.0663
20373W        W33787   4.045   1.266  13.818 -0.3036 -0.1109 -0.0981
20374W        W33788  15.820   4.587  11.650 -0.0379 -0.1237  0.0623
20375W        W33789   3.720  16.048  10.923 -0.3674 -0.0806  0.2743
20376W        W33790   8.762   5.077   1.916 -0.2944  0.3032  0.1728
20377W        W33791   3.867  12.981  15.406 -0.0411 -0.1649 -0.1093
20378W        W33792   4.756  10.107  14.862 -0.4014  0.0043 -0.0814
20379W        W33793  16.104  12.580  15.620 -0.1826  0.1436  0.1149
20380W        W33794   9.396  13.121  14.434  0.0123 -0.1412 -0.1077
20381W        W33795   4.992   2.989   1.698 -0.0194  0.2131 -0.0202
20382W        W33796  17.516   3.075  10.771 -0.0675 -0.0900 -0.2737
20383W        W33797   3.842   2.710  14.812 -0.0746 -0.1215 -0.0342
20384W        W33798  16.934   8.210  13.482  0.1789 -0.3466 -0.0135
20385W        W33799  10.048   4.655  14.018 -0.1775 -0.2572 -0.5100
20386W        W33800  15.896  13.810   5.697 -0.0308 -0.4090 -0.3707
20387W        W33801  12.306   6.879   4.947 -0.0532 -0.1526  0.0119
20388W        W33802   7.653   6.796  13.431  0.0379 -0.1581  0.0046
20389W        W33803   1.205  12.361   6.071 -0.3272 -0.1608 -0.3507
20390W        W33804  14.107  10.760  15.158  0.0573 -0.0807 -0.0352
20391W        W33805  10.415   3.296   3.280 -0.0142  0.0851  0.2669
20392W        W33806   1.256   4.543   0.957 -0.0034  0.0622  0.0802
20393W        W33807  11.880  16.127   0.295  0.0812  0.0435 -0.0507
20394W        W33808   0.494   7.923  14.626 -0.1416 -0.0533 -0.0971
20395W        W33809   0.692   1.446   2.179 -0.3234 -0.2366  0.1805
20396W        W33810  15.658  12.421   0.988 -0.1962 -0.1067 -0.1571
20397W        W33811  12.111  14.635  11.295  0.4521 -0.1472 -0.0331
20398W        W33812   6.503  13.985  15.055 -0.0768 -0.0958  0.4287
20399W        W33813  11.580   0.850  10.238  0.0513 -0.2137 -0.4134
20400W        W33814   7.572   8.051   3.076  0.1604  0.0327 -0.0236
20401W        W33815  10.899  16.403  15.257  0.2284 -0.4114  0.1020
20402W        W33816   2.839   2.605   5.664 -0.0486  0.1596 -0.1159
20403W        W33817   7.536   1.227  12.256 -0.1555 -0.1385 -0.1061
20404W        W33818  14.955   6.053   2.829 -0.0113  0.0002 -0.1177
20405W        W33819  10.760  12.522   0.945 -0.1496  0.0107  0.2258
20406W        W33820  16.946  17.662   2.855 -0.1917  0.2053  0.0058
20407W        W33821  16.982   2.428   2.564  0.1123 -0.1485 -0.1333
20408W        W33822   9.830   5.199   4.243 -0.0755  0.3327  0.2216
20409W        W33823   8.946  17.609  10.155  0.1636  0.0829 -0.0951
20410W        W33824  12.229   2.540   1.742  0.1426 -0.1347 -0.0420
20411W        W33825  14.683  11.693   4.183 -0.1377 -0.3760 -0.0638
20412W        W33826  17.604  17.069  15.391  0.0492  0.1773  0.1498
20413W        W33827   9.920  11.191  14.561 -0.0772  0.0544 -0.1236
20414W        W33828   0.720  16.481   5.679  0.0190 -0.0575 -0.2778
20415W        W33829   7.047   3.002   3.498  0.0111  0.2092 -0.2510
20416W        W33830   3.895  18.059   0.556  0.0758  0.3036  0.1850
20417W        W33831  14.140  14.000  13.497 -0.0708 -0.0709  0.4170
20418W        W33832   2.474  16.060   2.165 -0.2485 -0.0265  0.0611
20419W        W33833   7.359   3.509   4.299 -0.1464 -0.0123  0.1671
20420W        W33834   4.458  15.919   4.980  0.3093  0.3571 -0.1889
20421W        W33835   4.589   3.310   6.764  0.0204 -0.1392 -0.1118
20422W        W33836   8.768   9.041  11.707 -0.0088 -0.1603  0.1019
20423W        W33837  16.842   5.525   2.499 -0.0631 -0.0465 -0.0007
20424W        W33838  17.189  13.553  10.425 -0.1967  0.0358  0.3006
20425W        W33839  14.356   2.155  13.928 -0.1570 -0.0852 -0.0725
20426W        W33840  15.561   8.487   1.779  0.0353  0.1741  0.0125
20427W        W33841  11.615   0.745   1.497  0.1020 -0.2186 -0.2102
20428W        W33842  12.111  15.670   4.585  0.0576 -0.0872  0.0024
20429W        W33843  17.173  16.043   4.519 -0.0036  0.2172  0.1978
20430W        W33844  12.040   9.512   2.487 -0.1367  0.0980 -0.0358
20431W        W33845   8.235   0.978   1.674  0.2152  0.0049  0.1752
20432W        W33846  15.349   0.013  12.362 -0.0732  0.1134  0.2863
20433W        W33847  13.392  11.660   4.944  0.0099 -0.2783  0.1708
20434W        W33848   0.296  13.305  16.208 -0.0430 -0.0269 -0.5047
20435W        W33849   4.961  16.736   2.274 -0.0451 -0.1126  0.2454
20436W        W33850  14.435   3.489   4.880 -0.0423  0.1217 -0.0584
20437W        W33851   6.502  17.745  13.100 -0.0338  0.1543 -0.1378
20438W        W33852  10.337  12.665  11.223  0.3007  0.0132 -0.0120
20439W        W33853   1.427   2.718   5.550  0.0440  0.1412 -0.2416
20440W        W33854  18.053  18.166   2.858  0.0621  0.3237  0.2810
20441W        W33855   2.209   6.490   4.917  0.0189 -0.1694 -0.3632
20442W        W33856  14.213  14.451   2.230  0.0643 -0.0405 -0.0095
20443W        W33857   4.902  13.055  11.164  0.0508  0.0511  0.2115
20444W        W33858   9.550   8.217  11.903 -0.3075 -0.1927 -0.2683
20445W        W33859  15.955   3.753  12.735 -0.1083 -0.2220  0.1216
20446W        W33860  11.960   2.787  10.948 -0.2557  0.0402  0.2901
20447W        W33861   6.656  14.260   3.864 -0.0566 -0.0457 -0.3447
20448W        W33862  15.606  14.880  10.986 -0.0239  0.0132 -0.1461
20449W        W33863  11.936  14.126   4.427  0.3535 -0.1333  0.1218
20450W        W33864  10.339   6.675  14.482 -0.3275  0.0053 -0.1496
20451W        W33865   1.330  14.676  12.057  0.2769 -0.1114  0.2211
20452W        W33866   0.644  14.957  14.140  0.1685 -0.3232 -0.0020
20453W        W33867  17.728   3.447  11.856  0.1293  0.2277  0.0373
20454W        W33868  17.924  13.444  13.880  0.0042  0.3876 -0.2300
20455W        W33869  14.863   6.180  12.315  0.1838 -0.2021  0.2012
20456W        W33870  13.352  14.970  10.635 -0.0278 -0.2482 -0.0596
20457W        W33871  13.176   8.617   2.460 -0.1599 -0.0799 -0.2533
20458W        W33872   8.838  16.797  11.103  0.1057  0.1400  0.4544
20459W        W33873   7.989   6.386  13.507 -0.2764 -0.2591 -0.0903
20460W        W33874  13.545   8.396   3.894  0.1401 -0.1228 -0.1133
20461W        W33875  10.171  15.442  11.212  0.2337  0.0471 -0.1400
20462W        W33876   5.403  12.310  13.151 -0.0179 -0.4294  0.1012
20463W        W33877  13.486   8.626  14.603  0.1770 -0.5356  0.0633
20464W        W33878   9.458  11.490   1.517 -0.0622 -0.1007 -0.2017
20465W        W33879   8.172   5.026  13.809  0.2130  0.3366 -0.1583
20466W        W33880  16.861   4.391  10.421 -0.2029  0.0468  0.0324
20467W        W33881  14.325   8.240  15.057 -0.0605 -0.2028  0.2564
20468W        W33882  17.471  16.013  15.446 -0.1394  0.1916 -0.0894
20469W        W33883  18.054   9.439   3.428 -0.4012 -0.1999  0.0894
20470W        W33884   1.944   2.321   0.634 -0.0449 -0.0803  0.0359
20471W        W33885  11.971   8.782   5.731  0.1111 -0.0616 -0.2069
20472W        W33886   9.136   1.316  14.014 -0.2399 -0.2202  0.2848
20473W        W33887   8.829   3.589  13.357 -0.1524 -0.0202  0.1195
20474W        W33888  10.938   0.429   3.207  0.1072 -0.2457  0.0920
20475W        W33889   0.386   7.302  15.889  0.0727 -0.1296  0.1843
20476W        W33890  16.683  11.757  13.423 -0.2392  0.1929  0.0968
20477W        W33891   4.453   7.612  14.437  0.1143  0.1989 -0.2499
20478W        W33892  14.399  13.742   3.729  0.1932  0.2561 -0.0352
20479W        W33893   7.510  16.055  11.006 -0.0342 -0.5595 -0.1195
20480W        W33894   1.910   4.089  14.125  0.0780 -0.1848 -0.1586
20481W        W33895  10.709  13.233   3.583  0.1343  0.3157 -0.1064
20482W        W33896   0.961   6.997   1.244  0.1673 -0.1495  0.0285
20483W        W33897  17.477  11.989  13.474  0.1503  0.0791  0.1019
20484W        W33898   8.969   6.297  14.365 -0.0505 -0.0540  0.2640
20485W        W33899  16.441  17.314  16.492 -0.3207 -0.2214 -0.2648
20486W        W33900  12.396   4.433   2.027  0.0873  0.1550 -0.4837
20487W        W33901   9.076   0.543  12.876  0.0415  0.0770  0.1847
20488W        W33902  11.212   0.967  15.925 -0.2291  0.2052  0.0861
20489W        W33903   2.255  12.122  12.823  0.0818 -0.1776 -0.1565
20490W        W33904   4.188  16.148  11.190 -0.1442  0.0991  0.2703
20491W        W33905  17.079  13.866   6.297 -0.1902 -0.1581  0.0250
20492W        W33906   8.681   9.052   3.762 -0.0119 -0.2085 -0.1971
20493W        W33907  15.721   4.941  16.106  0.1757  0.0670  0.0913
20494W        W33908   4.154   1.400  14.501  0.2091 -0.1561 -0.1755
20495W        W33909  12.891  14.135   1.345  0.1125 -0.1288 -0.2989
20496W        W33910   3.704   5.761  11.500 -0.0377  0.3554  0.0305
20497W        W33911  17.694  13.063  14.270  0.0665 -0.0010  0.0614
20498W        W33912   0.373   7.443   0.237 -0.4561 -0.1875  0.2162
20499W        W33913  16.410   9.357   3.011  0.1708 -0.0707 -0.0118
20500W        W33914   1.774  17.523   1.681 -0.0024 -0.1278 -0.0425
20501W        W33915  12.767  15.619   5.527  0.0397  0.0157  0.0425
20502W        W33916   2.801   1.827   5.062 -0.2855 -0.0759  0.1051
20503W        W33917  15.923  14.466  10.865 -0.0664  0.2853  0.2269
20504W        W33918  12.860   1.667  15.709  0.1759 -0.2789  0.2464
20505W        W33919   2.143  18.044  11.084 -0.2042 -0.0573 -0.1816
20506W        W33920  16.813   0.925   4.151 -0.2346 -0.0626  0.1762
20507W        W33921  16.620  12.236  11.906  0.0883 -0.1117 -0.1138
20508W        W33922   5.424   6.897  11.374  0.1509 -0.0738 -0.3439
20509W        W33923   2.768   7.512  14.644  0.2550 -0.1814  0.0599
20510W        W33924   5.693   8.191   2.502  0.0590 -0.5357 -0.0598
20511W        W33925  15.795   7.229   0.190  0.0518  0.2827 -0.0641
20512W        W33926   4.202   5.015   4.216  0.1513 -0.0135  0.0196
20513W        W33927  14.099  11.790  11.981 -0.3107 -0.1173  0.1842
20514W        W33928   8.246   9.859  14.076 -0.1528  0.1168  0.0486
20515W        W33929  16.878  11.609   1.959 -0.2374  0.1763  0.0072
20516W        W33930   3.195   6.694  13.171 -0.3322  0.0690 -0.0021
20517W        W33931   8.635   0.038  16.235 -0.1547 -0.1947  0.2420
20518W        W33932   2.267   6.265   2.649 -0.0429 -0.1155  0.2210
20519W        W33933   7.082  15.502   0.359 -0.0780 -0.0547 -0.1288
20520W        W33934  14.972  12.989  15.563  0.2418  0.1641  0.1145
20521W        W33935   4.954  15.430   6.010  0.0831  0.2117 -0.0759
20522W        W33936  17.786   8.964  16.100 -0.2474 -0.3118 -0.0753
20523W        W33937   6.892   9.396   3.038  0.3149  0.3154 -0.1464
20524W        W33938   4.306  12.163  15.554 -0.0359 -0.0280  0.3444
20525W        W33939   5.270   3.087  11.063 -0.0855 -0.0903 -0.1319
20526W        W33940  13.069  16.601   4.482 -0.0271  0.0067  0.2034
20527W        W33941  11.809   3.677  12.748 -0.1406 -0.1854 -0.2430
20528W        W33942  17.012   3.226  15.150 -0.0389  0.2377  0.2568
20529W        W33943   8.697  14.608  13.651 -0.0057 -0.1407 -0.2133
20530W        W33944  13.046   7.755   3.059 -0.1205  0.0166 -0.3769
20531W        W33945   6.097  13.374   6.014 -0.2397  0.2495  0.0407
20532W        W33946   5.809  12.197  10.977  0.1251 -0.4113 -0.4316
20533W        W33947  10.810   3.313   2.513 -0.0763  0.0703 -0.0373
20534W        W33948  11.916  16.496   0.705 -0.0640  0.1018 -0.0511
20535W        W33949  14.635  10.676  15.986 -0.1883  0.2754  0.0321
20536W        W33950   3.943  15.602   5.204 -0.0553  0.0405 -0.0855
20537W        W33951  15.443   0.428  11.167 -0.2936 -0.2362  0.0505
20538W        W33952   5.066   9.910   1.760 -0.0756 -0.3261 -0.0931
20539W        W33953   1.896   9.821  14.782 -0.0132  0.0899  0.1132
20540W        W33954  12.746  13.612  15.180  0.1314 -0.1636  0.0067
20541W        W33955   7.824   2.563  12.716 -0.2620  0.0502 -0.2730
20542W        W33956  13.699  15.397  12.751 -0.1184 -0.1263 -0.1634
20543W        W33957   1.937   4.978   1.797  0.0406  0.0983 -0.2847
20544W        W33958   1.161   4.128  11.968 -0.0408 -0.0104  0.3456
20545W        W33959  17.809  15.262   6.414 -0.1703  0.0659  0.3572
20546W        W33960  12.282   6.139  15.907 -0.0243 -0.1316  0.0342
20547W        W33961   4.507   5.740   5.661 -0.0120  0.0379 -0.0128
20548W        W33962  11.051   0.644   0.946  0.0076  0.0539 -0.0783
20549W        W33963  11.912   6.197  12.707 -0.0025 -0.1730  0.2158
20550W        W33964   3.139   1.809   1.993 -0.0662 -0.1998 -0.1564
20551W        W33965   4.598   1.172  14.578 -0.0261 -0.0158 -0.0145
20552W        W33966  16.190   8.791  16.475 -0.0156  0.2176  0.1670
20553W        W33967  12.176   3.981  10.121  0.1174 -0.1987 -0.0959
20554W        W33968  11.642   9.223   2.688 -0.1374  0.0600  0.3776
20555W        W33969  15.133  11.492  11.791  0.1460  0.0239 -0.0918
20556W        W33970   3.536  13.842   5.480  0.0403  0.2227 -0.1346
20557W        W33971   4.857   9.820   2.453 -0.1880  0.2155  0.3695
20558W        W33972  12.509  16.266  14.050 -0.1758 -0.0069  0.3952
20559W        W33973   5.442   5.606  14.288 -0.1680 -0.1748 -0.0351
20560W        W33974  12.284  14.265   2.913  0.0146 -0.1724  0.1096
20561W        W33975   3.031   0.434   2.336 -0.0482 -0.3919  0.0984
20562W        W33976   3.103  18.122  15.388  0.1158  0.0672  0.1530
20563W        W33977   8.175   5.412   0.587  0.0782  0.0126 -0.0134
20564W        W33978   8.196  13.299  15.223 -0.1109 -0.3841 -0.0981
20565W        W33979   8.373   1.553  14.163 -0.0215  0.3168  0.3763
20566W        W33980   8.940   7.659   2.116  0.0725  0.0244  0.0209
20567W        W33981  14.323   8.286  14.155 -0.1930  0.1193  0.2287
20568W        W33982  12.933  14.147   0.289  0.1036  0.0899  0.0316
20569W        W33983  11.017   8.361   6.859 -0.1896 -0.2530 -0.0925
20570W        W33984  12.089   6.628  13.615  0.1084  0.1886  0.2563
20571W        W33985  10.741   4.962   3.977  0.3509 -0.1402  0.1002
20572W        W33986   0.681   4.810  13.845 -0.0124 -0.1782 -0.0254
20573W        W33987   0.839   4.976  11.735 -0.0245 -0.3512 -0.1570
20574W        W33988   7.119   3.504   3.393  0.1270 -0.0950 -0.0801
20575W        W33989  12.318  12.769  13.207  0.0052  0.4241 -0.0820
20576W        W33990  11.929  17.681  10.228 -0.3649 -0.0863 -0.1216
20577W        W33991  17.432  13.775   1.661  0.0970 -0.0214 -0.1295
20578W        W33992  14.544   4.894  10.019  0.0986  0.1143  0.1542
20579W        W33993  13.673   9.826   5.880 -0.0201  0.0510  0.0634
20580W        W33994   7.578   8.975  14.286  0.0345 -0.3185  0.0384
20581W        W33995  17.343   6.496  10.830 -0.2015 -0.1910  0.0348
20582W        W33996  17.087   5.802   6.252 -0.0901 -0.1051 -0.1043
20583W        W33997   9.274   8.372   5.655 -0.0036 -0.1781  0.1776
20584W        W33998  16.019  10.006  14.230 -0.0065  0.0898 -0.0685
20585W        W33999   1.629  14.563   0.534 -0.1266 -0.3538 -0.1081
20586W        W34000  15.838   3.542   4.707  0.0017 -0.1415  0.1455
20587W        W34001   7.522   2.954   2.207 -0.0197  0.1515 -0.0172
20588W        W34002  15.479   4.710  11.177 -0.1234 -0.1384  0.0943
20589W        W34003   7.894   7.640  14.710 -0.2774  0.1080 -0.1199
20590W        W34004   1.690   0.967  12.082  0.2814 -0.2946 -0.2219
20591W        W34005  12.217   4.499  14.876  0.1507  0.0346  0.0392
20592W        W34006  12.587  15.294   2.881  0.0066 -0.4993  0.2117
20593W        W34007   5.041   4.669  11.101  0.0007 -0.0646 -0.3758
20594W        W34008   0.091   2.766   3.749  0.2497 -0.1104  0.2327
20595W        W34009   9.492   9.756   1.924  0.0314 -0.1354 -0.0299
20596W        W34010  12.736  16.251  13.105  0.1026  0.2169  0.0105
20597W        W34011   7.971   9.166  12.770 -0.0090 -0.1382  0.1171
20598W        W34012   8.429  17.484   5.024  0.2002 -0.1126 -0.1042
20599W        W34013  15.342   6.891   5.011 -0.1098  0.2190 -0.0361
20600W        W34014   0.830   9.709  11.844  0.0085 -0.1686  0.0785
20601W        W34015  13.452   5.361   2.658  0.3448 -0.2125 -0.2464
20602W        W34016  15.286   1.896   4.936 -0.1643 -0.0298  0.0097
20603W        W34017   2.518   3.933   3.577  0.2046 -0.0781  0.0851
20604W        W34018  16.409  11.925   5.766  0.3217  0.0257  0.2004
20605W        W34019   0.710  18.006  14.060 -0.2341 -0.4496 -0.2076
20606W        W34020   2.015  10.008   2.683 -0.1714  0.3020  0.1998
20607W        W34021   9.187   0.075   2.144  0.0324 -0.0495  0.0708
20608W        W34022   2.241   7.399   5.702  0.4879  0.2700  0.1007
20609W        W34023   5.418   9.509  14.273 -0.0811 -0.0461  0.2404
20610W        W34024   2.940  12.585  10.615 -0.0363  0.3355  0.0430
20611W        W34025   9.488  17.797  10.173  0.1301  0.2372  0.1815
20612W        W34026   6.645  10.369  14.086  0.3992  0.0501 -0.0172
20613W        W34027  14.555  17.557   0.571 -0.1253  0.1006 -0.1174
20614W        W34028   8.536  13.323  11.704  0.0469 -0.0646  0.2378
20615W        W34029   7.248   7.677  13.475  0.1265 -0.1025 -0.1355
20616W        W34030   0.928  13.386   2.205  0.1855 -0.0331 -0.0319
20617W        W34031  16.988   1.404   4.308 -0.1753  0.4217  0.1523
20618W        W34032  14.332   2.571   1.576 -0.1426  0.0459  0.1056
20619W        W34033  17.709   6.660   3.019  0.0178 -0.1126  0.0559
20620W        W34034  17.221   4.049  11.653  0.1605 -0.2400  0.1000
20621W        W34035   0.521  17.374   3.839 -0.1832  0.1718  0.1487
20622W        W34036  13.482   4.837  16.356  0.0976 -0.0934  0.4559
20623W        W34037   9.715  13.315  11.652 -0.1624  0.0252 -0.0223
20624W        W34038  11.040   2.764  14.505  0.0643  0.1260  0.1134
20625W        W34039  14.036  12.994   4.935 -0.0718 -0.2813 -0.0091
20626W        W34040   5.474   7.033   6.492 -0.0155  0.1491  0.1580
20627W        W34041  17.837  14.792   2.801 -0.0547 -0.0161  0.0662
20628W        W34042   9.860   6.933  13.224  0.4592  0.0163 -0.2562
20629W        W34043  11.669   1.481   2.560  0.3039  0.2898  0.0847
20630W        W34044  15.928  15.431  15.415  0.1334 -0.1723 -0.1128
20631W        W34045   0.577   0.954  13.599  0.0733 -0.0206  0.0031
20632W        W34046  15.912   9.343   3.965 -0.1548  0.1046 -0.0605
20633W        W34047  18.211   9.760   3.774  0.1938 -0.0447  0.1040
20634W        W34048  13.425   9.772   0.016  0.3224  0.0364 -0.0838
20635W        W34049   5.867   4.353   2.306  0.0559 -0.2147  0.2238
20636W        W34050  16.488   8.862   5.447  0.2193  0.1057 -0.1145
20637W        W34051   5.846  10.807  14.971  0.1312 -0.0968 -0.0825
20638W        W34052   3.911  10.612  12.089  0.2571  0.2616 -0.3620
20639W        W34053  17.528   1.487  12.939 -0.2205  0.0273 -0.0039
20640W        W34054  10.139   8.354   5.988  0.1554 -0.1169  0.2365
20641W        W34055   2.406  16.506   3.769 -0.1737  0.1974  0.1000
20642W        W34056   3.257   1.179  15.746 -0.1364  0.1571  0.0019
20643W        W34057  16.694   5.039   5.496  0.3096 -0.0369  0.0142
20644W        W34058   3.140  10.187  11.962  0.1153  0.0792  0.1280
20645W        W34059  18.173  12.507  13.716 -0.1864 -0.2645  0.0305
20646W        W34060  16.363   0.102  16.208 -0.2566  0.0009  0.0546
20647W        W34061  17.429   7.233  14.390  0.1330  0.2878  0.0242
20648W        W34062  14.873   4.547  15.672  0.2538 -0.2746 -0.2734
20649W        W34063   0.764   8.094  11.791 -0.1364  0.0356 -0.1020
20650W        W34064  12.055   9.974   2.295 -0.1324 -0.0933 -0.0106
20651W        W34065  16.443   1.329  12.341 -0.1773  0.0042  0.0630
20652W        W34066   9.649   0.422   2.168  0.1969 -0.1840 -0.0299
20653W        W34067   1.773   9.930  13.187  0.0577 -0.4111  0.0976
20654W        W34068   0.374   6.213  10.341  0.4412  0.0985  0.0047
20655W        W34069   8.150  14.303   6.279 -0.0127  0.2786 -0.1545
20656W        W34070   4.921   3.623   4.719 -0.0296 -0.1293  0.0832
20657W        W34071  12.731  15.946  12.668 -0.2486  0.1159  0.0062
20658W        W34072   2.684  11.187   6.563  0.0025  0.0942 -0.1626
20659W        W34073   2.537  11.659  11.553  0.1835 -0.0299  0.1491
20660W        W34074   6.747  12.370  16.445 -0.0896 -0.2836 -0.0919
20661W        W34075   9.277  11.441  16.345 -0.0439  0.0826 -0.1135
20662W        W34076  13.137  17.363   0.804  0.0494 -0.2264 -0.0667
20663W        W34077  10.354   4.826  10.714 -0.0496  0.1536  0.0002
20664W        W34078   9.224  13.956   1.411 -0.1778 -0.1301  0.1671
20665W        W34079  16.020   5.226  13.410 -0.0194  0.3283 -0.0496
20666W        W34080  17.197   0.322  12.268 -0.0455  0.2386 -0.1185
20667W        W34081  12.700  10.080   3.343  0.2741 -0.2323 -0.1712
20668W        W34082  14.735  16.594   0.905 -0.3300  0.0075 -0.1496
20669W        W34083  14.846  12.537   1.420  0.0061 -0.4538  0.1971
20670W        W34084  15.077  16.376  10.178 -0.3083  0.0067  0.1202
20671W        W34085  11.663  13.115   2.212  0.0785 -0.0576 -0.0025
20672W        W34086   6.603  14.308   1.468 -0.0247  0.0995 -0.3281
20673W        W34087   0.322  13.411   5.282 -0.0081  0.0804  0.1097
20674W        W34088   5.349   2.665   3.150 -0.0398 -0.0306  0.0769
20675W        W34089   6.830  10.899  15.796 -0.0002  0.0283  0.1025
20676W        W34090   7.248   7.208  10.840  0.1292 -0.1914  0.2212
20677W        W34091  17.647  17.509   4.449  0.0509 -0.0694 -0.0304
20678W        W34092   5.340   7.788   1.133 -0.2192 -0.1950 -0.1938
20679W        W34093   3.250  15.522  12.595 -0.0400 -0.0267 -0.1646
20680W        W34094   7.441   6.213  15.907 -0.1581 -0.0026 -0.0595
20681W        W34095   6.925  16.366  11.806 -0.2476 -0.1709 -0.0990
20682W        W34096   3.661   4.874   4.198 -0.1949 -0.0299 -0.1916
20683W        W34097   5.547  16.735  16.082  0.0182  0.3318 -0.1196
20684W        W34098   1.537   5.747   4.644 -0.0249 -0.0691  0.0538
20685W        W34099   4.140  12.478   3.108 -0.0317 -0.1392  0.0298
20686W        W34100   0.355  10.897   1.400 -0.0376 -0.0576 -0.2356
20687W        W34101   2.608  15.527   4.417  0.0218  0.2337  0.2313
20688W        W34102   1.771   8.261   4.473  0.1137  0.0292  0.2442
20689W        W34103  11.542   5.993  16.351 -0.0846 -0.2214  0.2519
20690W        W34104  15.995   0.926  13.166 -0.0798 -0.2636  0.0956
20691W        W34105  12.104  10.981  16.071  0.0953  0.0750 -0.0048
20692W        W34106   8.940   9.487  16.415 -0.0379 -0.1721  0.1586
20693W        W34107   1.858   2.705   0.050  0.0434 -0.0198 -0.0404
20694W        W34108   5.572   4.151  16.194 -0.1109 -0.0117  0.1612
20695W        W34109  17.215  13.704  11.370 -0.2215  0.0509 -0.2220
20696W        W34110  10.537  16.318   0.472 -0.3022  0.0923 -0.1327
20697W        W34111  10.432  17.674  15.468  0.0702 -0.0874 -0.0681
20698W        W34112   5.861   7.164   5.850 -0.1824  0.3456 -0.2766
20699W        W34113  13.334   2.843   3.137  0.2124 -0.0355  0.0056
20700W        W34114   8.438   0.596  14.174  0.1158 -0.1437  0.3941
20701W        W34115   2.381  12.613  13.675 -0.0224 -0.0389  0.0260
20702W        W34116   9.317  15.587   0.916 -0.0056  0.1205  0.1928
20703W        W34117  16.236  17.837   5.632 -0.2092  0.2719 -0.0478
20704W        W34118  15.160   1.140   3.735  0.3472  0.2694  0.0468
20705W        W34119  14.601   3.743  12.609 -0.1005 -0.1206  0.0658
20706W        W34120  18.221  11.249   1.408 -0.0316  0.0524 -0.1560
20707W        W34121   9.245   2.966  12.548 -0.1495  0.1638 -0.2199
20708W        W34122   2.008   0.325  13.515 -0.1748 -0.0355 -0.2354
20709W        W34123   8.908  12.594  11.672  0.1590  0.2144 -0.0113
20710W        W34124  10.030  17.169  13.444 -0.2188 -0.1544  0.1177
20711W        W34125   6.238  15.539   0.859 -0.3368  0.1611  0.1999
20712W        W34126  16.980  14.862   4.973 -0.1628  0.0586 -0.0554
20713W        W34127   7.401  14.054  13.285  0.0671 -0.1804 -0.0132
20714W        W34128  16.862   1.089  13.047  0.1865  0.0757 -0.1538
20715W        W34129   2.106  14.125   0.574 -0.2139 -0.2366  0.2214
20716W        W34130   4.908  12.760   1.071  0.1116  0.3244 -0.1085
20717W        W34131   0.539   5.836  12.189  0.0826 -0.0949  0.2657
20718W        W34132   9.780   5.125   5.578  0.1700  0.0619 -0.1030
20719W        W34133   9.184   9.435   2.048 -0.0468  0.3227 -0.1099
20720W        W34134  17.326   0.369  15.023 -0.2494 -0.0150 -0.1910
20721W        W34135   8.009   1.712   2.260  0.0892 -0.2754  0.0135
20722W        W34136   6.845   9.624   4.222  0.0571  0.0004 -0.0128
20723W        W34137   9.932   9.537   4.945  0.1205 -0.0858 -0.2611
20724W        W34138  13.540   5.911   4.033 -0.0796  0.0095 -0.1737
20725W        W34139   0.963   7.680   1.254  0.0373  0.1211 -0.2278
20726W        W34140   3.955  11.799  14.388  0.0896  0.1347 -0.1241
20727W        W34141  17.412   5.324  16.209 -0.1670 -0.3081 -0.0994
20728W        W34142  16.013   5.338   5.869 -0.0988  0.1708  0.1195
20729W        W34143  18.098   6.444   0.762 -0.1864  0.1246  0.1845
20730W        W34144  11.087  14.112  16.160 -0.1364 -0.0874 -0.0761
20731W        W34145   0.438  15.327  12.308  0.1598 -0.3316 -0.1208
20732W        W34146  16.174  17.947   6.099  0.2681 -0.0456 -0.0017
20733W        W34147  12.756   6.873   2.516  0.1380  0.0039 -0.0947
20734W        W34148   6.348   1.557   3.297  0.0979 -0.1946  0.0362
20735W        W34149  11.018  12.548   2.617  0.3218 -0.0545 -0.0215
20736W        W34150  11.930   9.421  15.275 -0.1594  0.0275  0.0823
20737W        W34151   4.862   4.319  11.354  0.2561 -0.1440  0.0593
20738W        W34152  11.259  15.083   0.402  0.0813 -0.0872 -0.0265
20739W        W34153  11.230  15.019   4.343  0.0396  0.3071 -0.2148
20740W        W34154   9.166  16.473  12.863 -0.1149  0.1449 -0.0685
20741W        W34155  16.337  11.780   4.978 -0.1550  0.2846 -0.0918
20742W        W34156   7.666   0.978  16.490 -0.1100  0.1229 -0.0216
20743W        W34157   3.452   7.066  13.037  0.0821  0.2165 -0.0417
20744W        W34158   9.117  13.893  11.060  0.0295 -0.1560 -0.0594
20745W        W34159   7.213   1.273   2.136 -0.2116  0.3255 -0.0867
20746W        W34160   2.526   4.017   5.982  0.0735 -0.0485  0.0433
20747W        W34161   9.245  13.660  12.791 -0.1471  0.1092 -0.2283
20748W        W34162  11.796  10.801  15.277 -0.0626  0.0057 -0.1166
20749W        W34163   1.535   2.854   4.296 -0.0169 -0.1446  0.0473
20750W        W34164  10.650   6.546  12.335 -0.1215 -0.0273  0.3111
20751W        W34165  14.223   3.687  10.508  0.1902 -0.3691  0.1539
20752W        W34166  10.448   2.931  13.586  0.1126 -0.0205 -0.0047
20753W        W34167   7.876   5.979  13.951  0.2941  0.3003  0.0245
20754W        W34168   0.234  11.894  15.199  0.1884  0.2283 -0.2048
20755W        W34169  11.169  11.357  11.655 -0.0930 -0.3468  0.0175
20756W        W34170  10.158   9.178  15.060 -0.0788 -0.3702  0.1066
20757W        W34171  14.742  14.694   4.719  0.0127  0.0943 -0.1032
20758W        W34172   5.887   2.125   5.007  0.0237  0.0035 -0.2614
20759W        W34173   2.164  17.491  12.891 -0.2657  0.1085  0.0185
20760W        W34174   5.450  15.134   0.139 -0.0038 -0.0721  0.1733
20761W        W34175   4.828   4.020  14.363  0.0705  0.0852  0.0068
20762W        W34176   9.688   2.102  14.432 -0.2036 -0.0417  0.3034
20763W        W34177   0.029  10.384   1.285 -0.1468 -0.1379 -0.2939
20764W        W34178  10.640   6.184   0.109  0.1385  0.1671 -0.2142
20765W        W34179   9.883  13.534   2.929 -0.1843  0.0147  0.2528
20766W        W34180   3.670   4.114  11.712 -0.1032  0.0183  0.0893
20767W        W34181   5.240   4.248  11.822 -0.1633 -0.2549 -0.0371
20768W        W34182   7.571   1.024  11.771  0.0089  0.3006 -0.0941
20769W        W34183  16.517   5.613   1.411  0.0601  0.0597  0.1070
20770W        W34184   5.820   5.898  14.558  0.1674 -0.0311  0.1133
20771W        W34185   2.356  16.172   5.642 -0.1794  0.1341  0.1048
20772W        W34186  15.665   5.730   1.167  0.0657  0.3141  0.2128
20773W        W34187   9.290  10.478   2.534  0.0979 -0.2148 -0.2666
20774W        W34188   5.615  12.397   1.928  0.0236 -0.1318  0.0478
20775W        W34189   3.334   9.980   2.403  0.0036 -0.0629  0.2127
20776W        W34190  15.701  14.648  13.565  0.1816 -0.0926  0.4220
20777W        W34191   0.589   9.707  15.827 -0.0064  0.1455  0.2464
20778W        W34192  12.888  15.099   0.076  0.0395 -0.1743 -0.1095
20779W        W34193  12.473   3.999   0.586  0.0071  0.0558  0.3072
20780W        W34194   2.040  17.800   1.304  0.0146 -0.1294  0.0583
20781W        W34195  11.241  15.733   0.985 -0.2345 -0.0384 -0.0160
20782W        W34196   0.486   9.394  12.149  0.2178  0.0663  0.0330
20783W        W34197  11.250  15.215   1.886 -0.2860 -0.1034 -0.0982
20784W        W34198   0.673  17.149  14.428  0.0427  0.0388 -0.2716
20785W        W34199   2.267   6.048   5.805 -0.0812  0.3681  0.0841
20786W        W34200   7.192   3.266  16.471 -0.2610  0.1051 -0.1816
20787W        W34201   8.816   8.202   5.831  0.0516 -0.0275 -0.0870
20788W        W34202  11.041  12.825   3.341 -0.0049  0.2908 -0.1061
20789W        W34203   5.572  18.083  15.750 -0.1217  0.0557 -0.1169
20790W        W34204  17.385  12.251  13.929 -0.0126 -0.1607  0.1208
20791W        W34205  11.794   9.148  13.591  0.3651 -0.4189 -0.1701
20792W        W34206  14.692  14.677  10.964  0.0195  0.1365  0.0164
20793W        W34207  10.439   8.387   2.630 -0.1937 -0.1108 -0.0813
20794W        W34208   0.616   3.557  12.910 -0.0958 -0.1375 -0.0843
20795W        W34209  11.180   1.456  13.970 -0.1302  0.1575  0.1071
20796W        W34210  17.850  12.347  13.014 -0.2171  0.0059  0.0647
20797W        W34211   5.409  14.715   4.341  0.0958 -0.2847 -0.0680
20798W        W34212   7.466   5.844  16.222 -0.1884 -0.3640 -0.1722
20799W        W34213   7.500   4.737  13.091  0.2374 -0.0438  0.1531
20800W        W34214  10.189   6.778   1.222 -0.1037  0.0312 -0.2490
20801W        W34215  12.638   2.271  13.886  0.0714  0.2779 -0.0439
20802W        W34216   3.136   0.274  12.546 -0.1142 -0.0863 -0.0900
20803W        W34217  13.170  12.715  13.011 -0.0403  0.0304 -0.0499
20804W        W34218  14.575   9.928  15.206  0.1240 -0.1624  0.1954
20805W        W34219  17.293  15.287  16.499 -0.1496 -0.0425  0.4931
20806W        W34220  17.697  13.426   0.279 -0.0126 -0.2901  0.2183
20807W        W34221   3.418   2.710   2.997  0.1421  0.0505  0.0411
20808W        W34222   2.818   9.928   0.527  0.1139 -0.0429 -0.0649
20809W        W34223   0.923   2.369  15.385  0.0569 -0.0818 -0.0356
20810W        W34224   8.941  15.959   0.667  0.1301 -0.0305  0.1257
20811W        W34225  13.039   1.260  14.734  0.0130 -0.1016  0.1962
20812W        W34226   9.505   6.150   3.855 -0.1003 -0.2741 -0.0751
20813W        W34227  11.144   0.011   4.620 -0.3830 -0.0375  0.1089
20814W        W34228  14.422  13.073   0.256 -0.0704  0.0546  0.2487
20815W        W34229  10.362   9.314  11.898  0.1861 -0.1341  0.1485
20816W        W34230  18.034  10.997   0.613  0.1556 -0.0982 -0.0729
20817W        W34231   5.406  11.572  12.520 -0.0184  0.0799 -0.3019
20818W        W34232   7.059  14.742   2.956 -0.0139  0.0777  0.0421
20819W        W34233  12.492   3.521  15.127  0.3564 -0.0266  0.0577
20820W        W34234  14.608  10.311   2.543 -0.0809 -0.2312  0.1163
20821W        W34235  13.597   7.688  15.382  0.4671 -0.2376  0.0902
20822W        W34236  18.138   9.018   5.506 -0.0906  0.3683 -0.2091
20823W        W34237  17.749   5.962   0.021 -0.0930  0.2731  0.2521
20824W        W34238   5.278   5.447   4.964  0.1488 -0.0590 -0.0141
20825W        W34239  17.545  11.564   3.026 -0.0188  0.3730  0.0726
20826W        W34240  11.716  12.800  11.126 -0.1551 -0.2703  0.2523
20827W        W34241   5.516  17.497  13.854 -0.1312  0.1024  0.2130
20828W        W34242  12.091   8.803  13.749  0.2032 -0.2332  0.2407
20829W        W34243   0.248   9.741   3.351 -0.0033 -0.0317  0.2276
20830W        W34244   5.303   3.371   5.554  0.2007 -0.0453  0.0329
20831W        W34245   2.641  16.423  15.986  0.2547 -0.0999 -0.1769
20832W        W34246  12.323   7.673   4.728 -0.1327  0.0158  0.0587
20833W        W34247  12.926  13.401  12.362  0.3701  0.1831  0.0791
20834W        W34248  17.106   6.517   1.407 -0.1840  0.0454 -0.3386
20835W        W34249  10.472   1.892  12.014  0.0567  0.0068 -0.0517
20836W        W34250  14.104   7.643   5.403 -0.0620  0.1165  0.2000
20837W        W34251   7.699  14.298   4.610 -0.0159  0.1148  0.0796
20838W        W34252   4.496  15.739   3.981  0.3050  0.1082  0.0679
20839W        W34253  11.547  13.710  12.350  0.1021 -0.0426 -0.2360
20840W        W34254   0.778  13.875   2.214 -0.1775  0.0731 -0.2856
20841W        W34255   2.506   8.088  12.729 -0.0633  0.0600 -0.1574
20842W        W34256   3.168   5.129   3.196 -0.4040  0.2048  0.1831
20843W        W34257   2.130   9.912  16.068  0.2913  0.2301  0.1354
20844W        W34258   8.668   3.309  14.465 -0.0127  0.0871 -0.2235
20845W        W34259   6.067  17.810  13.605  0.0030  0.0226  0.0507
20846W        W34260  11.548  17.994  10.156  0.2289 -0.5947 -0.2564
20847W        W34261  13.303  14.731  11.020  0.1862  0.1315  0.1162
20848W        W34262   9.507  10.959   6.392 -0.1059 -0.2629 -0.3592
20849W        W34263  16.663   3.844   0.517  0.2704 -0.1917 -0.1109
20850W        W34264  17.870   1.847   1.506 -0.2343 -0.1956  0.2166
20851W        W34265  16.529   6.867   0.735 -0.1408  0.1748  0.0019
20852W        W34266   3.492  11.717   2.741  0.1582  0.0283  0.1805
20853W        W34267   0.025   0.683  14.286 -0.1963  0.3411  0.0234
20854W        W34268   6.513  16.089  14.020  0.4365 -0.0251 -0.1005
20855W        W34269  12.432   3.037  15.436 -0.1507  0.1516  0.0434
20856W        W34270   1.096  16.873   3.778 -0.2618  0.2491 -0.0060
20857W        W34271   2.113  13.089   4.133 -0.0062 -0.0597  0.1165
20858W        W34272  12.021  11.811   4.761  0.0771  0.0740 -0.1310
20859W        W34273   1.855   2.762   4.682 -0.0324 -0.1899  0.1007
20860W        W34274  10.601  16.272  13.231 -0.1182  0.0128  0.0229
20861W        W34275   5.690   2.621  15.083  0.0742  0.0194 -0.3217
20862W        W34276   2.519   5.539   3.836  0.2940  0.3112  0.0071
20863W        W34277   4.996   2.125   3.967  0.0989 -0.1044  0.4313
20864W        W34278  12.523  13.479  14.705 -0.2093  0.2501  0.1142
20865W        W34279  17.357   1.124   1.466 -0.2156  0.0594  0.0453
20866W        W34280   8.316   9.032  10.298 -0.0677 -0.0164  0.1094
20867W        W34281   5.874  15.493   3.631 -0.0166 -0.0934  0.1843
20868W        W34282  11.172   9.472  14.765 -0.1854 -0.1153  0.1799
20869W        W34283  15.747   6.100  12.249 -0.2004 -0.2941  0.0887
20870W        W34284  11.315  14.575   2.091 -0.0355  0.1065 -0.2109
20871W        W34285   0.943  13.709  11.347  0.0039  0.1057  0.2794
20872W        W34286  13.877  14.971  16.390  0.0494  0.0254  0.0754
20873W        W34287  17.526  16.958   3.053  0.0588  0.3337  0.3844
20874W        W34288   1.454   5.259  13.238 -0.0156  0.0762 -0.1951
20875W        W34289   2.854   0.851   2.022  0.0384  0.0488  0.0854
20876W        W34290   8.368   3.236  16.213 -0.0165 -0.0003  0.2727
20877W        W34291   0.772   2.056   5.692  0.0711  0.1090  0.0755
20878W        W34292  15.766  11.020  15.692 -0.0465 -0.2021  0.2134
20879W        W34293  13.338   5.535   0.490  0.2217 -0.0606  0.0169
20880W        W34294   8.688  13.434  15.296 -0.2354  0.1409 -0.1112
20881W        W34295  11.991  12.476   0.010 -0.1655 -0.0018  0.1227
20882W        W34296  17.152  10.352   1.712 -0.2120 -0.1246  0.1104
20883W        W34297  13.774  11.657   6.735  0.1441  0.1620 -0.1043
20884W        W34298   5.721   6.659  10.617 -0.0201 -0.1064  0.0196
20885W        W34299   2.466  16.995  12.147 -0.0577 -0.0533  0.1248
20886W        W34300   2.215  15.701  13.532  0.1048  0.0026 -0.0881
20887W        W34301   9.577  15.376   5.544 -0.0383 -0.1170  0.1026
20888W        W34302   0.372   9.769  14.894  0.1892  0.0164 -0.2267
20889W        W34303  10.735  15.882   1.089  0.1287  0.2356 -0.1406
20890W        W34304   2.838   7.136  13.188 -0.0225  0.2010  0.3182
20891W        W34305  10.442   6.131   0.574  0.2509 -0.1377 -0.3657
20892W        W34306   5.800   8.799  15.425  0.2377  0.1211  0.2065
20893W        W34307  11.275  13.012  15.986  0.0678 -0.0634 -0.2730
20894W        W34308  14.957  16.027   0.235  0.5344  0.2723  0.3045
20895W        W34309   3.295  16.377  14.522 -0.2326 -0.0568  0.1010
20896W        W34310   7.514   6.535  10.530 -0.0536 -0.0181 -0.2956
20897W        W34311  15.128   9.653  12.736 -0.2528  0.0369 -0.1137
20898W        W34312   0.090  13.733  14.173 -0.0921 -0.1174  0.1751
20899W        W34313  11.778  11.104   1.873  0.1578 -0.1117  0.1317
20900W        W34314  12.149  15.716   3.533 -0.1626  0.0132 -0.1059
20901W        W34315  13.466  11.362  14.937 -0.0250  0.1150 -0.0442
20902W        W34316  17.543  15.763  14.970  0.0312  0.0830  0.0778
20903W        W34317   9.298   1.702   1.978 -0.1027  0.0840 -0.0550
20904W        W34318  12.265   8.836  11.781  0.0509  0.0179  0.0740
20905W        W34319  15.679  11.976   5.245 -0.0426 -0.0682  0.3151
20906W        W34320  14.982   9.524   3.741 -0.0588  0.2828  0.0085
20907W        W34321   0.921   3.317  12.477 -0.1388 -0.1509 -0.0244
20908W        W34322  16.387   3.366   0.572  0.2785  0.0288 -0.1674
20909W        W34323   6.096   0.488  15.202  0.0152  0.1770  0.2149
20910W        W34324  16.078  15.826  15.133  0.0440 -0.2786  0.2240
20911W        W34325  16.387  11.882   3.720 -0.2412 -0.3192  0.2741
20912W        W34326   4.480  12.546   5.687 -0.0343  0.1003  0.0593
20913W        W34327   7.419  14.462  14.261  0.1394  0.1069  0.0562
20914W        W34328   1.975  14.427  12.102 -0.0322  0.0536 -0.2132
20915W        W34329   2.774  12.182  14.399  0.0361 -0.2234  0.2962
20916W        W34330  14.954   8.232   4.510 -0.1236  0.1421  0.0636
20917W        W34331   4.431   1.686   1.329 -0.2506  0.0767  0.1222
20918W        W34332   6.018  17.798   4.779 -0.3111 -0.1052 -0.0353
20919W        W34333   0.662   3.051  12.101  0.1669 -0.0333  0.1159
20920W        W34334  11.214   2.503  14.089  0.4496  0.0910  0.0421
20921W        W34335   4.164  14.911  11.283  0.0737 -0.0103 -0.1262
20922W        W34336  13.722   3.409  15.027  0.1954 -0.0212  0.0782
20923W        W34337   8.313   1.113  13.129 -0.1705  0.1449 -0.1412
20924W        W34338  17.210   4.514   3.213 -0.1004  0.0695 -0.1585
20925W        W34339  11.844  17.529  12.266  0.1205  0.0583 -0.1048
20926W        W34340  17.531  13.356  13.481  0.2247 -0.1857 -0.1967
20927W        W34341   2.822   7.666  13.030  0.1089 -0.1707 -0.0485
20928W        W34342  17.095  11.114   4.742 -0.1456 -0.1197  0.0819
20929W        W34343   2.517  17.349   6.296 -0.0290 -0.0641 -0.2980
20930W        W34344   7.889   1.977   1.004 -0.3429  0.1608  0.1579
20931W        W34345  11.148   5.517  12.107  0.1989  0.0654  0.0114
20932W        W34346   6.664  14.226   0.428  0.0961  0.2542 -0.0859
20933W        W34347   8.982  12.378  10.839 -0.0822 -0.2864  0.5907
20934W        W34348   7.822   2.407   4.478 -0.1583  0.0743 -0.0267
20935W        W34349  13.798   3.819  15.328 -0.0879  0.0709  0.0108
20936W        W34350   2.976   8.686  13.063  0.1459  0.1573  0.4128
20937W        W34351  14.106  13.977  12.985  0.0137  0.0037 -0.0728
20938W        W34352  11.340  10.502   4.965 -0.2092  0.0626  0.0933
20939W        W34353   7.877   9.955   3.862  0.1047 -0.2312  0.0601
20940W        W34354   4.342  10.713   1.251  0.1060 -0.2728 -0.0501
20941W        W34355  13.017  12.500  11.954 -0.0301  0.0680  0.0362
20942W        W34356  11.776   6.264   4.503 -0.0891 -0.0196 -0.3506
20943W        W34357   7.078   2.443  11.650 -0.1675 -0.0006 -0.0807
20944W        W34358  10.183  17.606   1.189  0.0712 -0.1037  0.1197
20945W        W34359   1.267   9.736  10.770 -0.1657  0.0473 -0.1545
20946W        W34360   2.481   5.784  11.042 -0.2565 -0.3835  0.3104
20947W        W34361   2.439   3.080   1.452  0.1451 -0.0127 -0.1244
20948W        W34362   4.369   1.177   3.990  0.1493  0.2135 -0.0645
20949W        W34363   2.269  15.832  15.076  0.0412  0.1009 -0.2399
20950W        W34364  13.058  13.029   0.420  0.2166 -0.0387 -0.0444
20951W        W34365  13.008  12.093   3.823  0.0841 -0.1596 -0.0143
20952W        W34366   6.222  16.605  14.961 -0.0976 -0.0009 -0.2292
20953W        W34367   6.952  15.878   5.667  0.0274 -0.2075 -0.2791
20954W        W34368   4.705   5.731  12.206  0.0365  0.0195 -0.0235
20955W        W34369   2.584   1.518   4.711 -0.1921  0.0199  0.2097
20956W        W34370   5.663   9.149  12.359 -0.0662  0.0681  0.0066
20957W        W34371  12.186   9.053  15.780  0.0856 -0.0639 -0.0051
20958W        W34372   3.361   8.692   2.979  0.0778 -0.0614  0.0019
20959W        W34373  14.105  10.249   3.309 -0.1458  0.1468 -0.0557
20960W        W34374   8.166  15.067   4.504 -0.1063  0.2146  0.0798
20961W        W34375   1.798   7.650   1.386  0.2122 -0.0576  0.2934
20962W        W34376   5.501  13.409  12.468  0.2282  0.0441  0.1325
20963W        W34377   1.888   6.855  15.367  0.0924  0.1899  0.0326
20964W        W34378  15.224  17.734  16.025 -0.0358  0.1326 -0.2596
20965W        W34379   2.471   7.213   2.067 -0.0362  0.0099  0.0844
20966W        W34380   3.902  17.241  12.092 -0.3153  0.1248  0.2393
20967W        W34381  15.862  13.284  14.073 -0.1217 -0.2633 -0.3504
20968W        W34382  10.830   7.999  15.599 -0.1177 -0.0889  0.1494
20969W        W34383   6.662   3.504  12.490  0.4208 -0.0005 -0.0313
20970W        W34384   5.414   6.419   1.339  0.2083  0.0205 -0.0719
20971W        W34385  11.491   6.048  14.324  0.1479  0.0615  0.0296
20972W        W34386  14.139   2.517   1.106 -0.2009  0.2866  0.1070
20973W        W34387   9.426  13.691  11.910  0.3767  0.2239  0.4670
20974W        W34388   7.315   5.793   1.744  0.1399 -0.1094  0.0797
20975W        W34389  15.977  17.614   3.200 -0.4518  0.1024  0.1383
20976W        W34390   3.860  10.318  16.199  0.1692 -0.0495  0.2650
20977W        W34391   8.752   5.126  12.606  0.2599  0.0743 -0.0091
20978W        W34392   3.080   5.761   1.619 -0.2734  0.2149  0.0707
20979W        W34393   4.103  11.000   5.525  0.1550  0.0880 -0.1247
20980W        W34394   6.191   9.882   4.690 -0.0100  0.0990  0.1997
20981W        W34395   0.241  10.263  15.321 -0.0077 -0.1168 -0.1047
20982W        W34396  13.899  15.952   9.884  0.1091 -0.0847 -0.1185
20983W        W34397  14.494   7.298  15.060  0.0304  0.0012 -0.0101
20984W        W34398   2.000   8.136   3.895  0.0455 -0.0142 -0.2359
20985W        W34399   9.754   2.028  12.879 -0.2379 -0.0783 -0.1293
20986W        W34400   4.030   2.300  15.066 -0.0263  0.0268  0.1804
20987W        W34401   9.019   5.593  14.896  0.0977 -0.2008  0.2330
20988W        W34402   8.815  12.237   5.121 -0.0384 -0.2105  0.3632
20989W        W34403   9.923   5.300  15.776 -0.1632  0.2111  0.0651
20990W        W34404   2.684   3.854   6.438  0.1613 -0.2146 -0.1385
20991W        W34405   3.733   8.244  15.016 -0.2692  0.0191 -0.0193
20992W        W34406  17.683   7.013  12.243 -0.0293  0.1912  0.3322
20993W        W34407  17.940  17.896  12.359 -0.2450 -0.4751  0.1477
20994W        W34408   1.372  11.856   3.939 -0.0741 -0.0044  0.2060
20995W        W34409  16.627  15.176   6.036  0.0845 -0.2492 -0.0576
20996W        W34410  15.577   9.239   2.723  0.1965 -0.1730  0.0225
20997W        W34411  15.647   2.316   3.852 -0.1492  0.0643  0.1751
20998W        W34412  16.743  12.275   0.209 -0.1382 -0.0993 -0.1274
20999W        W34413   5.757   7.539   5.583 -0.3138  0.0392  0.0738
21000W        W34414   6.279  16.853   0.307 -0.4353  0.1074  0.0727
21001W        W34415   3.536  11.880   0.999  0.0506 -0.0374  0.1013
21002W        W34416  17.496   7.314   5.559 -0.0143  0.0527 -0.0412
21003W        W34417   6.648   7.387   3.338  0.0044  0.1023 -0.4380
21004W        W34418   3.028   8.880   2.521 -0.2628 -0.2269 -0.3198
21005W        W34419  16.090  11.294   1.874 -0.3794  0.0012 -0.0467
21006W        W34420   8.836   5.310  13.151 -0.0706 -0.0810  0.0079
21007W        W34421   9.345  13.471   2.047 -0.1005  0.0625 -0.0206
21008W        W34422  15.917   9.080   6.065 -0.1518 -0.1424 -0.2496
21009W        W34423  17.540  14.433  14.652 -0.0597 -0.4704 -0.1285
21010W        W34424  16.421   5.164  15.299 -0.1075 -0.0767  0.0516
21011W        W34425   1.008   2.333   2.657  0.1738 -0.0308 -0.0859
21012W        W34426   1.189  13.250   4.187  0.2894  0.0616  0.2425
21013W        W34427  14.890  15.179   4.836  0.2999 -0.3780  0.1070
21014W        W34428  17.529  18.137   1.193  0.0314 -0.1132  0.0093
21015W        W34429  17.691   1.348  11.724  0.1995 -0.0040 -0.0655
21016W        W34430   3.600   9.922  11.182  0.0526  0.0495  0.2205
21017W        W34431  14.481   9.564  11.875 -0.1010 -0.0995 -0.0859
21018W        W34432   6.996  13.700   4.487 -0.2052  0.1981  0.2115
21019W        W34433   4.149  13.836   4.419 -0.0186 -0.0015  0.0631
21020W        W34434   5.229   7.105  12.617 -0.0072  0.1091  0.4779
21021W        W34435  10.868  10.852  11.700  0.0898  0.1404  0.2384
21022W        W34436  12.656   3.406  16.241 -0.1244 -0.1451 -0.0651
21023W        W34437   4.602  15.299   2.008 -0.2705  0.0729  0.1444
21024W        W34438  17.637   4.358   2.907  0.0497 -0.4034  0.1112
21025W        W34439   9.242   9.101  16.231 -0.1656 -0.1023  0.2381
21026W        W34440   1.987  14.686   4.384 -0.0401 -0.0585 -0.0787
21027W        W34441  17.390   5.739   2.606 -0.2177  0.4524 -0.2342
21028W        W34442   5.082  12.510   1.975  0.3814 -0.3003 -0.1244
21029W        W34443  14.430   0.062   3.648 -0.1475  0.0298 -0.1486
21030W        W34444   0.756  15.220  13.236 -0.4293  0.2241 -0.3168
21031W        W34445  17.992   9.527  15.374 -0.0624  0.1305  0.1972
21032W        W34446   9.386  16.042  10.467 -0.0792  0.0041  0.0146
21033W        W34447   1.588   1.813  16.421  0.1403 -0.0007  0.3926
21034W        W34448  12.568   6.538   2.802  0.2059  0.1420 -0.3475
21035W        W34449   9.472  17.959  11.499  0.0106 -0.0487 -0.0595
21036W        W34450   7.597   9.134  15.832 -0.1759 -0.3148 -0.0406
21037W        W34451   6.254   9.611  14.744  0.1319 -0.1853 -0.0513
21038W        W34452   7.049   3.321  15.792 -0.0199  0.1263  0.2749
21039W        W34453   5.015  14.434  10.381 -0.0405  0.1804  0.1719
21040W        W34454  13.243   7.254  13.668 -0.3771  0.0143  0.0195
21041W        W34455   2.178  14.368   3.335  0.0299  0.0937  0.1529
21042W        W34456  17.657  15.788  10.909 -0.0460  0.1315  0.2392
21043W        W34457   1.383  17.771  12.478 -0.0759  0.1481 -0.1380
21044W        W34458  10.976  12.790   1.613  0.2070  0.2073  0.0415
21045W        W34459   5.036   1.311   4.662 -0.0024 -0.0770 -0.0202
21046W        W34460  15.499  12.326  15.789  0.1380  0.2006 -0.3145
21047W        W34461   4.335   4.038  15.539 -0.1062  0.0200 -0.0494
21048W        W34462   7.667   1.062   3.404  0.0386 -0.0293 -0.0609
21049W        W34463   4.656   2.918   2.109 -0.1422  0.0724 -0.0244
21050W        W34464   8.466   3.301   1.969 -0.2099  0.1969 -0.2727
21051W        W34465   1.779   8.314  14.441  0.1181 -0.2185  0.3045
21052W        W34466  13.838   6.168   3.465  0.0901  0.0830  0.1357
21053W        W34467  14.393  12.006   1.483 -0.0942 -0.1393 -0.1741
21054W        W34468  12.892   1.743   2.352  0.0790 -0.1350 -0.1380
21055W        W34469   9.583   4.902   1.575  0.1613 -0.2085  0.0673
21056W        W34470  12.747  14.133  16.277 -0.2581 -0.1010 -0.2342
21057W        W34471  10.585   4.523   2.927 -0.1298 -0.2415  0.0944
21058W        W34472  17.221  14.105   1.276 -0.2197  0.2313 -0.1135
21059W        W34473   5.402   5.371   0.299  0.1427  0.0343  0.0926
21060W        W34474  12.784  16.696  11.145 -0.1905  0.5361 -0.2311
21061W        W34475   4.936   8.779   2.272 -0.3873  0.1973  0.0268
21062W        W34476   3.466  16.633   2.042 -0.2272 -0.0065 -0.2213
21063W        W34477  15.393  17.846  12.773  0.0989  0.0372  0.0514
21064W        W34478  13.343   9.968   4.000 -0.1343 -0.0946  0.0538
21065W        W34479  14.742  15.556   2.340  0.1215 -0.0556 -0.3806
21066W        W34480   8.239   8.083   3.065 -0.1484 -0.3172  0.0700
21067W        W34481  16.361   8.486  11.222  0.0347 -0.0488 -0.1443
21068W        W34482  16.036  12.642   3.134  0.2166  0.0675  0.3511
21069W        W34483  12.587   1.320   0.405 -0.0832  0.0234  0.2234
21070W        W34484   0.295  14.083   2.681  0.4185  0.3750  0.1694
21071W        W34485   4.306  13.953   0.474 -0.2564  0.2081  0.2685
21072W        W34486   6.357  10.492   1.111  0.0341 -0.1914  0.1260
21073W        W34487  11.376  16.825  12.253 -0.1552  0.1228 -0.5027
21074W        W34488   8.339   1.463  12.138 -0.0678 -0.0515  0.1540
21075W        W34489   3.521   9.185  13.930 -0.0239  0.1085 -0.1422
21076W        W34490   4.769   6.915   0.764  0.1553  0.0814  0.1430
21077W        W34491   5.004   3.522   5.943 -0.0959 -0.1247 -0.0292
21078W        W34492   3.577   1.268   5.663  0.2109  0.0054  0.1646
21079W        W34493  14.348  13.516  12.842 -0.2274  0.1603  0.0478
21080W        W34494  10.028   2.244  11.867 -0.1454  0.0094  0.1343
21081W        W34495   8.430  12.463  15.447  0.0300 -0.0471 -0.1367
21082W        W34496   8.715   9.177   5.479 -0.0246  0.0422 -0.1602
21083W        W34497   3.647   0.093   2.261 -0.3658  0.0835 -0.0423
21084W        W34498   5.921   9.486   4.992 -0.3208  0.1082 -0.3314
21085W        W34499  11.698   1.368  14.845  0.1556 -0.1959  0.0568
21086W        W34500   0.744  13.084   5.167  0.0687  0.0262  0.3055
21087W        W34501   9.005  16.260  13.421  0.2036 -0.2119 -0.3009
21088W        W34502  14.950  15.373  10.348  0.3485  0.0701  0.1782
21089W        W34503  13.510  13.806  13.958 -0.3017 -0.0194 -0.2244
21090W        W34504   4.209  14.095  11.539 -0.1120 -0.2742 -0.1453
21091W        W34505   6.520   5.044  10.149  0.0065  0.0109 -0.3671
21092W        W34506  14.454   6.815  15.114 -0.2287 -0.0982  0.0653
21093W        W34507   9.563  10.135  15.236  0.1053  0.1940 -0.0537
21094W        W34508   7.285  17.104  12.555  0.0192  0.2417  0.0490
21095W        W34509   4.268  11.763   2.006 -0.0424 -0.3565  0.0079
21096W        W34510  14.981   1.905  13.224 -0.0527  0.2501  0.3932
21097W        W34511   1.732  11.432   0.436  0.0531 -0.0528 -0.3072
21098W        W34512  13.201  13.980  10.652  0.1453 -0.2924 -0.0805
21099W        W34513  16.352   3.230  11.044  0.1517 -0.0821 -0.2384
21100W        W34514   7.537  17.310  15.472  0.0696 -0.0244  0.0052
21101W        W34515  17.910   0.386   5.004 -0.2697  0.0644 -0.1301
21102W        W34516   4.522  12.766  14.752  0.1596  0.0174 -0.0288
21103W        W34517  13.105   7.165  12.727  0.0349 -0.1765  0.3065
21104W        W34518  12.590  11.038  11.540 -0.1360 -0.2087 -0.3464
21105W        W34519  13.298   5.773   1.281 -0.0967 -0.1537  0.2837
21106W        W34520   9.411  15.589   2.782  0.0923  0.0150  0.1787
21107W        W34521   5.613  14.453  12.451 -0.1154  0.0676  0.3186
21108W        W34522   1.110   2.164   1.183 -0.1239 -0.0519  0.0062
21109W        W34523   8.369  12.480   4.773 -0.1588  0.1481 -0.0476
21110W        W34524   8.780   0.981  11.201  0.2138  0.2531  0.0556
21111W        W34525  13.514   6.143   2.320  0.0810 -0.1358  0.1079
21112W        W34526  10.988   8.425   0.135 -0.2178  0.2252 -0.1747
21113W        W34527  13.995   9.237   1.803  0.0563  0.0824 -0.2794
21114W        W34528  14.409   9.499   4.995 -0.3696  0.0868 -0.2781
21115W        W34529  18.161  10.325  11.015  0.0389  0.0508 -0.0155
21116W        W34530   2.096  11.685   2.305  0.2797 -0.1638  0.1606
21117W        W34531   4.194  17.904   1.548 -0.0149  0.0847 -0.0202
21118W        W34532   4.261  17.002   1.764  0.1051 -0.4685  0.1053
21119W        W34533  15.426  10.664  16.502  0.0296 -0.3031  0.1522
21120W        W34534   3.537   1.236   1.489 -0.1169 -0.0932 -0.0135
21121W        W34535   5.213   7.578  12.961 -0.1002  0.1154  0.1560
21122W        W34536   7.891  12.027  13.271  0.0188  0.0988  0.2529
21123W        W34537   6.735   8.835  13.955  0.4842 -0.1784 -0.5642
21124W        W34538  15.193  17.008  14.636 -0.1568  0.2495 -0.1763
21125W        W34539   7.598  14.366   0.158  0.0861 -0.0475  0.0614
21126W        W34540   5.501   0.759  16.297  0.2589  0.2533 -0.1541
21127W        W34541   6.855  14.492   3.404 -0.0315  0.0674  0.3738
21128W        W34542   3.916  16.538   1.299 -0.1939  0.3430  0.1615
21129W        W34543  14.012  12.451  12.013 -0.1802 -0.1396  0.2042
21130W        W34544   5.030   5.673   2.879  0.2074 -0.2693 -0.0655
21131W        W34545   5.305  13.023   4.618 -0.0245 -0.1864  0.1681
21132W        W34546  12.595  16.737   3.909 -0.1013 -0.1039 -0.3653
21133W        W34547  14.898   5.882   0.572  0.1115 -0.1673  0.0874
21134W        W34548  16.496   2.153   5.784 -0.2060  0.1150  0.0715
21135W        W34549   1.691  18.000   0.494  0.2065 -0.0413 -0.1817
21136W        W34550   5.262  14.116   1.486 -0.1100 -0.0141  0.2616
21137W        W34551   3.025  18.015   5.603  0.1876 -0.0582  0.2258
21138W        W34552  12.788   9.581   4.718  0.3403 -0.0038 -0.0939
21139W        W34553   8.014   9.161  12.049  0.0094 -0.2225 -0.0006
21140W        W34554   0.230   1.274   6.053  0.1812 -0.0365 -0.1253
21141W        W34555   4.327   2.186  11.276 -0.1174 -0.0892 -0.0831
21142W        W34556   7.719  12.381  15.756  0.0788  0.0796 -0.3031
21143W        W34557  17.266  14.101  15.043  0.2599  0.1541 -0.0124
21144W        W34558  14.396   1.795  10.591 -0.0201  0.0032  0.0453
21145W        W34559   1.425  13.478   0.296  0.0001 -0.2022  0.1173
21146W        W34560  11.846   0.578   5.054  0.1466  0.1334 -0.0538
21147W        W34561   0.729  17.312  11.510  0.0366 -0.0859  0.0155
21148W        W34562   8.393  12.076   0.789  0.0102  0.2145  0.0121
21149W        W34563  10.427  17.439   3.397 -0.1203 -0.1429  0.0893
21150W        W34564  17.278   6.532   3.855 -0.1129  0.1406 -0.0809
21151W        W34565  16.518  16.305   4.329 -0.0678 -0.0164  0.0441
21152W        W34566  13.712  15.375  11.697 -0.0616 -0.1036 -0.3807
21153W        W34567  15.538  13.801   1.758  0.0940  0.0788 -0.1979
21154W        W34568   2.230   3.676   3.937  0.0831 -0.0714  0.2638
21155W        W34569   6.603  12.162  14.797  0.1769  0.0146 -0.3513
21156W        W34570   7.354  16.558   2.282  0.1764  0.0453  0.1709
21157W        W34571  13.957   7.365   2.098 -0.0245  0.0354 -0.0723
21158W        W34572   4.954   1.884  15.717  0.0900  0.2364 -0.4471
21159W        W34573  15.935  15.830  11.970  0.0630 -0.1255 -0.1438
21160W        W34574   4.863   9.508   2.854  0.1703 -0.0520  0.1536
21161W        W34575   2.776  15.892  16.328 -0.1007 -0.0730  0.2186
21162W        W34576   4.487  15.964  13.102 -0.1866  0.0813  0.2627
21163W        W34577  13.900   6.340  14.714 -0.2840  0.2376 -0.0473
21164W        W34578  13.240   2.892   1.042 -0.1155 -0.0490  0.1078
21165W        W34579   7.985  15.756  14.118 -0.0078  0.1796  0.0674
21166W        W34580   9.002   5.363   4.895  0.0511 -0.1770  0.1099
21167W        W34581  17.033   0.358   1.047  0.0984  0.0251  0.3455
21168W        W34582  15.027  17.041  13.271 -0.1398 -0.2562 -0.0597
21169W        W34583   6.237   7.898  16.267 -0.0023  0.0638 -0.1800
21170W        W34584   9.724  12.428  16.373  0.1915 -0.0698 -0.4605
21171W        W34585  16.222  11.187  11.580  0.0382  0.1404 -0.2896
21172W        W34586   7.838  15.870   3.839  0.0867  0.1560 -0.3534
21173W        W34587   9.785   0.942   1.006 -0.1395  0.1239 -0.0397
21174W        W34588   3.480   9.418   4.235  0.1824 -0.1882 -0.0682
21175W        W34589  10.454   4.598  11.320  0.0187  0.1611 -0.1102
21176W        W34590  15.618   4.632   3.056 -0.1109  0.1093 -0.0974
21177W        W34591   5.696   8.885   3.240 -0.1884  0.0630 -0.1390
21178W        W34592  17.446  13.943  12.087  0.0256  0.0230  0.0304
21179W        W34593  10.136  11.583  11.772  0.0497 -0.0034  0.0653
21180W        W34594  11.947  17.600   0.674  0.2487 -0.2470  0.1074
21181W        W34595   2.903   4.535  15.324 -0.4085 -0.1499 -0.2602
21182W        W34596   8.397   1.051  12.592 -0.2602 -0.0027  0.2158
21183W        W34597  16.763   5.753  16.454  0.1569 -0.0788  0.1864
21184W        W34598   2.342   8.063  15.143  0.4718  0.3021  0.1075
21185W        W34599   8.969   6.919  14.368  0.0758 -0.0540 -0.3323
21186W        W34600   2.553   7.231   2.571 -0.1363 -0.0421  0.4486
21187W        W34601  15.320   8.826   2.573 -0.2103  0.0343  0.0166
21188W        W34602   5.181  11.850  13.406  0.1980  0.0415  0.1878
21189W        W34603   7.348  14.059  12.779  0.2798  0.0650  0.0969
21190W        W34604   8.480  11.291  13.608  0.0604  0.2607 -0.2589
21191W        W34605   1.756  18.088  13.368  0.0619  0.0185 -0.3077
21192W        W34606   9.447  16.665   2.261  0.3556  0.1024  0.1251
21193W        W34607  13.509   9.285   5.710 -0.0481  0.0164 -0.2017
21194W        W34608  10.679   0.846   1.142  0.1631  0.2184 -0.0981
21195W        W34609  15.920  12.575  11.094  0.2086  0.0376  0.2618
21196W        W34610   7.974  13.593  14.395 -0.2073  0.0399  0.3422
21197W        W34611  12.059  14.948  10.896 -0.0537 -0.1906 -0.2350
21198W        W34612   6.110   9.753  11.820  0.1469  0.0782 -0.1303
21199W        W34613   7.487   6.799   5.718  0.0598 -0.3256  0.1051
21200W        W34614   6.360   8.339  15.914 -0.0965 -0.1457 -0.1347
21201W        W34615  17.439  10.542   6.283  0.1925 -0.3058 -0.0434
21202W        W34616   8.955   1.227  14.976  0.0290 -0.0221 -0.3672
21203W        W34617  18.222   5.807   2.195  0.0527 -0.0375  0.1619
21204W        W34618  14.599   3.311   2.681  0.0405  0.1024 -0.0832
21205W        W34619  12.199  18.126   2.162  0.0309  0.1683  0.2636
21206W        W34620  16.823  14.327   4.246 -0.0976  0.4407 -0.0948
21207W        W34621   7.660  13.613   5.125  0.0994  0.0614  0.0049
21208W        W34622  16.736  13.517   3.655 -0.0663 -0.2105 -0.0421
21209W        W34623  16.908   1.883   1.301  0.0221  0.0597 -0.2682
21210W        W34624  16.359   7.504  16.042  0.0910 -0.2462  0.1686
21211W        W34625   0.404  14.876  13.207 -0.1471  0.0134  0.0524
21212W        W34626  10.771  11.266   5.986 -0.0870 -0.1454 -0.2344
21213W        W34627  11.246  15.549   2.330  0.0734 -0.0578 -0.1561
21214W        W34628   1.532  15.390  14.543 -0.5553  0.1013  0.0204
21215W        W34629   5.383  13.775   0.385  0.1492 -0.3159  0.0675
21216W        W34630   1.856   6.165  16.336 -0.0993  0.0661  0.2386
21217W        W34631  15.424   2.229  14.599 -0.3642  0.0361  0.2048
21218W        W34632  12.443   9.840  12.185 -0.2738  0.0730  0.1979
21219W        W34633  17.793   7.618  15.752  0.1527  0.1415 -0.0585
21220W        W34634   9.866   3.006   1.384 -0.0365 -0.1112  0.0218
21221W        W34635   1.810   2.441   5.959  0.0287  0.3265 -0.2895
21222W        W34636   7.753  13.851   4.332  0.0528 -0.1053 -0.0820
21223W        W34637  12.413   1.497  11.923  0.0030 -0.1404 -0.2002
21224W        W34638   6.310   1.567   3.931  0.2179  0.2440 -0.1389
21225W        W34639   1.369   1.003   3.660 -0.0737 -0.1749 -0.5084
21226W        W34640  13.990  17.798  15.355 -0.1453  0.0646  0.2163
21227W        W34641   5.883   3.084   1.668 -0.5484  0.3241  0.1877
21228W        W34642   3.305   0.799   0.081 -0.0670 -0.3423  0.1047
21229W        W34643   4.491  11.274  16.427 -0.0794  0.1909  0.0680
21230W        W34644  14.946  12.935   3.868  0.1025  0.0354 -0.1180
21231W        W34645  13.698   2.461  10.214 -0.0651 -0.2075  0.3305
21232W        W34646  11.359  14.136   1.910 -0.0996  0.1886  0.0508
21233W        W34647   9.743   5.985   4.949  0.0978  0.0191  0.0628
21234W        W34648  10.382   7.236   1.296 -0.0061  0.1141 -0.2012
21235W        W34649   1.864  16.300  10.404 -0.0691  0.2806  0.1287
21236W        W34650  15.049   6.321  11.060  0.0217  0.0486 -0.0810
21237W        W34651   3.607   9.223   6.183 -0.1399 -0.2786 -0.0381
21238W        W34652   7.864  16.407   0.992 -0.0506  0.0524  0.0911
21239W        W34653   8.268   8.913  12.436 -0.2555 -0.0672  0.3328
21240W        W34654   5.014   1.024  10.095  0.0910 -0.1712 -0.0920
21241W        W34655   7.971  12.785  15.480  0.1370  0.1915  0.1803
21242W        W34656   8.851   1.606   2.222 -0.0476 -0.0264 -0.0637
21243W        W34657  16.963   4.492   3.764  0.0945  0.0546  0.1009
21244W        W34658  12.489   6.089   4.307 -0.3023 -0.2055 -0.2467
21245W        W34659   8.641   6.110  11.322  0.0357 -0.4175 -0.0130
21246W        W34660  10.005  10.855   6.231  0.1129 -0.1438 -0.1242
21247W        W34661   1.574  10.648   2.198  0.0468 -0.0729 -0.2292
21248W        W34662   8.404   1.918  14.525  0.0721  0.1160 -0.1925
21249W        W34663   1.154   7.523   2.173 -0.0202  0.2726  0.2118
21250W        W34664   4.452   3.731  14.579 -0.0520  0.0816  0.0970
21251W        W34665   6.966  13.834  12.513  0.2166  0.0452 -0.0739
21252W        W34666  16.091   6.377  11.502  0.2424  0.0765  0.1114
21253W        W34667   0.732  14.798   0.512 -0.0452  0.0155 -0.0829
21254W        W34668   1.803   4.813   5.622 -0.0186  0.1194  0.0401
21255W        W34669   2.105  16.318   9.928 -0.2755 -0.3861 -0.2266
21256W        W34670   0.682   6.254  13.136  0.1247 -0.1900 -0.0865
21257W        W34671  10.973  14.083   4.362  0.2506 -0.1790  0.1424
21258W        W34672   0.181   0.184   6.524 -0.1407 -0.1974 -0.2705
21259W        W34673   6.990  16.086  16.177  0.1114  0.2952 -0.0238
21260W        W34674  10.049   9.700   4.475 -0.4042  0.0105 -0.1515
21261W        W34675  15.402   5.455  12.723  0.0369  0.1361  0.4331
21262W        W34676  17.907  16.112   4.593  0.1468  0.0208 -0.0273
21263W        W34677   5.706   6.451  14.161  0.0540  0.1057  0.0621
21264W        W34678   2.831   4.878   1.813 -0.3122 -0.1639  0.1209
21265W        W34679  10.470   3.401   0.220 -0.0784 -0.0736 -0.5149
21266W        W34680   5.599  10.144  11.735 -0.1118 -0.0434 -0.0838
21267W        W34681   9.388  13.017  11.341  0.1530 -0.0683  0.1910
21268W        W34682   4.312   7.800   5.363  0.2838 -0.0602 -0.1303
21269W        W34683   2.488   8.121   5.203  0.3740  0.1125  0.1921
21270W        W34684  14.788  13.530  11.668  0.1145 -0.1903  0.1522
21271W        W34685  14.712   4.141   3.008  0.0722  0.2745  0.1342
21272W        W34686  14.207  17.354  15.659  0.0782 -0.0405  0.2058
21273W        W34687  16.822  12.337  16.193  0.1830 -0.1278 -0.5157
21274W        W34688   6.902   7.903   4.819  0.0886 -0.0717 -0.0426
21275W        W34689  13.107   5.358  15.723  0.1180  0.1081 -0.0100
21276W        W34690   4.339  13.981   1.135 -0.1577 -0.0402 -0.1447
21277W        W34691  15.186   6.045   5.803 -0.1872  0.2275 -0.0290
21278W        W34692  10.744   8.245   5.212 -0.0904 -0.2210  0.2067
21279W        W34693  16.917   6.733  12.816  0.3526  0.1766 -0.0845
21280W        W34694  10.432   1.437   3.959 -0.0693 -0.0632  0.0574
21281W        W34695  10.012  17.675   4.603  0.0116  0.1028  0.0814
21282W        W34696  17.007  10.264   4.067  0.2301  0.0072  0.1080
21283W        W34697   3.902  10.158  14.174  0.1802  0.2535  0.4041
21284W        W34698  13.262   7.797   5.347 -0.2932 -0.1713  0.2905
21285W        W34699  14.618   5.525  11.672  0.0663 -0.0056 -0.3815
21286W        W34700  11.598   6.014   4.865 -0.1857 -0.1156 -0.2916
21287W        W34701   9.350  12.312   0.482  0.0244 -0.1287  0.2122
21288W        W34702   6.467  10.689  13.716  0.1347  0.1702  0.1027
21289W        W34703   7.399   8.912  14.745  0.1542 -0.2612  0.1797
21290W        W34704  14.161   3.217   2.463 -0.1248 -0.2396  0.3473
21291W        W34705  12.528   5.501   5.054  0.0481  0.0975  0.0122
21292W        W34706   3.087  12.978   5.903  0.1457  0.2707  0.0235
21293W        W34707   9.254   1.601   3.682 -0.2415 -0.1209 -0.1120
21294W        W34708   5.956  11.409  14.691  0.3078 -0.3299 -0.1072
21295W        W34709   6.293   1.411  11.988  0.0034  0.0923  0.2206
21296W        W34710   3.231   0.200  10.755  0.1811  0.1899  0.0007
21297W        W34711  17.728   8.154  12.431  0.1425  0.1930  0.0280
21298W        W34712  11.885   8.520   4.425  0.0772  0.4935 -0.0102
21299W        W34713  16.859  13.755   2.646 -0.1514 -0.4664  0.0371
21300W        W34714  12.354  16.532   0.380  0.0415  0.3711  0.2518
21301W        W34715  14.968  16.683   2.814 -0.2544 -0.2024  0.2234
21302W        W34716   8.021   1.506  12.812 -0.1616  0.0859 -0.1288
21303W        W34717   5.809  12.537  13.532 -0.0114 -0.2780 -0.0063
21304W        W34718   4.729   2.800  10.337  0.0588  0.2543 -0.0375
21305W        W34719   7.583   8.344  12.393 -0.0680  0.1720  0.0808
21306W        W34720   7.002   4.321   1.078  0.4702 -0.0180 -0.1030
21307W        W34721  14.675   5.671   3.108 -0.2549 -0.1618 -0.3574
21308W        W34722  11.713   4.807  15.205 -0.0244 -0.0344 -0.1095
21309W        W34723   5.927   9.246   5.939  0.2488 -0.3391  0.1207
21310W        W34724   4.277   3.247  13.100 -0.1975  0.1332 -0.0034
21311W        W34725  13.034   6.312  12.068 -0.0448 -0.1046  0.0291
21312W        W34726   0.060   6.006  12.453 -0.2361  0.1896  0.0029
21313W        W34727  11.812   7.041  12.280  0.0314 -0.2775 -0.3868
21314W        W34728   0.923   8.753  15.662  0.0012 -0.1929 -0.0321
21315W        W34729   0.843   5.788   3.596  0.0150 -0.0608 -0.2833
21316W        W34730   7.137  11.188   4.147  0.2760  0.3929 -0.1603
21317W        W34731  15.890   9.821  14.663  0.0597  0.2710 -0.0719
21318W        W34732   4.730  14.824   3.677  0.0599 -0.0971  0.2129
21319W        W34733   1.861  18.038  13.904 -0.1602 -0.1956 -0.1859
21320W        W34734   8.989   0.336   4.219 -0.0012  0.1726  0.1745
21321W        W34735   8.145  10.261   5.861 -0.2192 -0.0794  0.0067
21322W        W34736   1.783  12.955  13.689 -0.0696 -0.3575  0.2768
21323W        W34737   1.173   4.748   4.027  0.0106 -0.2568 -0.1795
21324W        W34738  15.258  12.313  12.505 -0.0717 -0.1068 -0.1187
21325W        W34739  18.177  11.045  12.820 -0.1498 -0.1539  0.0038
21326W        W34740   0.317   9.469   2.075 -0.0689 -0.0265  0.1536
21327W        W34741  15.707  13.542   4.939 -0.1419  0.0837  0.1006
21328W        W34742   0.734   5.447  12.525 -0.0314  0.3548  0.0927
21329W        W34743  12.383   7.502  13.975  0.0571  0.0804  0.0645
21330W        W34744   9.865  16.034  15.956  0.1269  0.2969  0.0653
21331W        W34745  15.480   7.586   0.803  0.2596 -0.0111  0.0120
21332W        W34746   4.474  12.006  15.074  0.1201 -0.0499  0.0717
21333W        W34747  13.517   3.865   1.207  0.1256  0.3623 -0.0161
21334W        W34748   1.975  17.774   2.081  0.2876  0.0333 -0.1627
21335W        W34749  12.816  14.905  10.862  0.1643  0.1822  0.2004
21336W        W34750   0.398  17.192  11.171  0.0135  0.0275 -0.0598
21337W        W34751  10.471   1.354   3.040  0.0187 -0.0298  0.0403
21338W        W34752  12.453   0.836   4.824  0.2317  0.0467  0.2344
21339W        W34753  15.164  13.637  12.400  0.1251 -0.2814 -0.0207
21340W        W34754  18.157  16.133   5.922 -0.4077 -0.1554  0.2337
21341W        W34755  14.742  13.452   4.966 -0.1442  0.2938  0.1962
21342W        W34756   9.210   6.044   9.845  0.2114  0.0517  0.0382
21343W        W34757   9.382  13.170   5.537 -0.0821  0.1652 -0.0412
21344W        W34758   2.681   9.542   5.373 -0.2447 -0.0143  0.0144
21345W        W34759  10.765  15.704   5.331  0.1845  0.1836 -0.1933
21346W        W34760   7.427  12.815  16.313  0.1111  0.1678  0.1856
21347W        W34761   2.022  10.530  10.898 -0.1243 -0.3327 -0.3790
21348W        W34762   6.500   4.954  12.016  0.2523 -0.2380  0.2383
21349W        W34763  16.835  14.880   1.493 -0.1094  0.1116  0.0864
21350W        W34764   8.646  10.649  13.875 -0.1422 -0.0210 -0.0895
21351W        W34765  17.270  15.380  12.429  0.3608 -0.1524  0.1038
21352W        W34766  11.660   0.742   4.644 -0.2711 -0.0112  0.1411
21353W        W34767   9.173  11.506   6.138  0.1387  0.0389 -0.1656
21354W        W34768  11.550   1.899   2.272 -0.2071  0.0685  0.4423
21355W        W34769  15.807  11.039   0.678 -0.4356  0.0100  0.2235
21356W        W34770   2.970   1.631  10.664 -0.2053 -0.0962  0.4197
21357W        W34771  11.484   3.127   3.602 -0.2092 -0.1043 -0.3096
21358W        W34772   7.431   0.402   1.762  0.2091  0.0428  0.2829
21359W        W34773   7.182  10.009   5.722 -0.0343  0.0952  0.2757
21360W        W34774  13.882  11.174   1.050 -0.2461 -0.1329 -0.1549
21361W        W34775   8.398  11.132  11.714 -0.0865  0.0075 -0.0180
21362W        W34776  14.735   5.006   5.846 -0.2171  0.0875  0.2486
21363W        W34777   3.750  17.067  10.559 -0.1701  0.0048  0.1957
21364W        W34778  14.408   7.226   3.094  0.1352  0.3939 -0.1151
21365W        W34779  16.010  14.376  14.132  0.1101  0.3489 -0.0392
21366W        W34780   3.976  15.531   0.660  0.2053 -0.0206 -0.1161
21367W        W34781   2.189  15.093  12.501 -0.1050 -0.2468 -0.1993
21368W        W34782   9.033   9.232   1.044  0.0138 -0.0730  0.1268
21369W        W34783   6.077   0.533   1.393 -0.1569 -0.0067 -0.2438
21370W        W34784  14.340   7.826   1.360  0.0462 -0.1110 -0.2241
21371W        W34785  16.611   2.113   2.823  0.0312  0.0129 -0.1798
21372W        W34786  13.395   4.286   3.623  0.3031  0.3644 -0.2202
21373W        W34787   3.380   9.541  12.682  0.0609  0.3708 -0.1900
21374W        W34788   4.062   9.312  14.652 -0.1062 -0.3190 -0.1090
21375W        W34789  12.493  18.058  13.735  0.0246 -0.0176 -0.0245
21376W        W34790   5.156   4.027   6.143  0.3095  0.1776 -0.0728
21377W        W34791  15.191   7.178   0.871  0.0853 -0.0703  0.0808
21378W        W34792  17.928  15.732  13.401 -0.0048 -0.1888  0.1161
21379W        W34793  14.481  15.471  15.460 -0.4600 -0.3220 -0.0805
21380W        W34794  11.800   9.447  14.034 -0.0707  0.1591  0.0254
21381W        W34795   2.070  15.538   4.930 -0.1019 -0.0073  0.4242
21382W        W34796   7.898  14.185   1.461  0.2644 -0.1309 -0.1395
21383W        W34797   0.430   8.944   1.168  0.0371  0.0150 -0.0789
21384W        W34798   9.345   4.586  16.099 -0.0449 -0.2340 -0.1674
21385W        W34799  14.567   4.755  11.262  0.4635  0.1234  0.0817
21386W        W34800   3.034  10.233  15.568 -0.0543 -0.2542 -0.1208
21387W        W34801   2.191   5.736   2.658 -0.0186  0.0001 -0.0674
21388W        W34802   0.616  13.054   3.743 -0.1621  0.0090  0.2943
21389W        W34803   8.261   1.650  11.603  0.2759  0.0575  0.1304
21390W        W34804  13.153   7.248  11.678  0.1955  0.3804  0.1088
21391W        W34805   0.486   7.466  14.330  0.1210  0.1995  0.1805
21392W        W34806  12.249  14.723   2.114 -0.2098  0.0307  0.0003
21393W        W34807   1.639  15.096   5.744  0.0493 -0.1489  0.0211
21394W        W34808  12.852  14.231   5.575 -0.0289  0.2753  0.0942
21395W        W34809  11.385   0.660  15.549  0.1669 -0.1720 -0.0412
21396W        W34810   9.933  10.286  11.907 -0.2228 -0.0862 -0.1911
21397W        W34811   3.399   9.848   1.118 -0.1133  0.2146  0.1701
21398W        W34812  12.428  13.601   0.668  0.1108 -0.1995 -0.1362
21399W        W34813  17.907   9.835  11.695  0.1477  0.0848  0.1101
21400W        W34814  13.951   4.878  11.720 -0.0771  0.1245  0.2382
21401W        W34815  12.541  14.556  14.219 -0.2467 -0.2810  0.2525
21402W        W34816   4.520   3.605  15.349  0.1578 -0.2239 -0.0142
21403W        W34817  14.517   1.502   2.087  0.2387 -0.1125  0.2428
21404W        W34818   7.125   2.227  14.616  0.2075  0.0713  0.0022
21405W        W34819  11.331  17.680  12.387 -0.1261  0.2253 -0.0792
21406W        W34820   0.461  11.956   0.612 -0.1438 -0.1916  0.1050
21407W        W34821   5.133   8.583   0.219  0.1119  0.0941 -0.4196
21408W        W34822   0.451  13.922  14.477 -0.1644  0.0356 -0.1932
21409W        W34823   1.917  16.570   1.671  0.1665 -0.1934 -0.0439
21410W        W34824  15.362  14.921   0.521  0.0020 -0.0687  0.0647
21411W        W34825   7.075   9.345  10.885 -0.0880 -0.2077  0.1447
21412W        W34826  11.676   7.872   5.707 -0.2988  0.2326 -0.2320
21413W        W34827   3.110   5.953   5.206 -0.1041  0.2163 -0.3098
21414W        W34828  12.152  14.664  12.128 -0.1401 -0.0702  0.0220
21415W        W34829   5.608   5.691   1.660  0.0530 -0.1398  0.0015
21416W        W34830   7.292  13.319   1.251 -0.0189 -0.0222 -0.0416
21417W        W34831  11.478  13.167  12.166  0.0166 -0.1083 -0.1270
21418W        W34832   1.024   9.054  16.056 -0.0299 -0.3451  0.0491
21419W        W34833  15.420   4.007  13.631 -0.2472  0.0988  0.1698
21420W        W34834  16.210   0.018  12.425 -0.0369  0.1112  0.1515
21421W        W34835   4.097   0.359   0.737  0.0762 -0.1985 -0.0710
21422W        W34836   9.857  11.348  11.373  0.0496  0.0045 -0.2569
21423W        W34837  15.154  10.194   2.378 -0.3140 -0.0509 -0.3246
21424W        W34838  14.909  13.058  11.649  0.1531  0.2942 -0.2508
21425W        W34839  10.175   2.976  11.380 -0.1829 -0.1167  0.2118
21426W        W34840  13.285   2.338  11.535  0.1147  0.0711 -0.0632
21427W        W34841   5.988   0.993  12.823  0.1319  0.0012  0.3898
21428W        W34842  12.091   7.985  14.911  0.1895  0.1235  0.1109
21429W        W34843   8.205  17.095   4.774 -0.0438 -0.1270 -0.1117
21430W        W34844   8.721   5.829  16.373  0.1283 -0.2842 -0.1353
21431W        W34845   5.785  14.363   3.068  0.0891 -0.1985  0.2689
21432W        W34846   8.374  14.220   1.775 -0.0551 -0.1126  0.1543
21433W        W34847   9.284   4.102   0.380  0.2582  0.0853 -0.0879
21434W        W34848  11.014  17.271  12.293  0.0339  0.0652  0.0888
21435W        W34849   8.920  14.088  14.060  0.2536  0.0959 -0.2256
21436W        W34850   1.291  15.581   2.318 -0.0562 -0.0608 -0.1696
21437W        W34851   9.079  16.972  11.496 -0.0796  0.0368 -0.0643
21438W        W34852  13.666   6.042   2.754 -0.3019  0.2005 -0.1764
21439W        W34853   9.928  13.840  14.832 -0.2978  0.1574 -0.2093
21440W        W34854  15.560   0.227   0.026  0.1947 -0.0133 -0.1615
21441W        W34855   7.487   4.860  12.203 -0.0259 -0.0814  0.1147
21442W        W34856  17.896   3.618  15.074 -0.1625 -0.0052 -0.0935
21443W        W34857   3.471  15.013  14.500 -0.1293  0.2153 -0.2102
21444W        W34858   0.746   1.889  14.890  0.4418 -0.2678 -0.2824
21445W        W34859  12.483  17.823   0.096 -0.0526  0.1420 -0.0872
21446W        W34860   5.854   9.359  11.481  0.1041 -0.0346  0.0288
21447W        W34861   0.128  15.467  15.218  0.2795  0.1883  0.0049
21448W        W34862  13.753  10.370   5.304  0.0007  0.0843  0.1471
21449W        W34863  17.806  13.461   1.722 -0.0445 -0.0079  0.0148
21450W        W34864   7.220  17.428   3.334  0.0634  0.1148 -0.0405
21451W        W34865  11.578  15.112  11.010 -0.0282 -0.0451  0.1167
21452W        W34866   3.972   3.051  16.120  0.1035 -0.0378  0.1237
21453W        W34867   9.733  11.957  15.687  0.2071 -0.1714  0.1088
21454W        W34868   2.080   4.176   0.408  0.2550 -0.3348  0.0653
21455W        W34869  11.761   0.295  12.173  0.1069 -0.1109  0.0018
21456W        W34870  13.712   3.573  13.705  0.0104  0.2126 -0.0734
21457W        W34871  10.542  12.554   6.090  0.1583 -0.1417 -0.2132
21458W        W34872  14.226   5.574  14.404 -0.1411 -0.3158 -0.3178
21459W        W34873   3.734   4.203  14.013  0.1485  0.0607 -0.1681
21460W        W34874  16.841   6.752   4.484 -0.2182  0.0440  0.0574
21461W        W34875   4.747  16.627   1.837  0.2551 -0.0607  0.0688
21462W        W34876   4.143   5.632  11.286 -0.0882  0.0709  0.0318
21463W        W34877   4.028   4.117   4.576 -0.0075 -0.2104 -0.0797
21464W        W34878   3.538  12.241  15.000 -0.0858 -0.1025  0.1136
21465W        W34879   6.830   9.104   1.228 -0.2976 -0.1759  0.1646
21466W        W34880   5.242  13.193   1.253  0.0166 -0.2344 -0.1114
21467W        W34881  10.656   0.308   5.722  0.0064  0.0237  0.0437
21468W        W34882  14.994   7.524   0.444 -0.0623 -0.3330 -0.0250
21469W        W34883   1.099  14.330  11.156  0.1176  0.1009 -0.5154
21470W        W34884  13.148   0.752   4.889  0.5141 -0.0008  0.0088
21471W        W34885   5.617  14.095   5.069  0.0937  0.3743  0.0747
21472W        W34886   4.412  16.751  13.373  0.2018 -0.2355 -0.0823
21473W        W34887   6.267  17.955  16.084 -0.1475  0.0044 -0.0670
21474W        W34888   1.957   1.197  14.297 -0.0330  0.0202  0.0990
21475W        W34889  11.465   0.666  11.121 -0.0382  0.2386 -0.0593
21476W        W34890   9.455  13.564  16.521  0.3835 -0.1940  0.0829
21477W        W34891  15.931  17.950   1.515 -0.2666 -0.1884  0.1180
21478W        W34892   1.367   6.068  11.783 -0.1851  0.2676 -0.0515
21479W        W34893   6.291  16.771  12.745  0.1362  0.2718  0.0190
21480W        W34894   4.971  15.810  12.891 -0.0312  0.1903 -0.1560
21481W        W34895  16.337  10.000  15.946 -0.1292 -0.0459 -0.3882
21482W        W34896   7.751   0.906   2.039 -0.3385  0.1688  0.2704
21483W        W34897   1.126   0.676   2.393  0.0963 -0.1500  0.0646
21484W        W34898   9.288   7.588   2.964 -0.0040  0.3007  0.2459
21485W        W34899   2.761   8.305  14.901 -0.0499 -0.3149  0.0622
21486W        W34900  13.448   6.458   4.168  0.3816 -0.2018  0.1115
21487W        W34901   1.475  10.800  11.566 -0.0726 -0.0709 -0.0200
21488W        W34902  13.035   2.153  15.942 -0.1508  0.2258  0.0161
21489W        W34903   0.986   8.640  12.323 -0.3689 -0.0878  0.2889
21490W        W34904   5.146   6.135   3.142  0.0643  0.0232 -0.0247
21491W        W34905  13.462   5.322   0.953 -0.0836  0.0186  0.1653
21492W        W34906  15.698   5.736   5.838 -0.0283 -0.0570 -0.1728
21493W        W34907  17.855   6.724  15.742  0.2060 -0.0607 -0.1986
21494W        W34908  18.106   6.973  11.222  0.0422 -0.0495  0.2615
21495W        W34909   9.790   9.489  12.978  0.0537  0.0939 -0.2706
21496W        W34910   0.373   5.540  15.913 -0.0735 -0.4073  0.2434
21497W        W34911  10.277  14.953   5.100 -0.1921 -0.2926  0.1210
21498W        W34912   2.034  17.242  14.186 -0.0944  0.0107 -0.0155
21499W        W34913   6.377  13.828   5.955  0.4507 -0.1668  0.2250
21500W        W34914  17.886  13.782   2.979 -0.1068 -0.1735 -0.1465
21501W        W34915  11.989   1.175  11.744  0.3439  0.3400 -0.2774
21502W        W34916  12.367  10.456   3.096 -0.2976 -0.1322  0.1762
21503W        W34917  10.591  11.054   5.501  0.1611 -0.1910  0.0395
21504W        W34918   8.191   7.211   1.597 -0.0157  0.0188  0.0684
21505W        W34919   3.314   2.283   2.220  0.0307  0.1004 -0.0482
21506W        W34920   7.269  13.689   5.368  0.1360 -0.2147 -0.1605
21507W        W34921   7.403  12.957  11.942  0.0632  0.2805  0.2719
21508W        W34922   9.857  12.900  11.948  0.0901 -0.1229  0.0846
21509W        W34923  12.309   7.407   1.073 -0.1254 -0.0570  0.0290
21510W        W34924  10.829  16.583  11.449  0.3534  0.3758  0.1345
21511W        W34925   3.233  14.858   0.017  0.1482 -0.1205  0.0418
21512W        W34926  18.091   9.894   2.126  0.0391 -0.1482  0.0679
21513W        W34927  17.235   1.745   5.509  0.1445  0.3446 -0.0957
21514W        W34928  11.431  13.900   4.259 -0.0494 -0.3235  0.2898
21515W        W34929   1.772   6.664   5.376 -0.0693  0.4872 -0.0512
21516W        W34930  14.676  15.083   3.402  0.0195  0.3227  0.2047
21517W        W34931   0.150  17.572   6.169 -0.1653  0.1449  0.0527
21518W        W34932  18.157  11.947  11.313  0.1132 -0.3832  0.1203
21519W        W34933  11.196  17.964   4.145 -0.0824 -0.0263 -0.3214
21520W        W34934  17.246   6.317   5.648  0.0341  0.2927 -0.0327
21521W        W34935   7.875  12.500   4.529 -0.3649 -0.2156 -0.2452
21522W        W34936   8.523  11.064  16.443  0.0037  0.0628  0.1216
21523W        W34937  17.656  16.299   5.014  0.1694  0.1019 -0.1481
21524W        W34938  17.724   1.360   4.763 -0.0777  0.2506 -0.2677
21525W        W34939   2.609   1.960  15.174 -0.0846  0.0793 -0.0291
21526W        W34940  12.794   7.302   2.761 -0.2270  0.1854 -0.3528
21527W        W34941  17.085   8.589  12.873  0.1710  0.1894  0.1987
21528W        W34942   1.528  12.425   3.778  0.0988  0.0450 -0.0212
21529W        W34943  17.645   4.609   1.003  0.1545 -0.2734 -0.2808
21530W        W34944  13.095   1.395   0.701 -0.1695 -0.1804  0.0178
21531W        W34945   7.199  10.711   3.020 -0.0905 -0.0245  0.0198
21532W        W34946   6.959  12.095  11.245  0.3625  0.3893  0.1328
21533W        W34947   4.640  16.620   2.735 -0.1461  0.3477  0.3701
21534W        W34948  11.708   0.343  15.724  0.0753  0.2572 -0.0624
21535W        W34949  13.286   7.609  15.942 -0.0065 -0.2162  0.3414
21536W        W34950   2.841  13.770   0.098 -0.2189 -0.1427 -0.1549
21537W        W34951   3.847  13.681  10.814  0.1989  0.1238  0.1686
21538W        W34952  16.664   1.252   5.817 -0.2170  0.3075 -0.0852
21539W        W34953   2.792  11.016  11.562  0.0487 -0.2220  0.0170
21540W        W34954   2.600  11.333   3.790 -0.0711  0.0525 -0.0219
21541W        W34955   0.990   2.066  12.833  0.1086  0.0313  0.0180
21542W        W34956   2.163   0.719  12.130 -0.1420 -0.2996  0.2325
21543W        W34957  10.946   2.059  15.393 -0.2871  0.3414  0.0349
21544W        W34958   9.981   0.045   2.156  0.2551  0.1475 -0.0636
21545W        W34959  15.565  10.542   0.583  0.1543 -0.1223  0.2751
21546W        W34960   2.548   2.385  12.552  0.2079  0.2070  0.0402
21547W        W34961   8.735  11.249   5.302  0.1216 -0.0417  0.0834
21548W        W34962  15.486   4.963   0.803 -0.0929  0.1918 -0.0872
21549W        W34963   1.964   7.698  12.297  0.1522 -0.2246  0.0698
21550W        W34964   7.331   3.777  15.553 -0.0024  0.2090 -0.0908
21551W        W34965  11.697   1.730   4.213  0.0410 -0.0436  0.0436
21552W        W34966   1.849  16.450  14.190 -0.1755  0.0772 -0.2236
21553W        W34967   8.449   6.076  12.833 -0.2241  0.0865 -0.3324
21554W        W34968   9.097   1.553  10.160  0.1225 -0.1854  0.0054
21555W        W34969   7.218   7.615   3.230 -0.2985  0.0152 -0.1035
21556W        W34970   4.977  16.279  12.953  0.0653 -0.0857  0.2021
21557W        W34971   7.489   5.616  10.709  0.4136 -0.2829  0.1445
21558W        W34972  11.355  13.706  12.841  0.1721 -0.2353 -0.0096
21559W        W34973   5.388  13.524  14.742 -0.4685 -0.1458 -0.1328
21560W        W34974   3.456   5.656  14.649  0.0228 -0.1758  0.1342
21561W        W34975   9.146   3.770  12.879  0.1421  0.1651 -0.1380
21562W        W34976   7.421  17.356   3.869 -0.0660  0.3058 -0.1781
21563W        W34977  15.412  14.885   3.985  0.2836  0.0002  0.3175
21564W        W34978   4.862  13.528   2.260  0.3157 -0.0922  0.0581
21565W        W34979  15.861   0.757   9.866  0.1578 -0.1524 -0.2096
21566W        W34980   0.937   1.977   6.474  0.0266  0.2197 -0.1879
21567W        W34981   4.448  17.152   3.450 -0.1945  0.2333 -0.1077
21568W        W34982  10.062   4.404  10.713 -0.2927  0.1965 -0.2571
21569W        W34983  11.996  11.504  12.961 -0.1889 -0.0819  0.2084
21570W        W34984   9.502  11.089   5.893 -0.0736 -0.3136 -0.2365
21571W        W34985  14.865   5.045   2.583 -0.0675 -0.0097  0.0798
21572W        W34986  15.587  15.149  10.413  0.0370 -0.0195  0.0453
21573W        W34987  14.523  16.004  16.319  0.4398  0.2022  0.1254
21574W        W34988   2.445   4.169  13.647  0.3502  0.2149 -0.0978
21575W        W34989   7.064   2.487  13.254 -0.0429  0.1271  0.0150
21576W        W34990   7.597   1.407  10.400  0.0970  0.0106  0.2774
21577W        W34991   7.040  15.297  10.484 -0.1144 -0.2631 -0.0148
21578W        W34992   2.273  12.325  11.954 -0.0716 -0.0586  0.0741
21579W        W34993   6.344  13.592  12.856 -0.2664 -0.3340  0.1245
21580W        W34994  13.043   3.025  10.147  0.0219 -0.0653 -0.1694
21581W        W34995  14.084  10.943  16.076  0.1191  0.1102 -0.2487
21582W        W34996   7.011   1.011   1.305 -0.1483  0.0584 -0.3658
21583W        W34997  16.716  15.003  13.926  0.2196  0.1354  0.1171
21584W        W34998  10.622  17.473   0.809 -0.2137 -0.0620 -0.2505
21585W        W34999   4.271   2.578  13.025 -0.0109  0.0210 -0.1810
21586W        W35000  16.151  16.626   4.407  0.1704 -0.2291  0.0699
21587W        W35001  16.838  10.910  15.319 -0.1458  0.1611 -0.1822
21588W        W35002   7.578  10.087   2.233 -0.0697  0.1360  0.3986
21589W        W35003  12.383   6.938  13.894 -0.1200  0.0564 -0.1664
21590W        W35004   6.140  12.359   6.125  0.0819 -0.3840  0.0834
21591W        W35005   5.111  17.873   1.023  0.2182  0.0990  0.1276
21592W        W35006  14.237  10.669   2.710 -0.0516  0.1650 -0.1034
21593W        W35007   7.688   2.247  10.660  0.1725  0.0859 -0.0284
21594W        W35008  10.936  18.117  11.703  0.0428  0.1560  0.0048
21595W        W35009   2.791  14.046  16.212  0.1288  0.1953  0.0631
21596W        W35010  18.108   6.271  13.419  0.4010  0.0230  0.0381
21597W        W35011  17.053  14.759   2.460  0.0167  0.0918 -0.0458
21598W        W35012  11.680  13.058   2.714  0.1835  0.1415  0.3002
21599W        W35013   1.951   3.721  10.701  0.2653 -0.0533  0.1685
21600W        W35014   5.386  18.119  16.208  0.1436 -0.1515 -0.1469
21601W        W35015   6.888   5.130  12.876 -0.0308  0.0215 -0.1792
21602W        W35016   3.115   2.289   4.179 -0.3639  0.0482  0.1664
21603W        W35017  12.929  10.923   2.657 -0.2072  0.1283  0.2908
21604W        W35018  10.190   1.155  12.895 -0.2227  0.0219  0.3556
21605W        W35019  13.353  15.114   5.116 -0.0882  0.3168 -0.0153
21606W        W35020  16.296   8.192  16.451 -0.0365 -0.2107 -0.2152
21607W        W35021   7.286   6.023   4.582  0.2092  0.1318  0.0432
21608W        W35022   7.022  12.568  10.988  0.1693  0.2638  0.0676
21609W        W35023   7.130   3.975   4.449 -0.1260  0.2913  0.2404
21610W        W35024   5.176  14.454  12.694  0.2985 -0.2485 -0.1735
21611W        W35025   3.164  11.302  12.899  0.3377 -0.1137  0.2089
21612W        W35026   7.890  12.276   5.459 -0.1412 -0.1068 -0.1240
21613W        W35027   8.247   3.690   3.605  0.0343  0.0525 -0.1910
21614W        W35028   7.440  15.975   2.950 -0.0362  0.1153  0.1662
21615W        W35029   0.587   2.097  11.106 -0.1588 -0.1605 -0.0820
21616W        W35030   4.015   1.826   2.898 -0.0199  0.1280  0.3263
21617W        W35031   9.201   8.955   2.213 -0.2626 -0.0861 -0.0751
21618W        W35032  15.142   5.161   1.779 -0.1034 -0.2086  0.1579
21619W        W35033  11.177  15.496   4.474  0.0246  0.0274  0.1786
21620W        W35034   8.392   3.109   4.583  0.1979  0.0032  0.0259
21621W        W35035   4.720   8.689   0.490  0.1157 -0.0925  0.1782
21622W        W35036  13.627  17.993  12.860 -0.0591 -0.0127  0.1681
21623W        W35037   5.916   2.833   3.628  0.1888  0.1558  0.0096
21624W        W35038  16.333  13.945   2.544  0.0026 -0.4362 -0.3008
21625W        W35039   1.148  15.574  12.831  0.2042 -0.0472  0.3182
21626W        W35040  13.802   1.783  13.496  0.0277  0.0060  0.1894
21627W        W35041   9.120   8.851   3.074 -0.3001  0.0035  0.1264
21628W        W35042   3.892  12.089  11.455  0.0754 -0.0267  0.3485
21629W        W35043   6.236   9.987  11.388 -0.2048 -0.0321 -0.0308
21630W        W35044   8.677   0.618   2.418  0.0931 -0.0955 -0.3208
21631W        W35045  12.099  11.416   2.095 -0.0455  0.1584  0.1125
21632W        W35046   1.327   0.961  13.587  0.0118 -0.0310 -0.1073
21633W        W35047  12.449   7.341   3.690  0.0228  0.0967 -0.2617
21634W        W35048   3.277   5.655   3.417 -0.0055  0.0118 -0.4518
21635W        W35049   5.637  12.201   3.558 -0.0628 -0.2128 -0.0127
21636W        W35050   8.210   7.334   4.276  0.0900 -0.0140 -0.1817
21637W        W35051   0.520  12.552  11.157  0.1036 -0.2481 -0.2649
21638W        W35052  16.435  14.715  16.254 -0.2110 -0.1297 -0.1222
21639W        W35053  10.385  11.471   5.756  0.1841  0.0350  0.0764
21640W        W35054   4.453  17.581   2.550  0.1351 -0.2145  0.1273
21641W        W35055   1.426   8.880   0.457 -0.0165  0.1380  0.1722
21642W        W35056   8.927   8.361   1.199 -0.3657  0.1741  0.0165
21643W        W35057   1.103   7.411  12.884 -0.0207 -0.0476 -0.0363
21644W        W35058   0.794   6.957   2.817  0.3206  0.1087 -0.3848
21645W        W35059  13.801   0.921   0.445 -0.3191  0.1828  0.1553
21646W        W35060   2.581  15.820   2.615 -0.1492 -0.2240 -0.2650
21647W        W35061   3.017   8.572  12.371 -0.2180  0.1222 -0.1872
21648W        W35062   1.753   4.514  14.861  0.1041  0.0251  0.0911
21649W        W35063   5.506   3.851   2.904  0.0420  0.3112 -0.1196
21650W        W35064  12.706  15.764  10.552  0.1226 -0.3076 -0.3518
21651W        W35065   9.543  10.944  15.581 -0.2703 -0.1324  0.0841
21652W        W35066  10.098   1.728  11.093 -0.0843 -0.2388 -0.1778
21653W        W35067   5.732   6.296   5.404  0.0744  0.0752  0.3718
21654W        W35068   4.360  15.070   1.379 -0.1574 -0.2253 -0.0053
21655W        W35069   0.357  11.000  12.519  0.2354 -0.0908  0.0346
21656W        W35070   5.730   3.973  12.382 -0.0314  0.0332  0.0191
21657W        W35071   0.650   1.801  13.219  0.0896  0.2281 -0.1526
21658W        W35072   8.817   4.792  15.401 -0.0411 -0.0299  0.2409
21659W        W35073   5.495  10.799   6.494 -0.2020  0.0550  0.1845
21660W        W35074   2.156  12.365  15.312  0.1142  0.1773 -0.0790
21661W        W35075  11.052  10.086   0.726 -0.3197  0.0137  0.0262
21662W        W35076  10.494   3.814   4.791 -0.1267 -0.1398  0.0307
21663W        W35077  14.545   5.380  15.395 -0.0467 -0.1343  0.0306
21664W        W35078   2.118   8.327  16.088 -0.2214  0.0273  0.0192
21665W        W35079  18.197   5.366   3.066 -0.2603  0.0610 -0.1495
21666W        W35080  11.151   3.870   3.198  0.0529  0.1671 -0.3912
21667W        W35081  12.537   5.456  11.569  0.2973 -0.2515  0.1285
21668W        W35082   0.924  10.503  14.957 -0.0195  0.1400  0.1358
21669W        W35083   0.768   7.074  14.554 -0.0584  0.1621 -0.0257
21670W        W35084   9.814   8.909  13.674 -0.0167 -0.0631  0.1716
21671W        W35085  16.839  16.394   2.378 -0.0690 -0.2169  0.0121
21672W        W35086  14.537   5.909  14.206 -0.2820 -0.3565 -0.1614
21673W        W35087  10.568   2.872   2.600  0.1105  0.1042  0.1589
21674W        W35088   7.281  17.951   3.179  0.3424 -0.0225  0.1381
21675W        W35089  13.925   3.765   4.133 -0.0917 -0.1732  0.1741
21676W        W35090  15.949  13.177   3.129  0.0150 -0.0548 -0.1149
21677W        W35091   3.974   3.046  15.553  0.0540  0.1201 -0.2138
21678W        W35092  14.094  13.528  16.309 -0.0501  0.0209 -0.0234
21679W        W35093   4.811  17.862  11.151  0.1922  0.0903  0.0083
21680W        W35094   3.486  15.582  15.156 -0.1787  0.2546 -0.2823
21681W        W35095  16.754  13.980  14.218 -0.0548  0.2255 -0.3839
21682W        W35096   8.832  13.737  12.455 -0.0665  0.3258  0.0754
21683W        W35097  13.635  12.018  15.513  0.0675 -0.1359  0.0464
21684W        W35098  11.756  13.201  15.153  0.1646  0.0122 -0.3764
21685W        W35099  15.954   2.556   1.488 -0.2750 -0.1531  0.5064
21686W        W35100  15.923   9.010   3.070  0.0210 -0.2742 -0.3428
21687W        W35101   8.563  16.217   5.358  0.1208 -0.0150  0.1089
21688W        W35102   3.405   2.873   4.080  0.1157 -0.0360 -0.0739
21689W        W35103   6.891   8.310  14.652 -0.2835  0.2518  0.1592
21690W        W35104   8.404   2.021   0.334  0.2993  0.0299 -0.2000
21691W        W35105  15.242  11.368  14.336  0.2161 -0.3273 -0.1389
21692W        W35106   2.104   8.247   6.044 -0.0364  0.0045 -0.0165
21693W        W35107   4.130  14.828  16.527 -0.0342 -0.3005 -0.1379
21694W        W35108   9.383   4.835  14.381 -0.1099 -0.0577  0.2924
21695W        W35109  15.734   4.561   0.562 -0.1114 -0.3020  0.1168
21696W        W35110   6.750   4.175  11.148 -0.1312  0.1447 -0.3651
21697W        W35111   6.906   0.093  14.949  0.0345 -0.1169  0.2971
21698W        W35112   5.176   5.014   5.256 -0.0030  0.3412  0.0228
21699W        W35113  17.396   6.897  12.753  0.2747 -0.1904  0.1697
21700W        W35114   2.444   6.050   4.659  0.3704  0.0688 -0.1668
21701W        W35115   3.805  13.849   4.999 -0.0414 -0.1167  0.1685
21702W        W35116   4.703   7.601   3.188  0.2420  0.1259 -0.1440
21703W        W35117  18.212   3.165   3.395 -0.1718  0.0706  0.1590
21704W        W35118   5.026  12.823   5.222 -0.2271  0.2727 -0.0646
21705W        W35119   7.792   5.826   2.547  0.1065  0.0286 -0.2752
21706W        W35120   9.460   6.725  15.546 -0.2498 -0.0171  0.1708
21707W        W35121   9.170  14.004   1.911 -0.0140  0.2543  0.0395
21708W        W35122  10.071  16.693  14.640 -0.0962 -0.2425  0.2166
21709W        W35123  13.305  13.084   1.110  0.1274 -0.3220 -0.2336
21710W        W35124  17.943   5.230  11.097  0.2378  0.1369  0.1762
21711W        W35125  13.196   4.167  14.738 -0.2018 -0.2243  0.1441
21712W        W35126  13.086   3.323  10.547  0.0470 -0.1913 -0.1185
21713W        W35127  13.616  12.812  11.821  0.1773  0.4873  0.0416
21714W        W35128   7.706  14.805  13.921 -0.0181  0.0351  0.0997
21715W        W35129  16.615   1.075   3.651  0.0245 -0.2309 -0.2689
21716W        W35130   5.909   5.270   0.259 -0.1054  0.1953  0.3672
21717W        W35131  12.408   8.202   5.177 -0.0443 -0.1350  0.0279
21718W        W35132   8.204  15.018   3.377  0.1610  0.1313  0.2944
21719W        W35133  13.961   6.005   0.809  0.4263 -0.2591 -0.0461
21720W        W35134   6.204   6.012   2.280  0.2043 -0.0190  0.1792
21721W        W35135  10.776   7.428  11.274 -0.0565 -0.2403  0.2149
21722W        W35136   3.141   5.137  14.877  0.2623 -0.1141  0.1442
21723W        W35137   7.533  16.899  15.047 -0.0799 -0.1961 -0.2314
21724W        W35138   1.686  17.829   5.432 -0.1995  0.0220  0.1278
21725W        W35139  14.903  13.376  13.846 -0.1684  0.0661  0.0671
21726W        W35140   5.649   5.833   3.442 -0.0660  0.0803  0.2314
21727W        W35141   7.434  15.981  12.940 -0.0988 -0.1506  0.0781
21728W        W35142  13.532   6.591   2.062 -0.1286  0.1931 -0.0544
21729W        W35143   7.514   7.558   0.038 -0.0488  0.2640  0.0693
21730W        W35144   7.042   0.655   0.500 -0.4270  0.0480 -0.1821
21731W        W35145   9.737   6.444  13.205  0.0029  0.2696  0.2557
21732W        W35146  12.348   0.945   9.584 -0.1840  0.2225 -0.1126
21733W        W35147   0.473   6.952  16.388 -0.1042  0.0034 -0.1649
21734W        W35148  15.610   8.516   3.857  0.0017  0.0475 -0.2813
21735W        W35149   8.373   4.246   1.413 -0.0404 -0.1332 -0.0048
21736W        W35150   5.763   9.715  13.060  0.0507  0.3210  0.1474
21737W        W35151  16.671   1.149   2.043 -0.0085  0.1237 -0.0646
21738W        W35152  10.334   1.138   9.713 -0.0513 -0.0541  0.0678
21739W        W35153  12.246  13.395  15.280  0.3091  0.0070 -0.1025
21740W        W35154  17.753   6.522   0.125 -0.1708  0.1313 -0.3823
21741W        W35155  15.816  14.652   2.723  0.2816 -0.3171  0.1081
21742W        W35156   7.570   1.245  12.775 -0.0057  0.1656 -0.2361
21743W        W35157   0.824   1.907  12.363 -0.1431  0.4013 -0.1418
21744W        W35158   2.849   2.309  13.098 -0.0220  0.1008  0.2965
21745W        W35159  11.899  16.693  15.637 -0.1347  0.0811  0.3681
21746W        W35160   7.823   0.507  10.298  0.0433 -0.0925  0.1503
21747W        W35161   7.646  16.450   9.939 -0.3334  0.0552  0.1100
21748W        W35162  15.120   5.182   3.800  0.2279  0.1618  0.0794
21749W        W35163  14.754   3.664   2.344 -0.0628 -0.2343  0.1035
21750W        W35164  15.318  14.246   1.606  0.0323 -0.1486  0.0408
21751W        W35165   7.079  17.011  13.140 -0.2314  0.1177  0.0550
21752W        W35166  15.438   7.117   4.433 -0.2991  0.1241 -0.1865
21753W        W35167   7.765   9.959   1.398  0.0213  0.1487 -0.0441
21754W        W35168   8.423   7.461  11.421 -0.0677 -0.0344  0.0659
21755W        W35169  14.542   2.697   2.407 -0.1833 -0.1059  0.0253
21756W        W35170  16.617   3.017   5.969 -0.1564 -0.2726 -0.0394
21757W        W35171   1.095   0.305  14.106  0.1553  0.0886  0.0353
21758W        W35172  17.925  12.666  14.512 -0.0576 -0.0640  0.3500
21759W        W35173   5.748   5.078   5.047  0.0444 -0.0411 -0.1603
21760W        W35174  13.717  15.335  10.688  0.0763  0.1930  0.1210
21761W        W35175  18.186  11.308   3.748  0.1427  0.2369 -0.1152
21762W        W35176  14.169   2.189   3.678  0.1653  0.2167  0.0112
21763W        W35177   0.022   5.750  10.080  0.2939 -0.0786  0.2227
21764W        W35178   2.550   1.795  16.088 -0.1338  0.1815 -0.0019
21765W        W35179   6.605   4.232  12.547 -0.0224  0.0552  0.0660
21766W        W35180   9.296  14.445   2.049 -0.0749  0.2342  0.2914
21767W        W35181   2.550   3.309   1.911 -0.0851 -0.2461  0.1544
21768W        W35182   4.222   6.803   5.719 -0.1389 -0.3408 -0.3323
21769W        W35183   4.254   7.860   3.226  0.0984  0.0967 -0.0480
21770W        W35184  16.670  14.858   0.578  0.1623  0.1576  0.0193
21771W        W35185   6.279   7.871  15.715  0.1933  0.1658 -0.0350
21772W        W35186   5.427  10.302   6.534  0.0506 -0.1627 -0.2004
21773W        W35187   1.950  16.629   3.474 -0.0076 -0.1510  0.0005
21774W        W35188  11.745  17.150   0.015 -0.1345 -0.2749  0.1464
21775W        W35189   1.688  11.543   5.681 -0.0958  0.0461  0.2827
21776W        W35190   9.697   7.408   4.958 -0.1001  0.3593 -0.2915
21777W        W35191   0.785   3.577  11.230 -0.1636  0.0642  0.1354
21778W        W35192  16.128  10.042  11.892  0.3478  0.1336  0.2307
21779W        W35193  12.803  17.011   1.438 -0.1205  0.0188  0.0765
21780W        W35194  14.253  12.264  11.631 -0.0890  0.0919  0.1693
21781W        W35195  13.650  15.144  15.370 -0.0045 -0.1494  0.2872
21782W        W35196  14.021  18.097  12.510  0.0946  0.0268  0.0465
21783W        W35197  10.554   7.899   1.792  0.0832 -0.0486 -0.1580
21784W        W35198  11.940  16.368   3.435 -0.2234  0.1491  0.3481
21785W        W35199   8.959   9.984  16.261  0.3691 -0.0692 -0.1959
21786W        W35200   8.398   6.037   4.892 -0.2339  0.0586  0.1029
21787W        W35201   5.654  10.893  16.486  0.1282  0.0647 -0.1044
21788W        W35202  11.623   7.884   1.319  0.0995 -0.0835 -0.2473
21789W        W35203  13.929   1.771   1.461 -0.1028 -0.1910  0.4269
21790W        W35204  16.925   2.832   5.554  0.2214  0.0295 -0.1874
21791W        W35205   3.345  16.706  11.627  0.2316  0.2062 -0.0812
21792W        W35206  10.192   9.353   5.636 -0.2648 -0.2485 -0.1781
21793W        W35207  10.032  15.796  11.674 -0.2608 -0.1276 -0.0641
21794W        W35208   3.856  13.614  14.742 -0.0503  0.2315 -0.0506
21795W        W35209  12.806   3.320   1.592 -0.1281 -0.0162  0.1866
21796W        W35210  12.059  10.444   1.328  0.0745 -0.2383  0.0164
21797W        W35211  10.536  11.988   5.377  0.2397 -0.0031 -0.1681
21798W        W35212  16.964   7.528  14.988  0.1391  0.1682  0.1545
21799W        W35213   1.961   0.875  15.474  0.1615  0.0447 -0.1129
21800W        W35214  16.938  15.854  13.594 -0.1283  0.0393 -0.0737
21801W        W35215   3.669   0.609  14.449 -0.0369 -0.2303  0.1076
21802W        W35216  10.817   3.049   1.059 -0.3749  0.0004  0.4527
21803W        W35217  10.503  11.421  16.042  0.1202 -0.1233  0.1591
21804W        W35218   4.598   3.844  13.924 -0.0195  0.0806 -0.3949
21805W        W35219   5.453   3.165  12.895  0.0333 -0.1281 -0.0985
21806W        W35220  12.388   8.396   0.445  0.0307  0.0869  0.0493
21807W        W35221   5.568   2.703  13.651 -0.1472 -0.0911  0.0501
21808W        W35222  17.514   2.303   2.942 -0.0716  0.1260 -0.0515
21809W        W35223  18.143  17.115   2.935  0.1332 -0.0850  0.0983
21810W        W35224   4.768   4.302   6.309 -0.2301 -0.0680 -0.4245
21811W        W35225  14.478  17.270   5.067 -0.2899 -0.0452  0.1698
21812W        W35226  13.505   4.889   2.859  0.2220 -0.0863  0.0716
21813W        W35227   9.809  13.520   3.464 -0.1084 -0.2669  0.0836
21814W        W35228   6.633  14.191   2.092  0.0966  0.2158 -0.1826
21815W        W35229  11.671  18.132   0.887 -0.2973 -0.1250  0.1486
21816W        W35230   3.548  18.165   0.126  0.0196  0.0107  0.1191
21817W        W35231  16.984  14.077  13.804 -0.1824 -0.2679 -0.2733
21818W        W35232   1.746   0.386   3.535  0.3840  0.3184  0.3704
21819W        W35233   1.442  10.498   4.086  0.1012  0.1479 -0.2226
21820W        W35234   4.684  10.631   0.856 -0.0671  0.0058 -0.0973
21821W        W35235   7.667  15.615   2.445 -0.0607 -0.3948  0.0293
21822W        W35236   7.144  14.266   0.836  0.3086  0.2158 -0.0479
21823W        W35237   0.064   8.433   5.356  0.0277  0.1656  0.0047
21824W        W35238  13.474   4.487   0.619 -0.0170  0.0831  0.2668
21825W        W35239  11.476   9.996  14.824  0.3226 -0.0621 -0.0887
21826W        W35240   1.004   8.042   0.219 -0.0994 -0.1767  0.1096
21827W        W35241  16.123  10.525  11.911 -0.1190 -0.1134  0.1261
21828W        W35242  12.536  12.279  11.030  0.2733 -0.0043 -0.0477
21829W        W35243  10.806   2.546  15.132  0.2506 -0.1277  0.1349
21830W        W35244   1.461  13.708   2.988  0.0241 -0.1105 -0.1832
21831W        W35245  15.021   7.351  15.793  0.3900 -0.1453 -0.2914
21832W        W35246  15.354  16.542  11.713  0.0179  0.1782  0.0989
21833W        W35247  12.656   6.013   4.804  0.0493 -0.1323 -0.1108
21834W        W35248  12.434   0.266  13.950 -0.0185  0.1216 -0.0068
21835W        W35249   0.550   1.901  16.426 -0.3692 -0.0790 -0.1010
21836W        W35250   2.675   2.780   1.866 -0.0521 -0.1369 -0.2295
21837W        W35251   0.480  10.280   1.501 -0.2379  0.0596 -0.0096
21838W        W35252  16.507  10.405  10.807  0.0092  0.0348 -0.3031
21839W        W35253  12.504   3.691   3.181 -0.2433  0.0349  0.0136
21840W        W35254   1.192   4.421  13.758 -0.0871 -0.2094  0.0151
21841W        W35255  16.435  10.846  14.015 -0.4049 -0.1505  0.2069
21842W        W35256   2.287  11.621  12.726 -0.0428 -0.1379  0.1913
21843W        W35257   3.608  14.349  15.915 -0.2114  0.1254 -0.1607
21844W        W35258  13.539   8.901   6.069 -0.2311  0.2702 -0.3686
21845W        W35259  11.127  11.681   0.240 -0.1897  0.2007 -0.1287
21846W        W35260   1.146  15.912  13.220 -0.0547  0.0287  0.4091
21847W        W35261  15.340   8.391   4.823 -0.1412  0.0756 -0.1242
21848W        W35262   1.011   7.974  12.305 -0.2794 -0.0743 -0.0615
21849W        W35263   2.219   4.858  10.573 -0.0019  0.1453 -0.1074
21850W        W35264  10.105  14.272   1.410  0.1134 -0.2034  0.1291
21851W        W35265   4.870  17.017  12.338 -0.0848 -0.0107 -0.0902
21852W        W35266  13.404   0.060   2.561  0.0097 -0.0236  0.1461
21853W        W35267   1.319   0.065   1.164 -0.0615  0.0067 -0.0945
21854W        W35268   9.597   4.618   4.799  0.0161  0.0306 -0.3750
21855W        W35269  18.104   3.335  13.155 -0.1018  0.5215  0.0626
21856W        W35270  15.981  13.933   1.484  0.1609 -0.0073 -0.1583
21857W        W35271   3.957   5.338  13.289  0.0111 -0.0913 -0.0725
21858W        W35272  13.059   9.235   0.647  0.1406  0.0296 -0.0273
21859W        W35273   8.787   5.817   5.127 -0.4344  0.1638 -0.2435
21860W        W35274   8.963  11.261   2.296  0.2200  0.3594 -0.0328
21861W        W35275   8.995  16.071  15.178 -0.1100  0.2920 -0.2674
21862W        W35276   6.294   1.074  14.173  0.1229 -0.0901  0.0863
21863W        W35277  18.214   6.742  14.939  0.1826 -0.0441  0.4194
21864W        W35278   7.584   4.299  10.620  0.0392  0.1120  0.0185
21865W        W35279   7.623  16.837   2.894 -0.2475 -0.0225 -0.0329
21866W        W35280  13.531   6.179   4.579  0.1710  0.0502 -0.0134
21867W        W35281   6.629   3.008  15.803  0.2340 -0.1098 -0.2528
21868W        W35282   2.908   4.338   4.207  0.1418 -0.2411  0.2106
21869W        W35283  10.316  11.289   6.299  0.0240  0.3748  0.0700
21870W        W35284  11.063  10.227   5.257  0.2133  0.4416  0.0464
21871W        W35285   7.803  15.326  12.466 -0.2382 -0.1283 -0.1435
21872W        W35286   1.458  16.878   2.905 -0.0667 -0.0242 -0.0331
21873W        W35287  13.788   7.675   1.743  0.1201  0.0674 -0.0997
21874W        W35288  13.533   5.486  11.713 -0.2359 -0.1266 -0.1234
21875W        W35289  10.794  12.899  13.080  0.2534 -0.0203 -0.1494
21876W        W35290  16.468   1.895  15.726  0.2014 -0.1029  0.3225
21877W        W35291  13.495  16.010   2.110  0.1228  0.2716  0.2626
21878W        W35292   5.488  17.015   1.600  0.0860 -0.0508 -0.3700
21879W        W35293  11.339   1.143   2.625  0.4185  0.0795  0.1627
21880W        W35294   2.257  16.823  14.164 -0.3943  0.1594 -0.0055
21881W        W35295   0.278   1.014   5.639 -0.0550  0.1675  0.1449
21882W        W35296  13.243  14.957   3.497 -0.1226 -0.3369  0.0644
21883W        W35297  12.385   9.246   4.903 -0.0020 -0.2054  0.3985
21884W        W35298  16.185   1.887   2.901  0.0026 -0.1588 -0.1458
21885W        W35299  16.615   3.493  15.989  0.1390 -0.0705 -0.1443
21886W        W35300  13.478  15.691  16.037 -0.1702 -0.0268  0.1203
21887W        W35301   2.274  10.232   1.964  0.0841  0.0211  0.0318
21888W        W35302  13.900  14.222   4.944 -0.1563  0.0214 -0.0882
21889W        W35303   4.545  15.147   4.509 -0.3494  0.1090 -0.2267
21890W        W35304  16.608   3.868   4.847  0.4235  0.1782  0.1226
21891W        W35305   3.305  14.251   2.645  0.0657  0.1284 -0.1033
21892W        W35306  15.376   2.188  12.901  0.0309  0.0194  0.1795
21893W        W35307  13.160   1.863  11.446  0.1548 -0.1084 -0.0910
21894W        W35308   8.306   9.253  11.621  0.2955  0.1486  0.1236
21895W        W35309  13.609  17.216   0.845 -0.1364  0.3405  0.1579
21896W        W35310  10.988  17.631   0.492 -0.1887  0.0403 -0.0471
21897W        W35311   3.792   2.337  12.127  0.1279 -0.4748 -0.1251
21898W        W35312   3.018  14.296   5.911 -0.2943 -0.0015 -0.2400
21899W        W35313  15.577   6.619   2.968 -0.0740  0.1899 -0.0881
21900W        W35314  10.539  17.994  15.829 -0.1764 -0.0476  0.0881
21901W        W35315  11.211  17.271   9.458 -0.0621  0.1525  0.2260
21902W        W35316   6.849  17.100  14.590  0.0614 -0.0424  0.1604
21903W        W35317   0.294   2.675  16.444 -0.0062 -0.2085 -0.0586
21904W        W35318   7.775   8.383  13.372 -0.0842 -0.1399  0.1837
21905W        W35319   1.195   1.453   0.030  0.2232 -0.0272 -0.1181
21906W        W35320  10.744   5.809   4.522 -0.2337  0.2078  0.1679
21907W        W35321  17.923   3.186  15.746 -0.0004  0.0302 -0.1636
21908W        W35322  16.372  17.284   3.272 -0.2645  0.1558 -0.3383
21909W        W35323   6.306   1.712  12.423 -0.2018  0.1299  0.1925
21910W        W35324  16.552  17.959   2.439 -0.0552  0.0594 -0.0049
21911W        W35325   0.637   4.131   1.083  0.2469 -0.1596  0.1757
21912W        W35326   5.154  15.528  13.685 -0.1765 -0.1044  0.0865
21913W        W35327  13.379   3.964   0.675  0.3693  0.1813 -0.1989
21914W        W35328  12.666   7.215   1.417 -0.1179  0.0254  0.0134
21915W        W35329   2.681  16.509  14.545 -0.1034 -0.1464 -0.0037
21916W        W35330   4.313   7.687   6.502  0.0098 -0.0822  0.0437
21917W        W35331  13.979   2.574  12.230  0.0148 -0.1514  0.1229
21918W        W35332  11.727   3.393   2.666 -0.1709 -0.0160  0.4906
21919W        W35333   0.363   8.436   4.260 -0.1592 -0.0468 -0.0300
21920W        W35334  16.556   1.782   0.098  0.1256  0.0109 -0.1929
21921W        W35335  11.064   6.316   0.542 -0.2413  0.1060 -0.0414
21922W        W35336   1.356  11.279  16.237  0.1002  0.0927 -0.2532
21923W        W35337   4.150  15.469   2.215 -0.1759  0.2297  0.3116
21924W        W35338   3.125  12.650  11.702 -0.1687  0.1742 -0.0440
21925W        W35339   7.054  10.906   5.686  0.0389  0.1365  0.0246
21926W        W35340   6.738   1.851   2.879 -0.1514 -0.3700  0.1372
21927W        W35341  10.259   1.874  13.725 -0.2138  0.2247  0.4422
21928W        W35342  12.576  12.635  16.211 -0.0842  0.0571 -0.0504
21929W        W35343   4.955  17.437  15.869 -0.0989  0.1993  0.1772
21930W        W35344   4.323  12.022  11.150  0.0301 -0.0819 -0.0880
21931W        W35345  14.570  15.541  15.938 -0.0031 -0.1264  0.0725
21932W        W35346   0.821  14.715  10.888  0.0112 -0.1271  0.1211
21933W        W35347   0.485  15.255  14.866  0.1892  0.2904 -0.0343
21934W        W35348   2.623   9.504   0.186 -0.1324  0.0899  0.1456
21935W        W35349  10.112   1.139  15.867  0.1611 -0.1048 -0.3481
21936W        W35350   6.021   9.991   2.870 -0.2111  0.1685 -0.3003
21937W        W35351   8.414   0.933  15.958 -0.0248  0.0269  0.0886
21938W        W35352  12.053   5.294   4.659 -0.0576 -0.2865  0.1878
21939W        W35353  11.992   4.753   4.005  0.1392  0.1046 -0.1360
21940W        W35354   0.696   2.853   1.499 -0.1713  0.1085 -0.2171
21941W        W35355  16.102   0.519   1.002  0.0174 -0.2820 -0.2683
21942W        W35356   4.353  16.012  10.254 -0.0305 -0.2063  0.3017
21943W        W35357   6.300  17.329   0.793 -0.0775 -0.4688 -0.0611
21944W        W35358  15.770  10.878  14.547  0.0344 -0.0040 -0.1824
21945W        W35359   8.896   9.996  14.205  0.0621 -0.0267  0.2440
21946W        W35360   1.768   2.240   4.660 -0.1837  0.2832 -0.3274
21947W        W35361   7.224   2.770  10.048 -0.3418 -0.1768 -0.0308
21948W        W35362   4.629   1.935  16.137  0.1642  0.0444 -0.1131
21949W        W35363   5.833   3.359   5.125 -0.0055 -0.0013 -0.0169
21950W        W35364   2.728   5.630   1.981  0.2888 -0.0523  0.2466
21951W        W35365  11.938   2.425   4.866  0.1124 -0.0594 -0.0760
21952W        W35366  13.585  14.304  10.046  0.1620 -0.2065 -0.2549
21953W        W35367  16.133  10.176   2.378 -0.0955  0.1024  0.0055
21954W        W35368   8.005  15.521  15.650  0.2046 -0.1445  0.0492
21955W        W35369  11.059   4.339   5.876  0.0305  0.1689  0.1501
21956W        W35370  12.787   7.656   6.025 -0.1118  0.1171 -0.1489
21957W        W35371   1.639  12.204  15.322 -0.1714 -0.0587  0.0849
21958W        W35372  10.680   4.027  14.200 -0.0969 -0.2165 -0.0036
21959W        W35373  17.989   0.625   1.926 -0.0821 -0.1028  0.0042
21960W        W35374  11.664   4.649  10.529 -0.1226 -0.3320  0.0849
21961W        W35375  17.290  17.297  11.807  0.0825 -0.2164  0.1710
21962W        W35376   1.117  17.040  14.255  0.0069 -0.3163  0.1475
21963W        W35377  12.213  14.452   5.085  0.1983 -0.0881 -0.0070
21964W        W35378   9.669   6.235  11.163 -0.2025  0.2659 -0.2301
21965W        W35379  12.821   7.212  10.777  0.0755  0.2459  0.0240
21966W        W35380  13.876   9.150  15.832  0.2066  0.1236  0.1935
21967W        W35381   2.615   8.080  13.702 -0.0907 -0.2648  0.1038
21968W        W35382   9.569  11.227   0.649  0.0927  0.0471 -0.1382
21969W        W35383   1.483   2.611  11.965  0.2096  0.1658  0.4042
21970W        W35384   6.416   2.636   0.263 -0.0998  0.0432  0.2509
21971W        W35385  18.132  15.135   3.149  0.1418  0.3498  0.2867
21972W        W35386  14.494  14.204  12.666  0.3686  0.0563 -0.2330
21973W        W35387  17.154  12.365  11.243  0.1537 -0.1522  0.0846
21974W        W35388  14.198   0.407   1.127  0.1225 -0.1093 -0.0909
21975W        W35389  17.600   6.814  16.197  0.0401  0.0400 -0.1500
21976W        W35390  18.002   1.653   0.215 -0.0531  0.1880  0.2683
21977W        W35391   3.770   4.558   3.841 -0.2231  0.1180  0.1952
21978W        W35392   9.443  17.889   1.369  0.1127  0.1804 -0.3062
21979W        W35393   0.546   5.766  14.769  0.0277  0.1472  0.0609
21980W        W35394  14.330  10.467   6.622  0.1578  0.2672  0.1249
21981W        W35395   9.368  17.366  12.861 -0.1361  0.2617 -0.0574
21982W        W35396   9.704   9.020  16.450 -0.0176  0.0292 -0.1655
21983W        W35397   3.592   5.191   5.052 -0.3015  0.0015  0.3441
21984W        W35398  15.884  15.275  13.884  0.0887 -0.2879 -0.1753
21985W        W35399  15.007   6.373   1.202  0.2330  0.1132 -0.1799
21986W        W35400  13.847  14.875  14.446  0.1195 -0.0544 -0.0984
21987W        W35401   7.676  15.791  11.637  0.0461 -0.0829  0.0528
21988W        W35402   9.044   2.967  14.634 -0.3305  0.0300 -0.1617
21989W        W35403  16.902   6.225  16.204 -0.2330 -0.0881 -0.0172
21990W        W35404   2.209   9.312   5.297 -0.1484 -0.1080  0.1351
21991W        W35405   4.137   1.774  14.176  0.0410  0.1774  0.0105
21992W        W35406   2.155   7.415   5.125 -0.3761  0.2025 -0.0904
21993W        W35407  10.958   6.179  12.714 -0.2337 -0.0915  0.0342
21994W        W35408   6.612   9.301   5.889 -0.0851 -0.1574  0.2207
21995W        W35409  13.787   8.587   5.294  0.1810  0.2609  0.2111
21996W        W35410  15.248   6.996   6.621 -0.0032  0.0251  0.2202
21997W        W35411   7.760   1.566   4.126 -0.1229 -0.1716 -0.1045
21998W        W35412   3.705   8.959  11.663 -0.0081 -0.0100 -0.1473
21999W        W35413  12.752  10.498  14.239 -0.0070  0.2975  0.0586
22000W        W35414   4.306  11.337   2.709  0.0770 -0.1316  0.3561
22001W        W35415  13.271   1.421   9.752  0.4383 -0.2958 -0.0651
22002W        W35416   1.970   3.983   1.420  0.0339 -0.0396 -0.1040
22003W        W35417   9.745  17.827   5.667  0.1738  0.0893 -0.1013
22004W        W35418   3.446   2.421  15.607 -0.0397  0.0233 -0.1287
22005W        W35419  14.021  11.131  11.372  0.0913  0.2183  0.1839
22006W        W35420  17.341   4.335  10.436  0.1912  0.2620 -0.0712
22007W        W35421  15.307   1.210  14.433 -0.1803  0.1471 -0.2580
22008W        W35422  13.997  11.291  13.669  0.0916  0.0749  0.3345
22009W        W35423   0.491   8.420  15.105 -0.2214  0.2068  0.1604
22010W        W35424  15.557   8.215  14.925  0.0517  0.1138 -0.0021
22011W        W35425  10.205  10.778   5.362  0.1417  0.2039  0.0479
22012W        W35426  15.621   9.661  15.106 -0.0237 -0.0737 -0.0338
22013W        W35427   7.015   2.311   1.122  0.0664 -0.1346  0.3437
22014W        W35428   9.615  12.426   4.390 -0.1463  0.3384 -0.0788
22015W        W35429   2.928  16.812  12.122 -0.0177 -0.0301 -0.1525
22016W        W35430   2.179   7.988   2.652 -0.1769 -0.1732  0.1968
22017W        W35431  11.769   3.825   1.812  0.2520 -0.2286  0.0865
22018W        W35432  15.435  15.431   0.623 -0.1440 -0.1489 -0.0704
22019W        W35433   1.355   6.096  15.092  0.3207 -0.2674  0.2918
22020W        W35434   9.967  12.102  14.739 -0.2086 -0.0156 -0.2899
22021W        W35435  15.833   6.792  11.470  0.1983 -0.0715  0.0381
22022W        W35436  15.755  10.730   1.697 -0.3816 -0.0849 -0.0403
22023W        W35437  12.398   8.371  12.860  0.0714  0.1678 -0.0806
22024W        W35438   4.192   7.972  15.174  0.3084 -0.2623  0.1921
22025W        W35439  14.531   4.186  11.909 -0.0630  0.3263  0.2182
22026W        W35440   7.964  18.057  10.553  0.2018  0.1147 -0.1061
22027W        W35441  13.684   0.618  16.152 -0.2157  0.0346 -0.0922
22028W        W35442  12.345   8.178  16.021  0.0583  0.2583 -0.1748
22029W        W35443  18.004   2.018   5.631  0.1306  0.0716 -0.2978
22030W        W35444  17.308  16.495  15.442  0.0424  0.0225  0.0340
22031W        W35445  10.637   0.330  15.535 -0.1995 -0.6424  0.0239
22032W        W35446  13.592   9.577   3.723  0.0399 -0.0665  0.1565
22033W        W35447   0.347   0.037  15.255 -0.0208 -0.0978  0.2572
22034W        W35448  10.731  12.799  15.476  0.1387 -0.3387 -0.1168
22035W        W35449   2.972  15.493  13.918 -0.1180 -0.0723 -0.1751
22036W        W35450   6.530   2.111   4.613  0.0023  0.0621 -0.0588
22037W        W35451  10.470   3.745  16.296  0.0023 -0.1870 -0.0130
22038W        W35452  13.094   3.091  16.224  0.0247 -0.0773  0.0850
22039W        W35453   4.824  15.704   4.679 -0.0334  0.2634 -0.1298
22040W        W35454  16.850   8.171  12.992 -0.3226  0.0499 -0.1248
22041W        W35455   7.178  10.934   1.480 -0.1772  0.0803  0.1736
22042W        W35456   6.127  10.335  14.085  0.4034 -0.0254 -0.2395
22043W        W35457  10.703   1.851  12.529 -0.3244  0.0132  0.3294
22044W        W35458   1.403   5.292   1.232  0.2947  0.0467  0.0873
22045W        W35459   4.606   3.388   0.495  0.1660  0.1555 -0.2035
22046W        W35460   7.295  15.623  14.435 -0.3250 -0.1207  0.1326
22047W        W35461   9.062  16.052   1.678  0.1662  0.1716 -0.0158
22048W        W35462   0.980  11.782  13.171  0.1960 -0.1883 -0.0998
22049W        W35463  17.357  12.901   2.881 -0.2630 -0.1596 -0.0383
22050W        W35464   2.161   3.443   0.025  0.4414  0.0988 -0.0458
22051W        W35465   1.644   7.064   2.358 -0.0567 -0.0539  0.1987
22052W        W35466   9.913   3.194   0.878 -0.1609  0.2494 -0.0076
22053W        W35467  16.642   9.239   2.557  0.0308  0.1945  0.0109
22054W        W35468   1.455  17.880  10.649 -0.1011 -0.0110 -0.0751
22055W        W35469  13.210   0.110   2.079 -0.1018 -0.0724  0.2127
22056W        W35470   6.862  12.821   3.896 -0.0359  0.0927 -0.0781
22057W        W35471   8.828  10.936   4.231  0.0811 -0.0758  0.0244
22058W        W35472   5.063   9.297   4.897 -0.3131  0.2059 -0.0298
22059W        W35473   8.332  15.479   1.786  0.1037  0.3822 -0.0708
22060W        W35474  11.158   9.241   0.071  0.3898  0.1898  0.0128
22061W        W35475   0.428   0.072   0.185  0.2940 -0.3274 -0.1558
22062W        W35476   3.314  17.097   1.790 -0.2194  0.4003  0.4137
22063W        W35477   1.480   1.876   2.344  0.3703 -0.1726 -0.0202
22064W        W35478   0.206   1.485   4.198  0.1648  0.0885 -0.2291
22065W        W35479  15.825  16.470   2.380 -0.0184 -0.1745  0.1458
22066W        W35480  14.427  10.085   1.665  0.1656 -0.0007 -0.1245
22067W        W35481   0.479   7.276   6.065 -0.0738  0.0871 -0.0075
22068W        W35482   9.282  17.568   9.742  0.1413 -0.0643 -0.1015
22069W        W35483   4.028   8.763   3.962 -0.1548  0.1291  0.3518
22070W        W35484   2.442   4.131  14.133 -0.0292 -0.0218  0.1164
22071W        W35485  12.226  16.386  11.506 -0.3052  0.1804  0.5084
22072W        W35486   0.682  12.473   0.908 -0.1733  0.3393  0.0781
22073W        W35487  15.019   0.348   5.169  0.0579 -0.2340  0.1292
22074W        W35488   6.727  10.844  12.376  0.0344 -0.2528  0.0183
22075W        W35489   9.204  10.140   4.548  0.1625 -0.2707  0.1286
22076W        W35490  14.436  11.960  12.841 -0.1238 -0.1579 -0.0775
22077W        W35491  10.307  16.683  13.359  0.2592  0.2067  0.0286
22078W        W35492   6.953   5.657   4.786  0.1222  0.1048  0.2732
22079W        W35493   8.231   2.305   2.339  0.2607  0.2561 -0.0675
22080W        W35494   6.443   7.076  14.898  0.0215 -0.0956 -0.0780
22081W        W35495  15.413  14.022   4.357 -0.0549  0.2502 -0.0709
22082W        W35496  15.835   5.180  10.965  0.0590  0.2387  0.0400
22083W        W35497   6.024   0.579   0.642 -0.3459  0.0096  0.0281
22084W        W35498  10.438   8.826  11.626  0.0184 -0.1058 -0.2432
22085W        W35499  17.905  13.637  13.251  0.0133 -0.0398 -0.3235
22086W        W35500   9.656   8.526  13.112 -0.0009  0.1055  0.0818
22087W        W35501   7.608   3.075   3.789  0.0144  0.2549 -0.0964
22088W        W35502  10.476   7.098   4.390 -0.1008  0.0029 -0.0111
22089W        W35503   5.397  17.548   1.981 -0.3560  0.2670 -0.1576
22090W        W35504  17.854   4.879  13.753  0.0401  0.2297 -0.1617
22091W        W35505  17.083   3.201   3.911  0.1309 -0.0800  0.0325
22092W        W35506  13.682  13.219   0.712 -0.1274 -0.0366 -0.1794
22093W        W35507   1.983   1.839  14.409  0.2726  0.0150 -0.1231
22094W        W35508  15.837  12.493  16.158 -0.2925 -0.0308 -0.0910
22095W        W35509   5.889   5.419  13.030  0.0345 -0.0317 -0.0965
22096W        W35510   0.406   6.945  14.136  0.0251 -0.2010 -0.2478
22097W        W35511   2.469   0.996   1.694  0.1335 -0.1058 -0.3514
22098W        W35512   3.393   6.243  13.975 -0.2628 -0.0039  0.2891
22099W        W35513  17.457  12.156  10.814 -0.0220 -0.2977 -0.1736
22100W        W35514  13.494   9.071   1.527 -0.0476  0.0964  0.2779
22101W        W35515   0.264   7.999   4.060 -0.0330  0.3672  0.0146
22102W        W35516   8.735  13.319   4.010 -0.2602 -0.1360 -0.0691
22103W        W35517  10.567   5.759   6.387  0.0575 -0.4167 -0.0497
22104W        W35518   0.727   6.909  12.167 -0.2121 -0.2115 -0.2776
22105W        W35519   8.755  15.859  13.596  0.1153 -0.0709  0.1305
22106W        W35520   1.567   9.746   6.602  0.1186 -0.0951  0.0405
22107W        W35521   1.614   6.002   4.019  0.2242 -0.1939 -0.6393
22108W        W35522   4.693   7.954   2.328  0.0106 -0.1327  0.1972
22109W        W35523  12.134   8.666   3.083  0.1867 -0.3883 -0.0053
22110W        W35524  14.571   7.365  14.064 -0.3675 -0.0335 -0.2943
22111W        W35525  13.919   7.490   4.078  0.0411  0.2080  0.5102
22112W        W35526   5.709  11.597   4.519  0.1821 -0.3351 -0.1321
22113W        W35527   6.687  11.366   4.105  0.2625 -0.0709 -0.0941
22114W        W35528   2.170   0.594  11.305  0.0768  0.2235  0.0841
22115W        W35529   7.986  18.208  11.804 -0.1254  0.0002 -0.1784
22116W        W35530   2.870   6.241   1.247 -0.1158 -0.1264  0.2637
22117W        W35531   5.789  12.336  14.427  0.0344  0.0044 -0.0491
22118W        W35532   8.998   6.376   2.453 -0.0561 -0.0839 -0.2725
22119W        W35533   2.359   3.822  12.538 -0.0655  0.0457  0.1726
22120W        W35534  15.639  11.404  12.666 -0.1603 -0.0144  0.1608
22121W        W35535   0.496   1.969   2.121 -0.0831 -0.0335  0.0494
22122W        W35536  14.783   6.896   6.436 -0.0561  0.0501  0.1469
22123W        W35537   9.751  12.093   3.963 -0.0585 -0.3443 -0.1777
22124W        W35538   3.959   6.432   0.197 -0.1288  0.0089  0.1190
22125W        W35539   9.418   4.745   1.026 -0.0454  0.0023  0.1799
22126W        W35540  15.575   4.595  10.716  0.0124 -0.4713 -0.0032
22127W        W35541   2.112   0.385   5.262 -0.2846 -0.0450 -0.1380
22128W        W35542  13.278  11.748   1.896  0.2607  0.0359  0.2117
22129W        W35543   7.965   7.566   1.167  0.0957 -0.2440 -0.1541
22130W        W35544   6.349   8.596   1.890  0.1937 -0.2662  0.0037
22131W        W35545  17.991   4.360  16.498  0.2237 -0.2420 -0.0386
22132W        W35546   2.571  15.554  11.916  0.1370 -0.1783  0.0023
22133W        W35547   8.672   3.858   3.448 -0.1451  0.0478 -0.1764
22134W        W35548   2.284   3.753   4.442 -0.0835  0.0124  0.0981
22135W        W35549  13.801  14.878  11.786 -0.0532 -0.1322  0.1678
22136W        W35550   3.628  16.449   5.069 -0.0178  0.0458 -0.1438
22137W        W35551   5.102   4.728   0.646 -0.0333 -0.2080  0.1346
22138W        W35552  11.124  16.173  15.705 -0.2285 -0.1087 -0.0348
22139W        W35553  18.165   5.715  14.654 -0.0598 -0.1137  0.0848
22140W        W35554  15.254  10.868   1.903  0.3157  0.0243  0.0337
22141W        W35555   3.736  12.667   3.830 -0.0309 -0.0377  0.0767
22142W        W35556   8.215  10.170  15.512  0.5022  0.1121  0.0257
22143W        W35557  16.293   7.688  15.558 -0.0465  0.1153 -0.1444
22144W        W35558  11.211   6.550  11.103  0.0087 -0.0551 -0.1167
22145W        W35559   3.664   3.209   0.558  0.0343 -0.1683  0.0618
22146W        W35560   8.085   0.259   0.337  0.1412  0.2749  0.0951
22147W        W35561  12.493  10.592   1.564 -0.1247 -0.1414 -0.0569
22148W        W35562  11.023  14.282  15.691 -0.1008  0.0792 -0.4816
22149W        W35563  12.296  10.439  12.022  0.2527 -0.0978 -0.2769
22150W        W35564   0.405   3.145  14.841 -0.0356 -0.2797  0.0193
22151W        W35565   0.811   3.750   3.001  0.1895 -0.0146  0.1356
22152W        W35566  10.888   0.982  14.144  0.0761 -0.0854  0.1407
22153W        W35567  18.093   5.212  14.374 -0.2325  0.0750 -0.0407
22154W        W35568   1.568   6.035   1.105 -0.0715  0.0821 -0.0933
22155W        W35569   6.062   4.861  11.499 -0.1131 -0.0079  0.0984
22156W        W35570   0.919  12.002   0.835 -0.1147  0.0760  0.0984
22157W        W35571   9.889   5.903  12.480  0.0055  0.1340  0.0858
22158W        W35572  10.272   1.370  10.215 -0.2749 -0.0307 -0.1742
22159W        W35573  14.719  15.884  11.922  0.0735 -0.0524 -0.1417
22160W        W35574  15.774  13.023   5.206 -0.0200 -0.0823 -0.0446
22161W        W35575  14.227  13.028   1.557 -0.0854 -0.0049 -0.0400
22162W        W35576  14.227   5.130  11.262 -0.2903  0.1547 -0.1309
22163W        W35577  15.509   0.351  15.778  0.2036  0.1370  0.1039
22164W        W35578  14.136   5.780   5.548  0.0912  0.0390  0.1386
22165W        W35579  11.736   6.210   2.759 -0.0325 -0.0950 -0.1190
22166W        W35580  11.605  16.997   2.706  0.2186 -0.1435 -0.2950
22167W        W35581  17.582   2.856   1.314  0.1153  0.2262 -0.4490
22168W        W35582   2.270   9.131   0.715  0.1383 -0.1844  0.1805
22169W        W35583  17.051   9.534  16.237  0.3092  0.0788 -0.1051
22170W        W35584   7.782  17.905   3.072 -0.1114 -0.0379 -0.1679
22171W        W35585  12.514  14.481  12.583  0.2565  0.2599  0.0295
22172W        W35586  15.139   5.926   1.048  0.1624 -0.0798  0.0214
22173W        W35587  11.134   1.251   1.770 -0.2214 -0.1885 -0.2285
22174W        W35588  14.463  10.526  12.542 -0.1662 -0.2214 -0.1277
22175W        W35589  12.403  17.383  10.473 -0.0650 -0.0777  0.1118
22176W        W35590  14.294  10.183  11.137 -0.1284 -0.0358  0.1853
22177W        W35591   5.943  17.169  11.864 -0.0869 -0.2283  0.0104
22178W        W35592  15.366   8.455   1.145 -0.0202 -0.0736  0.3098
22179W        W35593   0.655  14.777  15.671 -0.0967  0.2323 -0.2776
22180W        W35594  15.247  11.949   2.961  0.4393  0.1287 -0.0840
22181W        W35595   7.974  10.747   4.857  0.1739 -0.1176 -0.1797
22182W        W35596   2.113   5.267   3.960 -0.3663  0.0857  0.1659
22183W        W35597   7.490   8.117  13.784  0.1036 -0.2803  0.1627
22184W        W35598  15.464  16.955  15.533  0.0473  0.3259  0.1154
22185W        W35599   2.496  10.700   1.643 -0.0848 -0.2289  0.1494
22186W        W35600   3.189   7.496  15.762  0.3640  0.0009 -0.0139
22187W        W35601   2.100   8.505  11.969 -0.2953 -0.2229 -0.1097
22188W        W35602  13.862  15.358   1.596 -0.1536  0.2925  0.0105
22189W        W35603   0.025  17.153   3.899  0.2152  0.0957 -0.2806
22190W        W35604   9.471  11.945  14.696  0.3004 -0.2783 -0.1421
22191W        W35605  17.728  14.381   1.235  0.2291 -0.2915 -0.2882
22192W        W35606   7.113   3.313   5.085  0.0899 -0.0393 -0.2683
22193W        W35607  14.115   5.153  15.511  0.1854  0.2552  0.0512
22194W        W35608  10.859   1.097   2.821  0.0297  0.2070 -0.0598
22195W        W35609  15.575   8.852  14.918 -0.3246  0.1143 -0.1164
22196W        W35610   6.043  13.722   3.558  0.0638  0.1323  0.2926
22197W        W35611   8.469   1.304   3.525  0.0102 -0.1908 -0.0093
22198W        W35612   1.142   7.802  13.274 -0.2787 -0.0543 -0.1015
22199W        W35613  17.162  11.804   2.647  0.0681  0.1090 -0.3210
22200W        W35614   3.283   6.229   5.733 -0.2127 -0.1350  0.0307
22201W        W35615   3.008  16.870  10.805  0.1453  0.0750 -0.0900
22202W        W35616  15.191   7.985  13.770  0.1429  0.0500 -0.1561
22203W        W35617   7.377   7.607   3.689  0.0001 -0.0303  0.1707
22204W        W35618   2.073  12.439  13.186 -0.2080 -0.0907  0.0516
22205W        W35619   2.449  13.985   2.295 -0.1134 -0.2901 -0.2327
22206W        W35620  14.933   2.205   4.041  0.2167 -0.0490 -0.1236
22207W        W35621   6.597   2.214   1.472 -0.2069 -0.1782 -0.1254
22208W        W35622   2.753   9.560   1.474  0.0214  0.0179 -0.2795
22209W        W35623  18.049   7.328  12.272  0.1139 -0.1733 -0.2769
22210W        W35624  12.362   3.413   1.883  0.0444 -0.0195  0.1998
22211W        W35625  12.878  11.259   3.073  0.1012  0.0814 -0.1316
22212W        W35626   0.494   6.843  15.880 -0.2766  0.0160 -0.1819
22213W        W35627  12.494   9.330   4.362 -0.1072 -0.0797 -0.0738
22214W        W35628   3.402  12.402   1.048  0.2900 -0.2875 -0.0333
22215W        W35629  18.144  14.186   2.132 -0.3435  0.1891  0.3207
22216W        W35630  17.328  15.583  13.338 -0.1524  0.3274 -0.1440
22217W        W35631   4.543  16.266   2.403 -0.1208 -0.0179  0.1560
22218W        W35632   5.210   1.280   5.552  0.2526 -0.0135  0.2154
22219W        W35633   1.409  11.152  13.448 -0.1282 -0.2121  0.1220
22220W        W35634  12.945   8.298  13.867 -0.2565  0.0922  0.3028
22221W        W35635   8.290   7.116   5.651 -0.0463  0.4217  0.2892
22222W        W35636  16.428   7.529  11.517 -0.1069 -0.3101 -0.0755
22223W        W35637  14.694  16.648  11.156 -0.0753  0.2410  0.0217
22224W        W35638   0.464  12.081   1.144 -0.1935 -0.1431  0.1893
22225W        W35639   3.168   4.690   5.755 -0.1314  0.0411  0.0771
22226W        W35640  18.161  15.540   3.537 -0.2012 -0.1256 -0.2704
22227W        W35641  10.316   8.790   2.352  0.1352 -0.2481 -0.2928
22228W        W35642   4.445  13.865  13.299  0.1323  0.1343 -0.0313
22229W        W35643   9.958  13.777  15.400 -0.0639  0.4501  0.2318
22230W        W35644   7.912   9.075  15.410 -0.1608 -0.0819  0.3624
22231W        W35645  10.398   4.868   1.068  0.3165  0.3280  0.0691
22232W        W35646   1.055  15.100   1.562  0.2764 -0.0260 -0.2922
22233W        W35647  10.773  15.647   4.825 -0.1747  0.0513  0.0171
22234W        W35648   1.301  17.302  12.607  0.2623  0.0235  0.1464
22235W        W35649   7.138   9.539  13.144  0.0602  0.2154 -0.0541
22236W        W35650   5.908   7.107   4.002  0.0964 -0.0633  0.0152
22237W        W35651   9.683  16.885   4.661 -0.0391  0.0971  0.2499
22238W        W35652  16.516  13.002  10.148  0.0682 -0.3192  0.1023
22239W        W35653   1.653  14.583  11.343 -0.1286  0.0794  0.0316
22240W        W35654   7.499  11.891  11.101 -0.4301  0.1168 -0.0465
22241W        W35655   3.609   6.819   5.297  0.0691 -0.1694 -0.2032
22242W        W35656  15.165   5.115   4.702  0.0510 -0.2010 -0.1411
22243W        W35657  15.827   0.901   4.901  0.1450 -0.0307 -0.0549
22244W        W35658  14.898   1.685   4.041 -0.1368  0.0249  0.4305
22245W        W35659  15.683  11.203   5.736  0.0322 -0.3011 -0.0398
22246W        W35660   3.466  10.694  11.919  0.0219 -0.2280  0.1079
22247W        W35661   6.946  15.780  14.751  0.1964 -0.2748  0.0977
22248W        W35662   4.548   9.362  15.332  0.0504 -0.2154  0.1633
22249W        W35663   9.493  12.983  12.433  0.1155  0.0972 -0.0468
22250W        W35664   1.066   6.089   4.203  0.0885 -0.0486 -0.0013
22251W        W35665   9.286   6.941   1.330 -0.0038  0.1461  0.1393
22252W        W35666   0.786   8.333  14.141 -0.0332  0.0597 -0.1761
22253W        W35667   3.775  11.918   5.574  0.0510 -0.1934 -0.3620
22254W        W35668  15.184  15.276  13.249 -0.1764  0.1923 -0.0732
22255W        W35669   3.826  11.452  15.136  0.2740  0.0716 -0.3287
22256W        W35670   4.523  12.258   2.689 -0.1921 -0.0394 -0.0382
22257W        W35671   0.509   2.540  13.708 -0.0238 -0.0681 -0.2032
22258W        W35672  15.636  14.488  12.096  0.3215  0.1916 -0.2267
22259W        W35673  11.913   1.888   1.231  0.0578 -0.1324 -0.0656
22260W        W35674  17.509  17.352   0.626 -0.0250 -0.0564 -0.1169
22261W        W35675   2.416  16.332  14.151  0.1562  0.1369 -0.1132
22262W        W35676  17.464   0.604   1.902 -0.1676 -0.1372  0.1436
22263W        W35677  14.678  16.331   4.874 -0.3514  0.0363  0.0553
22264W        W35678  11.141  13.701   1.170  0.0660  0.1041 -0.0252
22265W        W35679   9.900  15.412  15.286  0.1507  0.1800 -0.2765
22266W        W35680  15.078   8.631  10.475 -0.1760  0.0933  0.0791
22267W        W35681  17.935  10.897   1.185 -0.3842  0.2571 -0.1158
22268W        W35682  14.740   4.972  13.752  0.1513 -0.1714 -0.2290
22269W        W35683   6.384  16.343  11.943 -0.4820  0.1122  0.1445
22270W        W35684   0.854   3.348   4.308  0.1807  0.1379  0.1885
22271W        W35685  16.572  15.715   1.640 -0.0347 -0.2833  0.2164
22272W        W35686  14.337   2.999   3.409  0.3024 -0.0200 -0.3699
22273W        W35687   7.525   3.568   0.190  0.1071 -0.1868  0.1972
22274W        W35688  13.788   8.172  12.098 -0.0868 -0.1047  0.2484
22275W        W35689   8.905  10.390   2.231 -0.1481 -0.1601  0.1048
22276W        W35690  11.011  12.853  16.493  0.2206 -0.2503 -0.1238
22277W        W35691   9.458   6.671   5.866  0.0038 -0.0110 -0.0365
22278W        W35692  13.606   7.183   3.637  0.2413  0.0217  0.2361
22279W        W35693   5.196   8.542   3.181 -0.0563  0.0004 -0.0585
22280W        W35694  11.355   7.415   0.270  0.1229  0.0191  0.3690
22281W        W35695  10.709   6.077  11.312 -0.2769 -0.2505 -0.0707
22282W        W35696   2.928   1.588  16.359 -0.0145 -0.3175 -0.1728
22283W        W35697  14.908  13.889   1.874  0.0163 -0.1063 -0.0304
22284W        W35698  14.227   3.678   2.246  0.1931 -0.1228 -0.0217
22285W        W35699   2.043  11.457   1.242 -0.0430  0.1910 -0.0528
22286W        W35700   8.476  14.451   5.838 -0.0200  0.0904 -0.1321
22287W        W35701  15.662   9.177  15.283  0.2116 -0.1586 -0.3247
22288W        W35702   0.773   2.851  11.636  0.3976  0.2577  0.0194
22289W        W35703   3.806  17.192   4.750 -0.2747  0.3835  0.2034
22290W        W35704  11.073  15.978  15.238 -0.0670 -0.2337  0.2806
22291W        W35705   0.349  11.369  15.294  0.1992  0.1711  0.0854
22292W        W35706  14.716   9.910  11.301  0.1146 -0.0674  0.2685
22293W        W35707  14.900  13.355  12.081 -0.4172 -0.0117  0.0447
22294W        W35708   4.777  14.416   3.396  0.2808  0.2019  0.0738
22295W        W35709   4.369   8.422   2.273  0.3340 -0.0294 -0.2426
22296W        W35710  12.566  11.995   5.351  0.1343  0.0789  0.2799
22297W        W35711  11.106   6.791   3.715  0.0881 -0.0117 -0.1879
22298W        W35712   2.425  12.907   2.184 -0.2562  0.0334 -0.0193
22299W        W35713   0.094   5.236   3.673  0.1961  0.1599 -0.4704
22300W        W35714  11.254   7.881   2.245  0.2109  0.1573 -0.0357
22301W        W35715  11.272  10.515   0.653  0.5116 -0.1061 -0.2249
22302W        W35716  16.062  15.519  10.509  0.0395 -0.0401  0.3062
22303W        W35717   6.142   2.221   1.837  0.2353  0.0244 -0.2300
22304W        W35718  12.934  17.074  14.706 -0.0969  0.1763 -0.2086
22305W        W35719   4.437   5.758  14.672 -0.1243  0.3405 -0.1078
22306W        W35720   5.557   4.637   0.894  0.1257 -0.2613 -0.4135
22307W        W35721  14.309  16.225  14.048 -0.0741 -0.0097 -0.0945
22308W        W35722  11.699   1.043   4.261  0.0721  0.0030  0.0952
22309W        W35723   6.070   4.031   1.423  0.0082  0.1889 -0.2054
22310W        W35724   6.284  15.626   5.619  0.1089  0.3422  0.0158
22311W        W35725  10.793   4.575  12.677 -0.0225 -0.1390  0.2323
22312W        W35726  11.583  17.738  11.869  0.2155 -0.0324 -0.0250
22313W        W35727   0.602   4.281   2.122  0.1985 -0.1078 -0.0491
22314W        W35728   2.917   5.885   4.654 -0.2003 -0.3877 -0.3823
22315W        W35729  17.239  12.579  15.046 -0.1625 -0.1689  0.1052
22316W        W35730   0.815  11.128  11.346 -0.2178 -0.0561 -0.0875
22317W        W35731   2.360   6.615   3.041  0.0300  0.0080 -0.1036
22318W        W35732  11.304  11.926   0.629  0.1296 -0.0882  0.1638
22319W        W35733   1.042  17.532  14.193 -0.1303  0.3049 -0.3497
22320W        W35734   2.522  11.916   5.896  0.1999  0.2876  0.1742
22321W        W35735  10.441  11.923  11.478 -0.0648  0.0475  0.1582
22322W        W35736   5.603   3.240  11.393  0.1263 -0.5099  0.2342
22323W        W35737  10.997   8.267  11.143 -0.3715 -0.2540  0.3353
22324W        W35738  12.037  16.760  11.793 -0.0597 -0.0237 -0.0415
22325W        W35739  11.092  12.976  13.963 -0.0917  0.1318 -0.0629
22326W        W35740   4.543  15.464  15.769 -0.1690  0.1660 -0.0487
22327W        W35741  15.278  18.134   0.583 -0.2012  0.0501 -0.2863
22328W        W35742   0.560  17.042  16.082 -0.0983  0.0321 -0.0137
22329W        W35743   1.892   5.697   5.638  0.1580 -0.0535  0.2787
22330W        W35744   5.208  14.325   5.288 -0.1088  0.0129  0.0277
22331W        W35745   6.080   6.113   3.973 -0.1614 -0.0334  0.1935
22332W        W35746  14.627   5.229   2.984 -0.2488  0.3187 -0.0239
22333W        W35747  14.984   8.458   2.570 -0.2025  0.1023 -0.0931
22334W        W35748  15.672  18.180  15.092 -0.0463  0.0889 -0.1155
22335W        W35749   2.986   2.518   1.428 -0.1440 -0.2501 -0.1578
22336W        W35750  15.631  17.045   1.802  0.0414 -0.1444  0.1369
22337W        W35751  12.559   6.601  12.096  0.0985 -0.2258 -0.0028
22338W        W35752   3.850   8.778   3.008  0.2696 -0.1125 -0.2155
22339W        W35753  16.807   9.303  15.842  0.4399  0.0779 -0.0730
22340W        W35754  14.734  12.523  12.544  0.2101 -0.1625  0.1350
22341W        W35755  13.244   8.315  15.958  0.2349  0.1718 -0.0891
22342W        W35756  12.914   7.663  11.958 -0.0316 -0.1006  0.1668
22343W        W35757  11.528   8.047   0.658  0.0481  0.0199 -0.1452
22344W        W35758   9.026  12.731   0.327 -0.0593  0.1833 -0.1228
22345W        W35759   8.546   5.527  14.876 -0.1240  0.2392 -0.0336
22346W        W35760  16.699   7.427  15.391 -0.1091 -0.0203 -0.0977
22347W        W35761  12.792   6.225   3.173 -0.0381 -0.0825  0.3970
22348W        W35762   0.948   1.463  15.755 -0.1110  0.1082 -0.2231
22349W        W35763   5.669  11.445   1.975 -0.0147 -0.1702  0.1592
22350W        W35764  16.812   8.299   0.034 -0.1230  0.2534 -0.1221
22351W        W35765   3.422  12.214  15.908  0.3185  0.2391  0.1563
22352W        W35766   3.120   5.456  15.533 -0.1546 -0.0255  0.3117
22353W        W35767  15.818   8.878  11.645 -0.0973 -0.0548 -0.0153
22354W        W35768   9.054   7.284  14.773  0.1495  0.0157 -0.0784
22355W        W35769   7.225   6.373   1.956 -0.0366 -0.0439  0.0711
22356W        W35770   0.242   9.356  13.622  0.0647 -0.1274 -0.3418
22357W        W35771   0.249   0.344  16.233 -0.2811  0.3817  0.1116
22358W        W35772   8.866  17.514  12.804 -0.1531  0.0291 -0.3348
22359W        W35773  11.885   5.845  10.619  0.1745  0.0996  0.0133
22360W        W35774  12.673   2.262   1.012 -0.1520  0.0486  0.0080
22361W        W35775   5.439  14.900   2.034 -0.0509  0.1679 -0.0328
22362W        W35776  13.030   3.899  11.717  0.2913  0.1976  0.0016
22363W        W35777   2.832   8.549   1.282  0.0247 -0.1086  0.3468
22364W        W35778  17.279   1.787  10.851  0.2149  0.3015 -0.2188
22365W        W35779  10.989   8.890   0.357  0.0013 -0.0419 -0.1379
22366W        W35780  13.792  10.858   2.821  0.3677 -0.1983 -0.0518
22367W        W35781   0.973  13.886   3.037  0.1961 -0.1128 -0.0966
22368W        W35782   4.948  11.524   4.614 -0.0906  0.0990  0.3781
22369W        W35783  12.657   6.562  14.156 -0.0022 -0.0301  0.0150
22370W        W35784   8.244  16.742  11.840  0.0540  0.0975  0.2350
22371W        W35785   2.883   0.822  15.737  0.2183 -0.0189 -0.0421
22372W        W35786  13.216   0.345   3.344 -0.2003  0.4223  0.1324
22373W        W35787  16.874  17.991  14.081  0.2529 -0.4509 -0.0073
22374W        W35788  16.573  17.061   4.630  0.2266 -0.0760  0.1558
22375W        W35789  16.356   5.641  14.299 -0.0994 -0.1334  0.1530
22376W        W35790   8.091   4.196  15.776  0.1752 -0.1721 -0.0106
22377W        W35791  17.180   0.410   5.807  0.0629 -0.2499  0.4065
22378W        W35792  18.133   3.548  11.592 -0.0162  0.0970 -0.0630
22379W        W35793   5.153   0.415   2.314  0.1482  0.0766 -0.2589
22380W        W35794  17.341   0.623   3.791 -0.2358 -0.2908 -0.0392
22381W        W35795   6.614   7.641  16.060  0.3558 -0.3898  0.4046
22382W        W35796  16.746   7.055   2.746  0.0356 -0.1606 -0.2203
22383W        W35797  15.906   5.897   3.935 -0.2736  0.1072  0.1392
22384W        W35798  16.586  15.940  12.632  0.1023 -0.1802 -0.2782
22385W        W35799  11.627   5.905  15.778  0.0953 -0.3789  0.0765
22386W        W35800   1.408  13.487  10.517 -0.0355  0.1632 -0.0268
22387W        W35801   7.800  16.849  10.884  0.1510 -0.1244  0.1604
22388W        W35802  15.430   8.253  13.380  0.0971  0.2083 -0.3127
22389W        W35803   6.631  17.012   2.573 -0.1719  0.0542 -0.2164
22390W        W35804   5.946  15.256  15.115  0.0479  0.1988  0.0833
22391W        W35805   0.920   4.727   2.164  0.0679  0.0065 -0.0148
22392W        W35806   4.186  12.620  11.741  0.0945 -0.1797 -0.2838
22393W        W35807   1.186   0.688  12.315 -0.0801 -0.0804  0.1721
22394W        W35808   8.055   5.528  13.284 -0.1274  0.2220  0.3380
22395W        W35809   4.869   1.855   6.363  0.2046 -0.0531  0.3053
22396W        W35810   3.064  17.299  13.082 -0.0452  0.1201 -0.2485
22397W        W35811  16.714  13.052   4.188  0.3071  0.1827  0.0013
22398W        W35812  15.128   0.478   1.971  0.0667  0.1360  0.2068
22399W        W35813  13.001   3.851  10.534 -0.1269 -0.1132  0.0866
22400W        W35814   7.340   3.606  16.093  0.5806  0.0293  0.0486
22401W        W35815   8.727   2.857  15.960  0.0707 -0.0999  0.0771
22402W        W35816   2.250   5.247  14.696 -0.1678  0.0493 -0.0371
22403W        W35817   6.943   5.953  10.344 -0.3026  0.3457 -0.4602
22404W        W35818   9.936   2.011   3.664 -0.0666  0.0491 -0.1398
22405W        W35819   6.196   6.081  11.433 -0.1506  0.0369  0.2310
22406W        W35820  10.770  10.912  12.629 -0.1623  0.0465 -0.1175
22407W        W35821   8.764   6.012  12.337 -0.5741 -0.1044  0.0673
22408W        W35822  16.029   3.277   0.251 -0.0730  0.2364  0.2487
22409W        W35823  16.007   2.319   1.999  0.0543  0.1029 -0.3464
22410W        W35824  13.697   9.330  11.548  0.0902 -0.0975 -0.2330
22411W        W35825   1.485  17.651  13.548  0.0077 -0.1917  0.0952
22412W        W35826  17.781   2.613  15.473 -0.2149 -0.3634  0.1922
22413W        W35827   3.632  13.519   2.508  0.0297  0.0395 -0.0065
22414W        W35828   1.233   6.385   1.314 -0.0465 -0.0330 -0.2215
22415W        W35829  14.251  14.921   2.488  0.1619 -0.1556  0.1102
22416W        W35830   0.953   1.416   2.793  0.1762  0.3667 -0.0578
22417W        W35831   1.617   2.316   4.172 -0.4223 -0.2792 -0.2095
22418W        W35832  14.736   8.758  15.913  0.1335 -0.0077 -0.2873
22419W        W35833   8.589   3.732   2.802  0.1563 -0.2168 -0.2662
22420W        W35834  13.674   1.204  11.049  0.0583  0.2022  0.0373
22421W        W35835  15.012   9.105   4.105 -0.0357 -0.0792  0.1978
22422W        W35836   0.364   0.647  10.821  0.3336  0.2572  0.0771
22423W        W35837   4.815   6.750  12.562  0.3364 -0.1224  0.0457
22424W        W35838   3.126  14.738  13.671 -0.3023  0.1098  0.0507
22425W        W35839   1.175  12.644  12.902  0.0725 -0.0140 -0.0421
22426W        W35840  12.118  15.135  14.970 -0.1638  0.0096 -0.1152
22427W        W35841   7.063   2.602  12.121  0.0303 -0.0812 -0.3023
22428W        W35842  16.843   3.580   5.216 -0.0384 -0.0256 -0.0104
22429W        W35843  12.896  12.669  14.508  0.0741 -0.3602 -0.0450
22430W        W35844  11.703  14.893   2.453  0.0916  0.1257 -0.0163
22431W        W35845  13.926   5.011   0.508 -0.2642 -0.0553  0.1539
22432W        W35846  13.665  14.132  12.704  0.3536 -0.1989  0.1899
22433W        W35847   0.571   5.321  15.058  0.1396  0.0154 -0.1243
22434W        W35848  14.752   2.149   5.087  0.0809  0.0076 -0.2479
22435W        W35849  16.740  13.895  10.558  0.0642  0.0640  0.3935
22436W        W35850   0.827   7.289   5.174 -0.2046  0.1093 -0.2009
22437W        W35851   5.765   6.201   6.037 -0.2079  0.1282  0.3300
22438W        W35852  17.508   7.850  13.991  0.0438  0.2514  0.0937
22439W        W35853   4.841  11.437  16.004 -0.0426  0.0790 -0.1421
22440W        W35854   7.703   2.751   1.653 -0.2341  0.1882  0.2252
22441W        W35855   1.274   8.335  14.190  0.0900 -0.0729 -0.1591
22442W        W35856   9.068   0.652   3.377 -0.1393 -0.0872  0.0418
22443W        W35857   8.981   6.752   5.993  0.1428 -0.0574  0.1913
22444W        W35858  13.717   6.178  11.135 -0.1397 -0.1272  0.0708
22445W        W35859  17.794  10.828  11.868  0.1919 -0.2990 -0.1197
22446W        W35860  10.910   0.454   1.486  0.0522 -0.1090 -0.0678
22447W        W35861  16.395  12.651  14.674  0.1378  0.0593 -0.1305
22448W        W35862   1.819  13.374   2.526 -0.3783 -0.1527  0.1030
22449W        W35863  10.974  10.245  14.994 -0.2769 -0.3340  0.2611
22450W        W35864   7.184   6.235  16.295  0.1293 -0.2741 -0.2408
22451W        W35865   0.975   1.780  10.926  0.2146 -0.0472 -0.0332
22452W        W35866   2.397   4.522   1.141 -0.0499  0.1090 -0.0277
22453W        W35867  17.662   7.387  15.339  0.4942 -0.0397  0.2897
22454W        W35868  12.333  14.839  10.074  0.1478  0.2094  0.0550
22455W        W35869   9.980   9.292   3.560  0.0060  0.0294 -0.1549
22456W        W35870  16.064  10.000  15.137 -0.1579  0.0620  0.0708
22457W        W35871  16.970   5.441  13.432  0.0012  0.0790 -0.0696
22458W        W35872  11.183   3.210  14.628 -0.0589  0.1425 -0.0900
22459W        W35873  13.549  14.660  15.512  0.0119 -0.1981 -0.0934
22460W        W35874   3.645   1.150  13.588  0.2653 -0.3924 -0.2170
22461W        W35875   2.544  15.454   4.920 -0.0439  0.0234  0.0094
22462W        W35876   8.817  12.297   4.526  0.1284  0.0276  0.4320
22463W        W35877   2.114  15.304  12.998  0.0555 -0.0853 -0.0321
22464W        W35878  15.101  12.693  10.092 -0.1073 -0.0623 -0.1099
22465W        W35879  11.554   2.119   4.524  0.0100  0.0364  0.3467
22466W        W35880  13.905   5.320   5.503 -0.1032  0.1344  0.0311
22467W        W35881   2.787  17.084  10.316 -0.0969 -0.1425  0.1132
22468W        W35882   6.311  11.530  12.150 -0.0631  0.1791  0.0008
22469W        W35883   3.820   2.636  13.770 -0.0187  0.0311  0.1152
22470W        W35884  17.000   1.119   0.602 -0.2741 -0.3101 -0.2462
22471W        W35885   0.649   7.535   3.597  0.3330  0.0076  0.1182
22472W        W35886  15.786  18.164   0.409 -0.1025  0.0521 -0.0854
22473W        W35887  16.056  14.621  15.905 -0.1921  0.1542 -0.0279
22474W        W35888   5.129   9.220   3.849 -0.0768 -0.0680 -0.2488
22475W        W35889  14.744   3.058  15.598  0.1186  0.0904  0.0477
22476W        W35890   9.138   4.166  12.390 -0.1480  0.0997 -0.1258
22477W        W35891   8.662   9.615  13.846  0.1139  0.0891  0.0907
22478W        W35892  12.171   7.426  13.047  0.0528 -0.1866  0.2723
22479W        W35893  13.086   9.786   1.429  0.0452 -0.1757  0.3101
22480W        W35894  13.532  12.372  13.396  0.1420  0.2757 -0.1224
22481W        W35895   2.072   7.366   3.487 -0.1214  0.0634  0.0584
22482W        W35896  17.006  13.099   2.022  0.0585  0.1996 -0.0203
22483W        W35897   1.971  14.670   5.030 -0.0595 -0.2143  0.1344
22484W        W35898  12.804  13.024   1.358  0.0819  0.0812 -0.3120
22485W        W35899  13.700   5.563   5.883 -0.2288 -0.1624 -0.4060
22486W        W35900   9.328   9.293  11.164  0.2450 -0.1876  0.1101
22487W        W35901   8.339   6.293  12.159  0.1905  0.1225  0.1447
22488W        W35902  16.089   0.413  15.587 -0.2457  0.1469 -0.0857
22489W        W35903  10.914   2.646   4.403 -0.0964 -0.1031  0.0524
22490W        W35904  13.037   6.347  13.291 -0.2335 -0.0970  0.0887
22491W        W35905   7.916   2.639  10.895 -0.2055 -0.2740 -0.0625
22492W        W35906   6.317   9.211   1.363 -0.1605 -0.1297  0.0087
22493W        W35907   3.076  15.278   2.722  0.3113 -0.1543 -0.1911
22494W        W35908  16.164   6.693  13.159  0.0181 -0.2479  0.2066
22495W        W35909   6.352   9.475   4.232  0.1038  0.1563 -0.2463
22496W        W35910  10.243  11.201  12.115 -0.0932  0.1099 -0.2106
22497W        W35911   5.062  15.948  15.732 -0.1394  0.1005  0.0416
22498W        W35912  17.118   9.312   2.443  0.2129  0.0405  0.2550
22499W        W35913  17.859  17.367   3.382  0.2380  0.0677 -0.0031
22500W        W35914   5.986   2.316  15.968 -0.0617 -0.3404 -0.2177
22501W        W35915   1.422   8.868   5.132  0.2652  0.0565  0.0202
22502W        W35916   3.465   1.957  13.021 -0.0881 -0.3049  0.1394
22503W        W35917  18.111  16.505  10.560 -0.1598 -0.1830  0.1073
22504W        W35918   6.535   5.950   5.569  0.0536 -0.2982 -0.0460
22505W        W35919   9.234   5.257  14.096  0.4444 -0.1180 -0.1221
22506W        W35920  10.958  16.417   0.290 -0.0516 -0.1044  0.1069
22507W        W35921  18.104   1.788  15.420 -0.2230 -0.2053  0.0561
22508W        W35922   2.220   9.113   4.509  0.1299 -0.0773 -0.0529
22509W        W35923  14.071   5.219   1.002  0.1814 -0.0934 -0.3372
22510W        W35924   7.778  17.324  15.020 -0.2463  0.2106 -0.0773
22511W        W35925  15.477   5.810   5.391  0.0993  0.0968  0.1242
22512W        W35926   2.425   7.677  11.374  0.0596  0.1301  0.3502
22513W        W35927   2.145   6.912   5.808  0.0421 -0.2884  0.3137
22514W        W35928   9.209  10.862   2.831  0.1358  0.0067  0.0184
22515W        W35929  10.981  15.587  13.550 -0.0110 -0.0180 -0.0786
22516W        W35930  15.136   2.888   1.772 -0.2497  0.3217 -0.1591
22517W        W35931   6.641   4.626   2.713 -0.0161  0.0240  0.3565
22518W        W35932   9.250   7.268   5.077 -0.1899 -0.3703  0.0602
22519W        W35933  16.770   8.191  11.264  0.2075 -0.1060  0.0449
22520W        W35934   1.328   7.960   3.007  0.0768 -0.0063  0.2513
22521W        W35935   4.230  17.442  13.838  0.0424  0.0057  0.1675
22522W        W35936  14.339  14.451   5.638 -0.2399 -0.5134  0.0494
22523W        W35937   0.589  16.407   1.605 -0.1458 -0.1412 -0.0066
22524W        W35938   7.927  11.329   1.391 -0.1352 -0.0851 -0.4569
22525W        W35939   4.455   5.182   0.336  0.1132 -0.0687 -0.1084
22526W        W35940  16.100   2.490   0.540  0.1342  0.0392 -0.1984
22527W        W35941  15.127   4.596   3.870 -0.0131  0.0632 -0.1626
22528W        W35942   2.189  11.418   0.743  0.0764  0.2961  0.4367
22529W        W35943  13.010  16.602  14.035  0.0198  0.1310  0.2029
22530W        W35944   5.545  11.290   2.449 -0.4658  0.0636  0.1603
22531W        W35945  16.150  10.530   2.752  0.0521 -0.1050  0.3933
22532W        W35946   9.962   6.094  15.946  0.0488 -0.1946  0.0157
22533W        W35947   8.183  12.615   4.149  0.0334 -0.0186  0.1453
22534W        W35948  14.711  17.903   1.371 -0.3358 -0.0556 -0.0066
22535W        W35949   0.409  16.247  11.746 -0.0428  0.0193  0.1346
22536W        W35950   4.211  12.180   1.539 -0.1217 -0.2739  0.4264
22537W        W35951   5.260  11.534   2.855 -0.1811 -0.1849 -0.0496
22538W        W35952  13.265   4.736   3.315  0.2390 -0.3826  0.0818
22539W        W35953   3.587   1.732   0.578  0.0385  0.1164 -0.0333
22540W        W35954  12.698  10.956   5.383  0.2719 -0.2246  0.0578
22541W        W35955   5.556  16.569  14.208 -0.1678  0.0467  0.0746
22542W        W35956  12.414   9.733   5.079 -0.2253 -0.1733  0.1304
22543W        W35957   6.520  10.496   0.071 -0.2226  0.1131  0.0414
22544W        W35958  13.913  13.977   3.987 -0.0033  0.1641  0.0154
22545W        W35959   4.635   7.356  11.174  0.0407  0.0712 -0.5516
22546W        W35960   7.792   7.535  12.508 -0.1051 -0.1423  0.0127
22547W        W35961  15.676   4.263   5.574  0.3167 -0.1680  0.2121
22548W        W35962   8.296   0.345   4.898 -0.0265 -0.0861 -0.0972
22549W        W35963  14.760  10.671   1.069  0.0781  0.0308  0.2588
22550W        W35964  11.898   4.776  11.865  0.0289 -0.0274  0.3031
22551W        W35965  10.804   9.994  12.036 -0.0947  0.1841 -0.1774
22552W        W35966   9.086  16.049   4.416 -0.0730  0.1625  0.3094
22553W        W35967   9.871   4.879   3.272  0.1850  0.1296 -0.1043
22554W        W35968   0.006   4.455   5.540  0.3799 -0.3262 -0.1869
22555W        W35969   5.070  11.198  16.427  0.0958  0.0620  0.0419
22556W        W35970  12.340  12.207   4.721 -0.1402 -0.1081  0.3431
22557W        W35971   1.436   6.129   2.277  0.1667  0.2206  0.4931
22558W        W35972  13.903   5.522  16.090  0.2420 -0.0440 -0.2317
22559W        W35973   2.668   8.059   0.027 -0.0515 -0.1238 -0.1976
22560W        W35974  10.100  17.007   3.445 -0.0315 -0.4310  0.2924
22561W        W35975  12.136  16.166   2.152  0.3093  0.1854 -0.0848
22562W        W35976   6.581   0.396   0.712 -0.1909  0.0091 -0.0482
22563W        W35977   4.719   5.538  13.237  0.0377  0.2637 -0.2181
22564W        W35978   2.256  14.219   1.878  0.3029 -0.0179 -0.1004
22565W        W35979  16.895   9.460   1.530 -0.2582 -0.0338 -0.3889
22566W        W35980   3.699  10.031   1.482 -0.0485  0.1098 -0.0421
22567W        W35981  18.068  18.115   1.477 -0.2090  0.1609 -0.0641
22568W        W35982   2.365   3.380  15.337  0.0201 -0.0180 -0.2120
22569W        W35983  17.709  17.267  15.832 -0.0623 -0.1235 -0.0865
22570W        W35984   1.512  16.218   1.641 -0.2521 -0.3345 -0.0251
22571W        W35985   1.299   6.427  16.310 -0.2263  0.2378  0.4254
22572W        W35986  10.700  11.715   6.193  0.2959  0.2185 -0.1191
22573W        W35987  15.553  16.730  12.207 -0.0260 -0.0961  0.2799
22574W        W35988   8.245   0.727  10.370  0.0388 -0.0982 -0.2203
22575W        W35989   2.654  13.526   2.709  0.0907  0.1358 -0.2789
22576W        W35990   6.542  11.193   0.072 -0.0800  0.4298 -0.1436
22577W        W35991  14.114  17.548   4.266  0.0142 -0.1280  0.0448
22578W        W35992   9.275  10.327   3.609  0.0554  0.0258  0.0060
22579W        W35993  11.402   8.048  11.024  0.0831  0.2095 -0.1354
22580W        W35994  14.768   9.067   5.228  0.5329  0.0833 -0.2725
22581W        W35995  13.275   3.165   2.679 -0.4131  0.1339  0.1148
22582W        W35996   7.500   4.978  15.414  0.1295 -0.3056 -0.1866
22583W        W35997   6.856   9.789  13.627 -0.4703 -0.1022 -0.0630
22584W        W35998  13.776  16.864   1.271  0.2701  0.2863 -0.1765
22585W        W35999  10.635  15.586  12.697  0.3317 -0.2352 -0.1044
22586W        W36000   8.152  11.048   3.273  0.4119 -0.0156  0.1455
22587W        W36001   6.582  10.378   3.485  0.2738 -0.1461 -0.0110
22588W        W36002   3.312  17.769  14.033 -0.1062 -0.0895  0.1715
22589W        W36003  12.676   8.054  12.503  0.0138  0.4610 -0.2323
22590W        W36004  12.311  14.689   0.250 -0.1647  0.1471 -0.1093
22591W        W36005  15.491  10.758   3.581 -0.1392  0.3979 -0.0367
22592W        W36006   1.117  14.975  15.896  0.3838  0.0692  0.2634
22593W        W36007  14.947   8.669   2.110 -0.0169 -0.0566 -0.4607
22594W        W36008  10.066  17.181  14.319 -0.0671  0.0026 -0.0284
22595W        W36009  15.038   8.758   4.535  0.1004 -0.4814  0.1213
22596W        W36010   8.860   8.570  11.860  0.0767 -0.2535 -0.0710
22597W        W36011   8.069  13.388  16.143  0.0657  0.0444 -0.0242
22598W        W36012   4.378  11.324   5.237  0.2043  0.0176  0.0318
22599W        W36013   5.574   1.206   0.147 -0.0563  0.0866 -0.0531
22600W        W36014   3.792   3.277  14.311  0.1608 -0.0231 -0.2336
22601W        W36015   8.787   1.053   3.233 -0.3534  0.0734 -0.0002
22602W        W36016   6.996  14.086  14.908  0.0211 -0.0745 -0.1249
22603W        W36017  16.264  12.220  15.319  0.3013  0.0153 -0.0151
22604W        W36018  15.098  17.475  13.508 -0.2288  0.1104 -0.2442
22605W        W36019   9.442  15.880  15.545 -0.1553  0.2366 -0.1575
22606W        W36020  10.374  14.272  10.986 -0.1292  0.1736  0.3476
22607W        W36021   2.438   2.410   0.635  0.1531  0.4738 -0.1290
22608W        W36022   4.985   5.397   2.052 -0.1925  0.2663  0.0659
22609W        W36023   8.825  12.884  13.545 -0.1471 -0.0182  0.0144
22610W        W36024   2.937  17.724   3.187 -0.3328 -0.1060  0.1383
22611W        W36025   4.704  11.379  14.022 -0.1923 -0.0135 -0.4049
22612W        W36026   1.065  15.837   2.696 -0.1602  0.1246  0.1790
22613W        W36027   9.569   5.378  13.110  0.0902 -0.1651 -0.0737
22614W        W36028   0.369  17.077   6.495 -0.0746 -0.1312 -0.0271
22615W        W36029  10.396   9.101  12.565 -0.0263  0.1133  0.3096
22616W        W36030   1.042   6.430  15.294  0.1177  0.0230  0.3698
22617W        W36031  12.628  12.737  11.132 -0.0020  0.2430  0.0495
22618W        W36032   2.598   8.634  16.091 -0.0292  0.0951  0.1197
22619W        W36033  17.429  11.033  15.960 -0.1534  0.3002 -0.0661
22620W        W36034   6.305   7.514  10.774 -0.2061 -0.1448  0.2123
22621W        W36035  15.749   1.395   2.064 -0.4601 -0.1003 -0.0386
22622W        W36036  16.411  14.578   0.221 -0.2545  0.1887  0.3693
22623W        W36037   9.983   6.098   2.326  0.3634  0.1197 -0.0710
22624W        W36038   5.175   3.941   5.644 -0.1993 -0.0210 -0.1015
22625W        W36039   0.607  17.228   0.488  0.4474  0.0631  0.2832
22626W        W36040   8.830   3.161  12.282  0.2535 -0.5480  0.0706
22627W        W36041  14.831  18.192   5.685 -0.0037 -0.3100 -0.4299
22628W        W36042   0.376  15.507   4.303 -0.2514  0.2173  0.0237
22629W        W36043   4.730  17.834   6.156  0.0900  0.0301  0.0143
22630W        W36044   7.336  17.381  11.559 -0.1807  0.1853  0.1512
22631W        W36045  10.227  13.104   0.437  0.1508  0.1145  0.2052
22632W        W36046   6.665  14.619   0.711  0.2260  0.1057 -0.0188
22633W        W36047  17.835   4.807  12.005  0.2105 -0.0928  0.0888
22634W        W36048   3.231   1.327  13.874 -0.4637 -0.0705  0.2197
22635W        W36049   5.676   4.419  11.431 -0.0774 -0.0111 -0.2616
22636W        W36050   6.164   7.237   4.450 -0.1668 -0.0843 -0.1562
22637W        W36051   3.666   0.266   4.160 -0.0109  0.0687 -0.1590
22638W        W36052   4.398   8.963  16.162  0.0032  0.2259 -0.1420
22639W        W36053   0.676   5.748   2.407 -0.0902  0.1073  0.1568
22640W        W36054   1.189  15.183  10.789 -0.1347  0.1229 -0.1741
22641W        W36055   7.138   9.337  13.705  0.2177 -0.0362  0.0658
22642W        W36056  14.013  13.386  11.196  0.3806  0.0289 -0.0379
22643W        W36057   2.704   5.103  14.030 -0.0907 -0.1176  0.2560
22644W        W36058   4.429  18.186  12.668 -0.1500  0.0013 -0.0515
22645W        W36059  15.017   7.263   6.170 -0.1135 -0.2334  0.0146
22646W        W36060  13.975   0.490   0.709  0.1295 -0.0949 -0.1102
22647W        W36061   7.755   9.412   4.163  0.0052  0.3912  0.3493
22648W        W36062  11.090  10.059  15.638 -0.2601 -0.1670  0.4553
22649W        W36063   0.518   3.839   0.610 -0.0369 -0.0347  0.2015
22650W        W36064   3.712  17.582   2.867 -0.0810 -0.2562  0.0414
22651W        W36065   0.874   9.501  11.075  0.1364  0.1347  0.2305
22652W        W36066  15.097   6.113  15.651  0.0962 -0.0500 -0.1812
22653W        W36067  11.235  16.007  13.481 -0.0624 -0.1558  0.1875
22654W        W36068   8.540  14.625   4.512 -0.0817  0.3834 -0.1642
22655W        W36069  14.244   9.832   6.616 -0.0039 -0.0093  0.0906
22656W        W36070   0.807   8.564  11.579  0.2271 -0.2949 -0.1913
22657W        W36071  11.484  15.570  10.839 -0.0994 -0.0840 -0.0824
22658W        W36072   0.735   7.314  11.765  0.2589  0.1495 -0.2050
22659W        W36073  14.578  10.554  12.000 -0.0476  0.0765 -0.1154
22660W        W36074  17.763   4.902   2.393 -0.0819 -0.2449  0.3081
22661W        W36075  10.611   1.004   4.232 -0.0765  0.3807  0.0327
22662W        W36076   3.928   2.896   1.387 -0.4265  0.0945  0.1830
22663W        W36077  10.972   4.074   4.963 -0.1746 -0.0074 -0.1922
22664W        W36078   2.970   5.560   5.493 -0.4456  0.1048  0.2180
22665W        W36079   6.455   2.437  13.804  0.1098 -0.2497  0.1810
22666W        W36080   0.744   6.657   2.391  0.1571  0.0726  0.0512
22667W        W36081   2.245  10.225   3.440  0.0250 -0.0902  0.1723
22668W        W36082   8.966   3.158   1.711 -0.1050  0.2842 -0.1709
22669W        W36083   0.237   3.361  15.802  0.1838 -0.2845  0.0167
22670W        W36084  17.194   3.017   4.449 -0.3291 -0.0216  0.2162
22671W        W36085  14.424   7.603   2.269 -0.1003  0.1559 -0.0332
22672W        W36086  17.738  15.145   1.919 -0.2510  0.0506  0.0374
22673W        W36087  12.871  17.914  11.463  0.1233 -0.0889  0.0640
22674W        W36088  13.787   7.407  16.360 -0.1050  0.2736 -0.3438
22675W        W36089  12.812  13.662   0.358  0.1621  0.0735  0.3020
22676W        W36090  15.779  12.803   0.203  0.2789  0.0403 -0.2108
22677W        W36091  13.996   0.470  15.058  0.0061 -0.2164  0.1439
22678W        W36092   1.680  15.113  10.681 -0.0078  0.1678  0.0729
22679W        W36093  11.386  12.681  10.713 -0.2675 -0.0133  0.1492
22680W        W36094  15.338   7.516   6.534 -0.0762  0.2989  0.3498
22681W        W36095  16.263  17.122   2.643 -0.2128  0.1501 -0.0857
22682W        W36096   7.269  10.059   5.221 -0.2185 -0.1442 -0.1060
22683W        W36097   5.194   9.238  13.709 -0.3106  0.0028  0.0471
22684W        W36098   2.779  14.730   5.331 -0.1269 -0.1892 -0.0456
22685W        W36099   5.915   7.732  11.535 -0.0536  0.3121 -0.1543
22686W        W36100  16.278   8.562  13.864 -0.3980 -0.2719  0.2279
22687W        W36101  15.434   5.797   0.641 -0.0919 -0.0843  0.3851
22688W        W36102   9.032  11.886   0.373  0.1785  0.0137  0.0516
22689W        W36103  16.603   6.388  15.227 -0.0215  0.3287 -0.2629
22690W        W36104   3.540   8.071   3.813  0.3451  0.0661  0.0391
22691W        W36105   2.928   5.918  12.044 -0.3043  0.0282  0.1260
22692W        W36106  16.025  14.494  11.826 -0.0603 -0.1438 -0.1229
22693W        W36107   5.011   3.253  13.493  0.0770  0.2527  0.1305
22694W        W36108   5.628  13.508  16.361 -0.0759 -0.0587  0.0614
22695W        W36109   6.588  13.732  16.226  0.1426 -0.0584  0.0361
22696W        W36110   9.051  17.911   2.405 -0.0084  0.1004 -0.0853
22697W        W36111  13.635   1.436  14.008 -0.5180 -0.2133  0.0447
22698W        W36112   7.578   6.066   2.189  0.2941 -0.3102  0.0814
22699W        W36113  11.510  14.497  14.971  0.4150  0.0389  0.2187
22700W        W36114  12.796  16.951   5.233 -0.1480  0.0492  0.1012
22701W        W36115  15.181   5.607  15.837 -0.0113 -0.1581 -0.0904
22702W        W36116  17.668  16.391   2.325 -0.0496 -0.0143  0.2041
22703W        W36117  15.369   4.287   4.242 -0.1049 -0.1833  0.0288
22704W        W36118   2.069   8.814   3.593  0.1235 -0.0380  0.0554
22705W        W36119  13.747  10.996   0.607 -0.0141 -0.0576  0.0619
22706W        W36120   5.427  10.491  11.248 -0.0178  0.2692  0.3356
22707W        W36121  16.057   2.233  12.794  0.0936 -0.1703 -0.1311
22708W        W36122   7.829   8.644  15.074  0.0673 -0.0461  0.2186
22709W        W36123   5.165  16.798   2.774 -0.4024 -0.0343  0.0531
22710W        W36124  17.395  15.622  16.149 -0.1703 -0.0368 -0.2759
22711W        W36125   9.681  17.967   3.709  0.0971  0.0367 -0.1123
22712W        W36126  17.680   7.221   0.425 -0.4508 -0.2501 -0.0863
22713W        W36127   1.716   5.253  11.693 -0.3144 -0.2365 -0.0164
22714W        W36128   1.523   8.454  12.248  0.0401  0.1851 -0.2527
22715W        W36129  17.006   8.284   4.699 -0.0957  0.0147 -0.1926
22716W        W36130  12.823   7.359   4.154  0.0626  0.0012 -0.1376
22717W        W36131   1.937   1.109  12.529 -0.2174  0.0158  0.2018
22718W        W36132   7.120   4.931  14.494 -0.1758  0.0063 -0.0546
22719W        W36133  18.217   4.801  16.157  0.4533 -0.0162  0.0468
22720W        W36134   7.615   8.244   1.815 -0.0979 -0.0655  0.2532
22721W        W36135   1.818   1.464  11.326 -0.0008 -0.1186 -0.0457
22722W        W36136  14.430  16.202   0.254  0.1918  0.1650 -0.2417
22723W        W36137   3.047   7.041   4.646  0.1056 -0.0799  0.0046
22724W        W36138   2.084   6.892  14.382 -0.1276  0.2041  0.1420
22725W        W36139   7.597  13.170   3.389  0.3569 -0.0409  0.1427
22726W        W36140   7.149  14.360  15.701 -0.1292  0.0600  0.1875
22727W        W36141   4.120   3.987   3.032 -0.4043 -0.1754  0.0105
22728W        W36142  11.033   9.023   5.263 -0.0519  0.0365 -0.1466
22729W        W36143  12.798  17.512   2.218 -0.0217  0.1359 -0.0275
22730W        W36144   6.664  12.462   0.398  0.2950  0.2387 -0.0907
22731W        W36145   6.063  13.004  15.335  0.3203 -0.2081  0.1118
22732W        W36146   1.929   5.416  12.464  0.2422 -0.1068  0.0630
22733W        W36147   7.511   6.202   3.705  0.1904 -0.3036  0.0100
22734W        W36148  10.997   9.920  14.600  0.1374  0.1964 -0.1012
22735W        W36149   4.411  10.677   3.677  0.2806 -0.2304 -0.3614
22736W        W36150  15.365   4.203   0.980  0.0559 -0.0771  0.1792
22737W        W36151  15.087  10.551   5.272 -0.0532  0.0717  0.0520
22738W        W36152   0.326  17.653   0.194  0.0679 -0.1534  0.3512
22739W        W36153   6.606   8.336  13.911  0.1498  0.0358  0.0426
22740W        W36154  12.109   8.229  14.500  0.0586  0.0144 -0.1146
22741W        W36155  14.854  16.246  15.073 -0.3108  0.0082  0.0392
22742W        W36156   0.761   7.491  14.834  0.0299  0.1219  0.0879
22743W        W36157  17.298  11.619   4.813  0.0557  0.0474 -0.0016
22744W        W36158  15.831  14.317   4.651  0.0237  0.0248 -0.1542
22745W        W36159  13.804   3.183   5.556 -0.0385  0.1714 -0.2083
22746W        W36160  17.782   6.078  11.028  0.0404 -0.1760 -0.0190
22747W        W36161   0.755  18.198   3.832 -0.1452  0.1948 -0.0158
22748W        W36162  18.109  11.961   2.579  0.0644 -0.0962  0.1982
22749W        W36163  12.678   7.878  13.789 -0.2640 -0.1746 -0.2198
22750W        W36164  13.664   8.457  13.286  0.0295 -0.4106  0.1132
22751W        W36165   7.468   9.280   0.939 -0.0670 -0.1112 -0.2854
22752W        W36166  11.895   7.919   1.755 -0.1425  0.3648  0.1132
22753W        W36167   5.807   4.096   5.045  0.1635 -0.0251 -0.2070
22754W        W36168   4.180  17.601   1.992  0.0080  0.1688  0.5235
22755W        W36169   6.085   9.134  15.808  0.2337 -0.0480 -0.1610
22756W        W36170  14.152  15.625  12.860 -0.3399  0.1445  0.1024
22757W        W36171  12.488   4.602   0.651 -0.0474  0.0667  0.3248
22758W        W36172   4.209  13.121   3.079 -0.1330  0.2073 -0.0033
22759W        W36173  10.610  11.081  11.015  0.0808  0.1485  0.0349
22760W        W36174  17.085  10.605  16.208 -0.0342  0.1332 -0.1236
22761W        W36175  18.019  11.260  13.830  0.0646  0.0505 -0.1491
22762W        W36176   2.212  14.314   4.593 -0.2973  0.0536  0.1083
22763W        W36177   5.761   8.852  11.664 -0.3382 -0.0925 -0.0267
22764W        W36178   4.929   3.943  12.967  0.0153 -0.0411 -0.1294
22765W        W36179   5.152  13.195  13.226  0.1697  0.1435  0.2683
22766W        W36180  14.266   5.473   5.144 -0.1876  0.0919 -0.0243
22767W        W36181   4.672   6.397  13.697  0.2098  0.1230  0.0166
22768W        W36182   7.775   0.823   5.535 -0.1112 -0.0722  0.1517
22769W        W36183  18.146  11.441  11.317  0.0376  0.0011 -0.0028
22770W        W36184   3.538  11.057  15.854 -0.1440 -0.0953  0.0001
22771W        W36185   1.255  18.042   2.789 -0.0345  0.0969  0.2221
22772W        W36186  14.516  17.699   0.102  0.0711  0.0323 -0.0236
22773W        W36187  15.246   8.982  14.535  0.0014  0.0732  0.2675
22774W        W36188   5.559  11.267  12.935  0.4146  0.0786  0.1629
22775W        W36189  15.125   1.635  13.646  0.1694  0.0792  0.0922
22776W        W36190  12.159  14.379   3.913  0.1796 -0.1544 -0.0012
22777W        W36191   8.910  18.075  10.897 -0.1333 -0.0383  0.0925
22778W        W36192   6.429   8.673   5.978  0.2082 -0.3159  0.0979
22779W        W36193   5.422   2.952   4.485 -0.0249 -0.2254 -0.2617
22780W        W36194   2.257   0.180  10.394 -0.0645 -0.0201 -0.1836
22781W        W36195  14.788  12.514  14.672  0.0284 -0.2501  0.0497
22782W        W36196  16.110  12.166  14.317 -0.1214 -0.0712  0.1441
22783W        W36197   6.160   4.244   3.912  0.0278 -0.1854 -0.0335
22784W        W36198   0.120  16.165   1.708 -0.0034 -0.0980 -0.0799
22785W        W36199   0.964  10.698   5.919 -0.1328  0.1201  0.2373
22786W        W36200   0.778   1.036   2.425 -0.2653  0.1804  0.0361
22787W        W36201   7.076  16.204  11.240  0.3664 -0.0926 -0.2543
22788W        W36202   7.888   4.795  16.374 -0.0228  0.0874 -0.0800
22789W        W36203  13.520  15.038  14.823 -0.1688 -0.1226 -0.3071
22790W        W36204   0.277  16.630   1.981  0.1271 -0.3185 -0.1561
22791W        W36205   9.831   6.590  15.224 -0.1094 -0.1570  0.0421
22792W        W36206  18.037   0.635  16.359 -0.2232 -0.1000  0.2306
22793W        W36207  12.148   5.024  13.698 -0.0689  0.1725  0.1646
22794W        W36208   1.152   5.601   2.460 -0.1831  0.1684 -0.1045
22795W        W36209   2.691   9.034   1.498  0.1108 -0.1176  0.1407
22796W        W36210   5.930   6.823  11.145 -0.1071 -0.1433 -0.1117
22797W        W36211   0.259  10.033   2.935  0.2055  0.4146  0.1514
22798W        W36212  11.420   6.514  14.404  0.1254  0.1288  0.1070
22799W        W36213   5.190  17.595  16.280  0.2896 -0.2658 -0.1862
22800W        W36214   7.426  10.082   1.735  0.2383  0.0353  0.0436
22801W        W36215   8.207   8.321  12.060 -0.0317 -0.1313  0.0180
22802W        W36216  13.670  13.375  13.074 -0.3282  0.0365 -0.3063
22803W        W36217  12.229   2.395  13.521  0.0390  0.2039  0.0546
22804W        W36218   3.084  11.182  15.838 -0.2512  0.2258  0.1091
22805W        W36219   0.064  15.983  12.334 -0.0464 -0.1516 -0.0712
22806W        W36220  10.163   8.237   2.982  0.1205 -0.0895 -0.0516
22807W        W36221  10.985   7.336   1.043  0.1865  0.2356  0.0563
22808W        W36222  12.480   5.695   3.961 -0.0067 -0.0987  0.0484
22809W        W36223   7.345  13.710   0.775 -0.1283  0.0191 -0.0466
22810W        W36224  12.140  13.786  11.784  0.1724  0.1495  0.1801
22811W        W36225  14.190   2.825  16.142  0.2292 -0.2803  0.1735
22812W        W36226  17.101   1.521   4.846 -0.0925  0.0463  0.1415
22813W        W36227   0.793  15.552   1.701 -0.1387  0.1430 -0.1354
22814W        W36228   6.591  12.988   5.109  0.0520 -0.3711  0.1434
22815W        W36229  10.622   9.538  12.273  0.3222  0.2500  0.0350
22816W        W36230   7.551  15.647  12.149  0.0687  0.1054 -0.4535
22817W        W36231  13.903   1.921  12.928 -0.0179 -0.1026 -0.1641
22818W        W36232   9.554   1.873  15.157 -0.0661  0.3093 -0.0495
22819W        W36233   4.497   6.247  14.568 -0.2162 -0.1633  0.0348
22820W        W36234   7.211  15.522  13.505 -0.1546 -0.0006 -0.0816
22821W        W36235  11.614   0.127   3.983 -0.0644  0.3244 -0.3751
22822W        W36236   0.772   5.062  14.353  0.0359 -0.5015 -0.0349
22823W        W36237   8.482   1.069  15.003  0.0251 -0.2226  0.0709
22824W        W36238  11.916  10.283  13.755 -0.1410 -0.0478  0.0821
22825W        W36239   8.205  10.077   0.046 -0.3042  0.1330  0.0997
22826W        W36240  16.725  11.510  12.517  0.2159  0.0373  0.1835
22827W        W36241   3.203   0.315  15.162  0.0384 -0.0366  0.0396
22828W        W36242   6.425  13.594   0.829  0.3596  0.1867 -0.0825
22829W        W36243  16.410   3.907  14.940 -0.3278  0.1527 -0.0460
22830W        W36244  10.435   3.480  13.525  0.2062 -0.0336 -0.3000
22831W        W36245   7.200   1.658  13.789 -0.0091 -0.3606 -0.0409
22832W        W36246  13.239  16.517   3.188 -0.0784 -0.3183  0.5190
22833W        W36247   2.625   0.458   2.775 -0.2234 -0.1404 -0.3858
22834W        W36248  13.525  12.853  11.014 -0.1584  0.0569  0.1448
22835W        W36249   1.949  12.199  14.893 -0.1631  0.0992  0.0586
22836W        W36250  15.282  17.391   3.966  0.1231 -0.1437  0.0367
22837W        W36251  13.450  16.711  10.169 -0.1201 -0.0424  0.0751
22838W        W36252   5.430  14.648   0.019 -0.0574 -0.0159 -0.1794
22839W        W36253  10.887   7.981   3.536  0.1364 -0.3728 -0.4106
22840W        W36254   4.753   6.703   1.942  0.1200 -0.1310 -0.0665
22841W        W36255   5.754   8.669  13.973  0.1323 -0.1559  0.0735
22842W        W36256  15.848   2.185   4.421 -0.4261  0.2212 -0.2451
22843W        W36257   0.456   9.350  12.694  0.2035 -0.0879 -0.2359
22844W        W36258   2.538   2.926  13.505 -0.0230 -0.2203 -0.2578
22845W        W36259   5.730  12.876   1.971  0.1571 -0.0270  0.2405
22846W        W36260   2.705  11.070  12.952 -0.0399  0.4516  0.0435
22847W        W36261  15.116   3.564  10.450  0.1538  0.3092 -0.0231
22848W        W36262  12.365   2.497  11.051 -0.3343  0.0476 -0.0200
22849W        W36263   9.907  10.339   3.693 -0.0868  0.1206 -0.0427
22850W        W36264  17.468  18.116  16.017  0.2450 -0.1235  0.1387
22851W        W36265  17.908  12.321   6.656 -0.4264 -0.0345  0.0585
22852W        W36266   5.055   6.986  10.964 -0.1000  0.2446  0.3136
22853W        W36267   8.650  10.006  15.736  0.0370 -0.3256 -0.2344
22854W        W36268   3.335   1.219  16.218 -0.0560 -0.1470 -0.0907
22855W        W36269   8.063   3.476   1.597  0.0259  0.3072  0.0010
22856W        W36270   3.220  11.451  13.875  0.1408  0.3685  0.1711
22857W        W36271   2.306   8.406   1.355  0.0477  0.1728  0.0514
22858W        W36272  13.637   8.568  14.110 -0.1574 -0.1369  0.0949
22859W        W36273  12.884  10.344   1.811  0.0282 -0.3211  0.0092
22860W        W36274   3.162  14.111  15.432 -0.0241 -0.4025  0.1882
22861W        W36275   5.962   9.806   3.375 -0.1596 -0.0509  0.1556
22862W        W36276  16.443   0.730  13.928  0.0422  0.3597  0.1926
22863W        W36277   1.364   3.515  15.197  0.2101  0.1603 -0.0238
22864W        W36278  12.993  10.433  13.709 -0.0994  0.3351  0.1338
22865W        W36279   0.433   1.904   2.908  0.2478  0.0314 -0.1548
22866W        W36280  17.224   2.416  11.369 -0.3714  0.0397  0.1090
22867W        W36281   6.539  13.435  11.382  0.2020 -0.0984 -0.0941
22868W        W36282  16.459  13.442  13.714 -0.1525  0.2013 -0.0098
22869W        W36283   5.642  15.933   3.656 -0.2042  0.3066  0.2215
22870W        W36284   7.672   1.313  13.707 -0.3128 -0.1211 -0.1586
22871W        W36285  12.396  11.376  16.157 -0.0978 -0.0708  0.1244
22872W        W36286  17.157  15.147  15.642 -0.1869 -0.3695  0.2877
22873W        W36287  17.646   6.049   5.404 -0.2596  0.3642 -0.1964
22874W        W36288   2.248   8.760   6.921  0.0965  0.3039 -0.0603
22875W        W36289   1.126   7.412   4.106 -0.0920  0.2421 -0.2360
22876W        W36290   3.960   8.493  14.350  0.0417 -0.0600  0.1386
22877W        W36291  15.817   5.095   3.177 -0.2269  0.0453 -0.0068
22878W        W36292   2.721  13.324  12.107  0.0097 -0.1973 -0.1471
22879W        W36293  11.387  11.981   1.487  0.0708  0.0728 -0.3530
22880W        W36294   7.899   5.004   0.773  0.1220 -0.3056  0.1764
22881W        W36295   4.470  13.668  15.423  0.0066  0.2482  0.1433
22882W        W36296  12.565  14.769   3.626 -0.2715 -0.1111 -0.2703
22883W        W36297  13.011  16.101   2.478 -0.0748  0.0583  0.1320
22884W        W36298  15.881  10.103   3.470  0.1230 -0.2043 -0.0899
22885W        W36299  14.160   4.871   1.442  0.2308  0.1199  0.1144
22886W        W36300  14.036  17.528   1.887  0.1169 -0.1885 -0.1245
22887W        W36301  11.962   3.522  12.173  0.4134  0.0736 -0.2031
22888W        W36302  13.813  14.922   1.269  0.0687 -0.0405 -0.0600
22889W        W36303   1.446   7.953   4.734 -0.3615 -0.0506  0.0190
22890W        W36304   2.962  15.427  14.438 -0.0290 -0.0978  0.0005
22891W        W36305   0.617   2.817  14.512  0.4776 -0.2078 -0.1502
22892W        W36306   4.967  14.973  13.095  0.0090 -0.3219 -0.1348
22893W        W36307  15.898   6.429  12.755 -0.0007  0.1076  0.1101
22894W        W36308  11.165   7.015   5.952  0.1301 -0.1391  0.4756
22895W        W36309  17.084   1.812   4.065  0.1157  0.0584 -0.1434
22896W        W36310   6.987   5.399  10.724  0.2481 -0.0426  0.3307
22897W        W36311  12.186   4.792   3.585 -0.0539 -0.1495  0.0237
22898W        W36312  17.593   3.318  13.919  0.0184 -0.0004 -0.1230
22899W        W36313  17.233   6.534   4.762 -0.0536  0.0911  0.0867
22900W        W36314   5.021  16.505   9.567 -0.1639  0.1554 -0.0306
22901W        W36315  16.826   5.973   5.809  0.0566  0.0420 -0.1509
22902W        W36316   7.844   8.371   3.294  0.2236 -0.0616  0.0947
22903W        W36317   5.460   4.701   4.425 -0.0437 -0.0521  0.0052
22904W        W36318   3.272  10.398  10.994  0.2321 -0.0125 -0.5210
22905W        W36319   5.618  14.817   1.042  0.0764 -0.0157  0.4987
22906W        W36320  12.587  11.449  14.379  0.0380 -0.2725  0.2455
22907W        W36321   5.359   6.926   2.065 -0.0196  0.0526  0.0454
22908W        W36322  16.441   7.210   2.373  0.2369  0.0818 -0.0626
22909W        W36323   9.356   4.717   2.406 -0.0108 -0.1920  0.0979
22910W        W36324  11.684   1.837   3.509  0.3258 -0.1902 -0.0501
22911W        W36325  17.481  13.412   2.939  0.2151 -0.2689  0.0142
22912W        W36326  14.966  17.287   4.814 -0.2077  0.0631  0.0272
22913W        W36327  11.430  16.936   4.525 -0.2285  0.1750 -0.0148
22914W        W36328   5.657   1.137   1.552 -0.2347 -0.2512 -0.2806
22915W        W36329  12.451  15.312   3.712  0.1851  0.1989  0.0675
22916W        W36330  14.603  13.188   5.463 -0.0875 -0.1571  0.1345
22917W        W36331   8.560   0.929  13.594 -0.2378  0.1569  0.2229
22918W        W36332  13.032   8.925  11.131  0.1805  0.0157 -0.1758
22919W        W36333  14.169  14.968   4.376  0.1316  0.1668 -0.0614
22920W        W36334  13.821   6.387   5.916 -0.1828 -0.0870  0.1668
22921W        W36335   5.096  10.215   4.402  0.3289  0.1800  0.0206
22922W        W36336  17.150   8.731  12.387  0.3324  0.1606 -0.0184
22923W        W36337  16.969  15.023   0.975 -0.2625  0.2000 -0.3502
22924W        W36338  10.294  16.573   1.276 -0.0487 -0.0904  0.1277
22925W        W36339   5.916   3.633  15.545  0.0926  0.0645 -0.3238
22926W        W36340  17.145   1.159  11.768 -0.3189 -0.1838  0.0750
22927W        W36341  12.975  12.012  11.231  0.0183  0.2726  0.0393
22928W        W36342  16.508  13.235  15.323 -0.0071 -0.0200  0.1276
22929W        W36343  15.002   3.876   4.361  0.0722  0.1440  0.2897
22930W        W36344   8.734  14.158   2.143  0.1590 -0.0350  0.4117
22931W        W36345  13.386   8.307   5.437  0.0348 -0.1240 -0.2529
22932W        W36346   4.167   8.135  15.848  0.0663  0.1448 -0.2238
22933W        W36347   7.552   0.889  13.943  0.1580  0.0186  0.0462
22934W        W36348   4.468   3.792   4.588  0.1578 -0.2202 -0.1510
22935W        W36349   4.559   5.381   5.274  0.0538  0.0329 -0.2260
22936W        W36350  14.514  17.185   2.663 -0.1415  0.0089  0.0545
22937W        W36351  18.147   4.980   4.166  0.1333 -0.2320 -0.2098
22938W        W36352  14.842  13.351  15.890  0.0051 -0.0943  0.0923
22939W        W36353   3.662   1.983  14.930  0.1422 -0.1498  0.0914
22940W        W36354   2.721   5.999  15.121  0.1502  0.0702 -0.1966
22941W        W36355   9.179  18.180   0.307 -0.3094  0.1232  0.0044
22942W        W36356  16.839   5.391  15.536 -0.3327  0.0956 -0.2611
22943W        W36357  14.232   4.594  13.901 -0.1682  0.0086 -0.0412
22944W        W36358  14.877  17.846   2.190 -0.3076  0.0201  0.0204
22945W        W36359  14.727   9.569  14.516 -0.1861  0.1553 -0.2236
22946W        W36360   6.316  10.856   4.145  0.3201 -0.1965 -0.3175
22947W        W36361  10.415   9.435   0.745 -0.2189 -0.0600 -0.0917
22948W        W36362  11.029  17.490  10.570  0.0630 -0.2227  0.2595
22949W        W36363  13.323   8.148  14.201  0.3211  0.1148  0.1400
22950W        W36364   9.267  14.514   0.175  0.2031 -0.0139  0.1760
22951W        W36365  13.329   3.681  12.204 -0.1535 -0.0988  0.1324
22952W        W36366   6.251  12.170   5.065 -0.1981  0.1084 -0.2921
22953W        W36367  12.384  15.344   1.594 -0.2719 -0.0900 -0.0569
22954W        W36368   1.155   6.336   0.829  0.1342 -0.0283  0.1925
22955W        W36369  16.562   8.132   6.073 -0.2543 -0.1002 -0.0550
22956W        W36370  16.422   3.947   2.210 -0.3118 -0.0417  0.1691
22957W        W36371   6.453  11.580   5.765 -0.0602 -0.1000 -0.2535
22958W        W36372   6.214  15.991   6.138 -0.0417  0.1563 -0.1717
22959W        W36373  16.381   9.592  11.378  0.1665 -0.1731 -0.0523
22960W        W36374   6.269  13.594  14.780  0.4026 -0.0019 -0.1827
22961W        W36375   5.266   6.681   0.661  0.1232  0.0652  0.0438
22962W        W36376   4.863   7.101  12.211 -0.2999 -0.2338  0.1247
22963W        W36377  16.213   4.116  14.230  0.0558 -0.0476  0.1581
22964W        W36378  15.289  15.672   1.513  0.0265  0.0804  0.0606
22965W        W36379   1.121  17.055  10.404  0.2201  0.3082 -0.0772
22966W        W36380  13.257  15.913  15.646  0.1985 -0.0522 -0.0846
22967W        W36381   6.167   3.424  10.732  0.0611 -0.1600  0.1641
22968W        W36382  14.926   3.147  14.711 -0.3116  0.1251  0.0607
22969W        W36383   6.089  12.858  13.238  0.1297 -0.1477  0.0719
22970W        W36384  14.627   3.492   1.475  0.3946  0.2508 -0.1277
22971W        W36385   4.695   4.706   0.002 -0.2703 -0.0023 -0.3275
22972W        W36386   8.271  17.728   3.366 -0.1297  0.0934 -0.0672
22973W        W36387  12.613   6.990   1.899 -0.0001 -0.1345  0.0185
22974W        W36388   5.507  15.534  14.830  0.1486 -0.2781  0.0868
22975W        W36389   4.161   6.521  11.726  0.1359  0.0609  0.1833
22976W        W36390  15.379   5.920   4.087 -0.2646 -0.1170 -0.0949
22977W        W36391   5.946  15.333   0.199 -0.1407  0.1859 -0.1803
22978W        W36392  14.923  16.234  13.267  0.0393 -0.0957  0.1039
22979W        W36393   6.132  11.217  11.817  0.0016  0.1902  0.1027
22980W        W36394   6.816  15.206  14.215 -0.1171 -0.1407 -0.0813
22981W        W36395   8.915   7.871  14.122 -0.1348 -0.1365 -0.2196
22982W        W36396  14.654  12.571  11.647 -0.0660  0.1665  0.0306
22983W        W36397   9.654  11.483  11.787 -0.0485  0.1836 -0.0823
22984W        W36398   6.221   5.078   5.378 -0.4135 -0.0531 -0.2510
22985W        W36399  15.006   0.453  13.148  0.3332 -0.2310 -0.1107
22986W        W36400  15.396  11.947   0.082  0.2350  0.2264  0.0999
22987W        W36401   3.583   5.098   2.865  0.0945 -0.0788  0.1604
22988W        W36402   7.262   8.788  11.723 -0.0784 -0.2670 -0.0482
22989W        W36403  17.676   4.581   0.455 -0.0910  0.1271  0.0982
22990W        W36404  15.358  17.389  12.920 -0.0316  0.2319  0.1336
22991W        W36405  15.376  16.676   3.079  0.1792 -0.0379 -0.3027
22992W        W36406   4.212   3.105  12.168  0.1306 -0.0239 -0.0967
22993W        W36407   1.613   7.204  11.342  0.0217 -0.1349 -0.1520
22994W        W36408   3.298   2.068  14.410  0.0643  0.0290  0.2411
22995W        W36409  15.004   1.229  16.261  0.2979  0.1174 -0.0371
22996W        W36410   2.244   1.127   4.698  0.0221  0.1877 -0.2465
22997W        W36411   1.580   3.672   1.454  0.2290  0.1019 -0.0607
22998W        W36412   0.490  17.809   2.226 -0.0485 -0.0116  0.0282
22999W        W36413  16.977   5.191   0.554  0.1859 -0.0915  0.0108
23000W        W36414   8.482  15.447  16.265 -0.0162 -0.1096  0.3858
23001W        W36415  13.830   7.684  12.944  0.3945  0.1641  0.2134
23002W        W36416   8.801  11.472   0.049  0.2383 -0.1421 -0.2451
23003W        W36417  14.762   4.311   4.162  0.0813 -0.0315 -0.0445
23004W        W36418  17.530  13.108   6.961  0.1915 -0.0170 -0.0613
23005W        W36419   2.456  12.816   3.894 -0.1742  0.1405  0.2187
23006W        W36420  12.825   1.938  14.440 -0.2023 -0.1753 -0.0816
23007W        W36421   6.971  12.918  14.726 -0.0705  0.2069 -0.1431
23008W        W36422   2.657   4.582  13.446  0.0439 -0.1331  0.0176
23009W        W36423   9.531   8.800   4.283  0.3392 -0.1906 -0.2874
23010W        W36424   9.044   8.936  11.352  0.3302 -0.2026 -0.0129
23011W        W36425  12.953  11.318  11.835  0.0469  0.0080 -0.0469
23012W        W36426   9.986  12.432  11.588  0.2122  0.2210 -0.2467
23013W        W36427   6.845  17.249  13.533 -0.0409 -0.1294  0.1301
23014W        W36428  13.303   1.910   2.541 -0.1089 -0.0825 -0.0240
23015W        W36429  17.304   1.031   4.466  0.0264 -0.1783  0.1992
23016W        W36430  15.992  15.116   2.484  0.0531  0.2408  0.2570
23017W        W36431   5.294   4.906   5.809  0.0914 -0.1464  0.3608
23018W        W36432   9.463  11.052   1.120 -0.0524 -0.0861 -0.0273
23019W        W36433  13.236   3.317   3.780 -0.0840  0.0362  0.0566
23020W        W36434  15.349  16.281   2.814 -0.1969 -0.0479 -0.0557
23021W        W36435  12.814   9.770   4.244  0.0696  0.0943  0.0406
23022W        W36436  11.252  12.132   5.948 -0.0650  0.1431  0.0653
23023W        W36437   6.225  17.084   2.848 -0.1349 -0.3601 -0.0329
23024W        W36438   7.864  17.368  10.712  0.2060  0.2693 -0.0403
23025W        W36439  15.814   3.035   4.484 -0.0613 -0.3031 -0.0065
23026W        W36440  15.389  13.339  12.768  0.2830 -0.0218  0.1415
23027W        W36441  14.190  18.202  16.448  0.1875  0.1109 -0.1933
23028W        W36442   3.171   2.096  13.384  0.1351  0.0555  0.2229
23029W        W36443  12.637   1.787  10.829 -0.1385 -0.0597 -0.0108
23030W        W36444   8.848  11.463  13.275 -0.1767 -0.0527 -0.0012
23031W        W36445  17.726   2.393  12.013  0.0914 -0.1710  0.3109
23032W        W36446   0.420  11.555   5.127  0.2263  0.0250  0.0606
23033W        W36447  16.806   8.843   1.642 -0.2287 -0.0048 -0.0638
23034W        W36448   0.038   4.809   5.114  0.3522 -0.2561 -0.0023
23035W        W36449   7.656  14.152   2.408  0.0460 -0.2994  0.0283
23036W        W36450   5.339   2.506  13.127  0.1651  0.1750 -0.2176
23037W        W36451  11.446  12.302   4.253  0.1606 -0.0632 -0.3297
23038W        W36452  11.592  10.854   0.669  0.1671  0.2391 -0.0128
23039W        W36453   1.748   6.929   0.594 -0.0137  0.2815  0.2730
23040W        W36454  12.304  10.965  11.916 -0.1443 -0.1647 -0.2081
23041W        W36455   0.735  10.544  16.108  0.1133  0.0059 -0.3762
23042W        W36456  12.558  14.488   1.651  0.2513 -0.0384  0.1857
23043W        W36457   2.781  10.415   0.319 -0.0725  0.1012 -0.1033
23044W        W36458  17.452   7.660  10.804  0.1889  0.0303 -0.0388
23045W        W36459  15.427   9.271  16.105 -0.1515 -0.2335 -0.3027
23046W        W36460  16.917   9.463  14.059 -0.1172 -0.1824 -0.0623
23047W        W36461   8.295  12.619  11.046 -0.1015 -0.4870 -0.1957
23048W        W36462  11.534  15.979   1.379 -0.3228 -0.2234 -0.1819
23049W        W36463  10.727   3.012  11.224  0.2693  0.0882  0.0591
23050W        W36464  15.686   0.867  12.147  0.1330  0.1029 -0.0698
23051W        W36465   1.905   3.238   4.120 -0.1638 -0.3226  0.1873
23052W        W36466   7.207  11.892   3.655  0.0857  0.0866 -0.0776
23053W        W36467   4.853  10.441   2.866 -0.2919 -0.0487 -0.2035
23054W        W36468  14.680  10.562  14.554  0.0004 -0.0639 -0.1175
23055W        W36469  13.447   4.877  15.534  0.4028  0.0441  0.0610
23056W        W36470   0.253  11.036  13.883 -0.3416  0.3396  0.1976
23057W        W36471   7.278   0.325   0.139  0.3379  0.2428  0.1964
23058W        W36472   8.590  17.880   1.940  0.1698 -0.1132  0.1470
23059W        W36473   7.565   8.253  15.326  0.0682  0.1982  0.1453
23060W        W36474  11.944  13.320  10.976 -0.2797 -0.0461 -0.2540
23061W        W36475  10.738  14.724   5.086 -0.0307 -0.0115  0.1415
23062W        W36476  12.154  15.885   9.430  0.1070 -0.1652 -0.2253
23063W        W36477  11.237  16.683  15.631 -0.2057 -0.0689 -0.2652
23064W        W36478  13.026   8.481  11.443 -0.0176  0.3015 -0.0990
23065W        W36479  17.828   5.833  12.046 -0.0619 -0.0616 -0.2830
23066W        W36480  14.007   6.797   2.920  0.4108 -0.0618 -0.0387
23067W        W36481   7.185  18.183   1.911  0.2044 -0.0908 -0.3351
23068W        W36482   1.773  14.495   1.387 -0.0111  0.1269  0.0241
23069W        W36483  14.868  10.260  12.269 -0.2665 -0.1175  0.0675
23070W        W36484  17.524  11.762  13.919 -0.3185  0.4872 -0.0036
23071W        W36485   1.305  13.314  14.477 -0.2703  0.1510  0.1590
23072W        W36486   9.160   3.350  14.999  0.0899 -0.0052  0.1645
23073W        W36487  11.448  15.499  12.186  0.1936 -0.0707 -0.0303
23074W        W36488   3.864  10.729  12.604 -0.2605  0.1302 -0.2911
23075W        W36489   3.543  17.864   0.909 -0.3201 -0.2773 -0.0936
23076W        W36490  15.645   5.126   1.208 -0.1861  0.0535  0.1920
23077W        W36491   8.824  13.443  14.731  0.1446 -0.2904 -0.1129
23078W        W36492   2.679   6.699   4.962  0.4559  0.1129  0.0491
23079W        W36493  11.164   0.662  14.478  0.0823  0.2017  0.2528
23080W        W36494   6.789   2.222  12.094  0.0762  0.0999 -0.1203
23081W        W36495  15.136  10.593   4.218 -0.3281 -0.0138  0.2525
23082W        W36496   4.947  15.145  11.984  0.0537 -0.1018  0.1817
23083W        W36497  14.327   2.416  12.884 -0.1757  0.4117  0.2050
23084W        W36498   7.456   3.130   2.664  0.2525 -0.1758 -0.4483
23085W        W36499  15.702   1.330  12.729 -0.0749  0.0999  0.1352
23086W        W36500  11.076   4.564   4.831  0.2013  0.0418 -0.0206
23087W        W36501  17.741  16.499   5.955 -0.2202 -0.3001 -0.0588
23088W        W36502  13.008   4.738   2.029 -0.0638 -0.0363  0.1543
23089W        W36503  11.375   4.277   2.479  0.0201 -0.0481 -0.1612
23090W        W36504   2.589   7.192  12.208 -0.2120  0.2211 -0.0910
23091W        W36505  16.288  14.823  11.146 -0.1474  0.1407  0.4569
23092W        W36506  13.953  13.355  11.722 -0.1322 -0.2949  0.1337
23093W        W36507  11.137  11.699  12.135 -0.0584  0.0480 -0.0270
23094W        W36508   2.654   4.926  10.804 -0.0988  0.0523 -0.1727
23095W        W36509  10.585  11.789  12.000  0.0375 -0.2985  0.0541
23096W        W36510   6.008   7.852  11.070  0.1986 -0.2829  0.0454
23097W        W36511   4.793  13.489  16.084  0.1607 -0.1730  0.1009
23098W        W36512  13.513  10.815  13.002 -0.1351 -0.1447 -0.3753
23099W        W36513  13.936  14.019  14.836 -0.1093  0.1149  0.2828
23100W        W36514   3.486   3.843   2.731 -0.0170 -0.1636  0.4243
23101W        W36515  16.786   1.875  14.349 -0.2193  0.1367  0.1157
23102W        W36516   8.563   8.417   1.597 -0.0760 -0.1378 -0.0028
23103W        W36517  18.209   7.271   2.411 -0.0366  0.0555 -0.3372
23104W        W36518  17.207   3.080   5.912  0.0709  0.0975  0.0130
23105W        W36519   8.723   5.284   5.327  0.2841  0.1032  0.0184
23106W        W36520  18.098   7.077   4.839 -0.3179 -0.2388 -0.0712
23107W        W36521  17.187   6.061   5.176 -0.2028  0.1682  0.3548
23108W        W36522  14.732   7.500   3.873 -0.1731  0.0459  0.1465
23109W        W36523   8.222   4.463   0.623 -0.1599  0.4089 -0.0931
23110W        W36524  11.416   8.280  13.242 -0.0359 -0.0835 -0.0865
23111W        W36525   4.497  13.950  14.350 -0.0595  0.2946  0.0683
23112W        W36526   9.846  11.783   2.769 -0.3020 -0.1830 -0.0777
23113W        W36527   2.890   4.533  11.014  0.0676  0.0870  0.0135
23114W        W36528  13.798   2.468  11.480  0.1339 -0.0408 -0.1169
23115W        W36529  16.456   0.764  14.908 -0.1125 -0.2063  0.0487
23116W        W36530   9.989  10.407   2.417  0.0817 -0.1234 -0.0338
23117W        W36531  17.398  15.143  14.177 -0.1077  0.1815  0.0921
23118W        W36532   3.253   3.817  11.408  0.0945  0.0735  0.0084
23119W        W36533   5.978  10.727  13.569 -0.3040  0.1196  0.1089
23120W        W36534   9.061  12.766  12.556 -0.1635  0.0178 -0.2726
23121W        W36535   2.830   0.954   4.014 -0.0608  0.2091  0.0441
23122W        W36536   2.424   9.449   4.857  0.1056  0.1495 -0.1671
23123W        W36537   0.817   6.822   0.761 -0.3019 -0.0361  0.2270
23124W        W36538  12.432  11.424   0.623 -0.0976  0.0422  0.1101
23125W        W36539   9.721  10.199  10.729 -0.2006  0.1176  0.0643
23126W        W36540  12.877  12.919  10.655  0.0144 -0.1463  0.1485
23127W        W36541   6.190   4.910  10.590 -0.0526 -0.1487 -0.2461
23128W        W36542  15.334  17.971   0.010  0.2827 -0.0253  0.0493
23129W        W36543   5.384   1.401  13.714 -0.0863 -0.2333  0.1920
23130W        W36544   3.789  15.781   1.451  0.1614  0.2373 -0.0523
23131W        W36545   4.688   4.878   4.342  0.0393 -0.1142 -0.2668
23132W        W36546   8.315   5.292   2.973 -0.2111 -0.0791  0.1581
23133W        W36547  10.260  11.238  14.949  0.2428 -0.0890 -0.0481
23134W        W36548  10.391  11.664   1.924  0.0766 -0.0263  0.1620
23135W        W36549   1.027   5.386   1.651 -0.1992  0.1974 -0.1666
23136W        W36550   0.346   3.770  14.330 -0.0954 -0.2421  0.1786
23137W        W36551  11.501  10.725   1.516 -0.1836 -0.0738  0.1330
23138W        W36552   4.835   9.964   4.783  0.0838 -0.0444 -0.0026
23139W        W36553  13.397  11.737   2.398 -0.0254  0.0138 -0.1880
23140W        W36554   8.725   4.368  13.415  0.1763  0.1740 -0.0697
23141W        W36555  10.928   2.942  15.403  0.5091 -0.0101  0.1107
23142W        W36556  12.820  10.421   2.781 -0.0473  0.2034  0.2125
23143W        W36557   8.947   2.641  12.183  0.1553  0.1331 -0.0978
23144W        W36558   8.451   6.127  15.585 -0.1151  0.3182 -0.0032
23145W        W36559   1.987  12.368   4.634  0.1165  0.0500  0.1019
23146W        W36560   0.503   9.109  11.117  0.1647  0.3117  0.3139
23147W        W36561   7.949   1.229  11.971 -0.1213  0.0450  0.1280
23148W        W36562   9.427  10.496  11.075 -0.2193 -0.2736  0.3753
23149W        W36563  10.636  13.469   4.196 -0.1045 -0.1430  0.0382
23150W        W36564   0.302  13.218   2.762 -0.1089 -0.0971  0.0069
23151W        W36565   6.022   4.256  13.362 -0.0815 -0.1203  0.1451
23152W        W36566  16.717   7.058  11.166  0.2305  0.0750  0.0261
23153W        W36567   0.109   6.483  15.722 -0.2373  0.1373  0.0027
23154W        W36568  13.603  11.521   4.453 -0.0144 -0.2167 -0.2046
23155W        W36569  12.710   8.585  13.470  0.1238 -0.0951 -0.2131
23156W        W36570   3.432  16.346   4.651  0.0288 -0.1704 -0.0760
23157W        W36571  17.080   6.604  10.371 -0.0213  0.3859 -0.0006
23158W        W36572   4.256   4.536  16.369  0.1800 -0.0350 -0.0722
23159W        W36573  10.553  15.028   1.630  0.3374 -0.1989  0.4926
23160W        W36574  13.722   5.477  14.275  0.1934 -0.1671  0.3619
23161W        W36575   3.832   0.419  15.794 -0.1723 -0.1085 -0.6428
23162W        W36576  10.494   7.727   4.457  0.1730  0.1216 -0.0754
23163W        W36577   5.706  11.763   4.999 -0.1859  0.0797  0.2048
23164W        W36578   6.485   9.103   3.075  0.0313  0.0846  0.1635
23165W        W36579   9.251  11.798  12.978  0.0871 -0.0790 -0.1255
23166W        W36580  14.539   1.729   4.344  0.1262 -0.1711 -0.2805
23167W        W36581  18.052   7.381  13.580 -0.1120  0.0104  0.0017
23168W        W36582   5.543   6.715   5.134  0.0975 -0.0956 -0.0626
23169W        W36583   0.657  10.938  10.907 -0.1130 -0.0924 -0.1723
23170W        W36584   0.401   0.337  14.750 -0.2296  0.1387  0.0102
23171W        W36585   6.591   1.880   2.330 -0.1430 -0.0503 -0.0639
23172W        W36586  10.988   4.522  12.119 -0.0986 -0.0482 -0.1861
23173W        W36587  11.723  15.495   0.974  0.1235  0.3746 -0.0250
23174W        W36588   6.049   9.651  15.643  0.0069  0.0992 -0.1521
23175W        W36589   4.090   4.723   0.319 -0.3707  0.3441 -0.3238
23176W        W36590   2.426   3.902  10.789 -0.1752  0.1255 -0.1558
23177W        W36591   5.293  16.207   0.894  0.0598 -0.0928 -0.0729
23178W        W36592   3.981   5.993  13.224 -0.3035  0.2673  0.0955
23179W        W36593  14.764  11.767   2.646  0.2272 -0.0910  0.0315
23180W        W36594  16.709   3.779   5.857 -0.0049 -0.2274  0.0585
23181W        W36595  13.068   7.091   0.167 -0.2029 -0.0480  0.3253
23182W        W36596   0.744   2.635   3.418  0.1993 -0.0990  0.2113
23183W        W36597   2.677  10.748  15.675 -0.0033  0.0642 -0.0931
23184W        W36598   1.148   7.878   2.490  0.0485 -0.1086  0.3298
23185W        W36599  14.960  16.952  15.663 -0.1044 -0.1148  0.0306
23186W        W36600  15.106   2.079  12.481 -0.2742 -0.0130 -0.0146
23187W        W36601   2.545  10.956  11.005  0.0950 -0.5273  0.2568
23188W        W36602  13.921  18.102  10.665  0.0777 -0.1155  0.4480
23189W        W36603   5.806   0.351  11.809 -0.0041  0.1083 -0.1490
23190W        W36604  13.937   1.096  11.574  0.2889  0.1187 -0.1228
23191W        W36605  14.799   0.218  14.685  0.1656 -0.2120  0.0873
23192W        W36606  12.270  11.816  12.155  0.0531 -0.1173 -0.1913
23193W        W36607   0.103   6.188   2.731 -0.0296  0.1584 -0.0539
23194W        W36608   2.747   5.818  16.380 -0.0379  0.1120  0.0617
23195W        W36609  11.545   0.118  15.211 -0.0683  0.0486 -0.2290
23196W        W36610  11.213   0.068   1.705 -0.3083  0.1700  0.0330
23197W        W36611  12.973   9.535  13.637 -0.1452  0.2113  0.4476
23198W        W36612  11.302   3.377  13.362 -0.1225  0.0295 -0.0050
23199W        W36613  17.067  15.056  13.117  0.3911 -0.4296 -0.3390
23200W        W36614   5.351  14.820   0.543 -0.2242 -0.4754  0.0047
23201W        W36615  13.458   9.209  11.148 -0.1626 -0.1491 -0.1025
23202W        W36616  16.389   9.581  10.471 -0.0495 -0.1283  0.1393
23203W        W36617   4.674   6.186   1.848 -0.1442 -0.0843  0.4037
23204W        W36618  14.141   3.169  15.692  0.0603 -0.0467 -0.0538
23205W        W36619   8.194   9.835  10.666  0.1671  0.2350 -0.0579
23206W        W36620  14.344   6.459  11.773  0.0519  0.0615  0.2515
23207W        W36621  15.984   9.765  15.570  0.2606  0.1992  0.2714
23208W        W36622   2.084   5.438  11.913 -0.1721 -0.0827  0.1264
23209W        W36623   3.361  18.080  11.262  0.2980 -0.6265 -0.2526
23210W        W36624  16.003   5.536  16.376 -0.3751  0.0711 -0.3148
23211W        W36625   1.291   5.106  14.946 -0.2673 -0.0121 -0.0209
23212W        W36626  15.887  11.707  12.918  0.0770 -0.1477 -0.1030
23213W        W36627  17.226   4.556   0.677 -0.0908  0.0895  0.4523
23214W        W36628  17.644  14.060   5.061 -0.1029  0.1653  0.0130
23215W        W36629   3.980   9.812   6.041  0.1020 -0.0420  0.0216
23216W        W36630  18.024   0.493   2.884  0.1401  0.0598  0.1425
23217W        W36631   0.286  13.761  15.920  0.1125 -0.1037  0.0359
23218W        W36632   8.249  13.769   1.567  0.0135  0.0210  0.0823
23219W        W36633   3.024  16.438   4.930  0.0197 -0.0182  0.1671
23220W        W36634  17.016   0.086  13.109 -0.4216 -0.0978  0.2597
23221W        W36635  10.599   8.449   1.666  0.3700 -0.0949  0.0316
23222W        W36636   6.106  14.354  14.999 -0.0832  0.0889 -0.0119
23223W        W36637  15.047   8.409   1.647 -0.2253  0.2028 -0.0765
23224W        W36638   3.387  11.584   5.347 -0.0124  0.1416  0.0163
23225W        W36639   7.024   3.871   3.730 -0.0233 -0.2142  0.0256
23226W        W36640   4.820   8.533   2.744 -0.2346 -0.1195 -0.3353
23227W        W36641  16.492   4.976   1.110 -0.1631  0.2307  0.0819
23228W        W36642   9.878  14.071   5.351 -0.2418 -0.3566  0.3113
23229W        W36643   7.172  17.731   5.575  0.2721  0.1010  0.0063
23230W        W36644  16.390   6.975   1.417  0.1464  0.1325 -0.1412
23231W        W36645   6.742  11.977  14.332 -0.0657 -0.0392 -0.3096
23232W        W36646   9.393  10.255  12.128 -0.1704 -0.0028  0.0878
23233W        W36647   3.556  13.212   0.959 -0.0153  0.0277 -0.0747
23234W        W36648   8.971  16.966   0.287 -0.0859 -0.1316  0.1502
23235W        W36649  16.717   5.945  13.497 -0.2566  0.5372 -0.1700
23236W        W36650   4.241  18.026   5.058  0.0836 -0.0677 -0.2054
23237W        W36651  17.013   6.734   2.053 -0.0930 -0.0126  0.0325
23238W        W36652   5.662   4.648  16.088 -0.1611 -0.0150 -0.0897
23239W        W36653   3.800   5.856  12.381  0.5315 -0.0245 -0.0121
23240W        W36654   2.883   9.637  14.887 -0.1610  0.1268  0.0683
23241W        W36655  17.706  11.065  12.731  0.1191 -0.0976  0.2305
23242W        W36656  16.440   6.396  12.841 -0.1712 -0.0335 -0.2244
23243W        W36657  15.732  18.062   9.716 -0.0229 -0.1631 -0.1740
23244W        W36658  17.142  11.094  14.915 -0.0830  0.0856 -0.0756
23245W        W36659  11.333  17.902  15.367  0.1602 -0.1401 -0.3616
23246W        W36660   4.677   0.608  14.451  0.2170  0.4637 -0.2804
23247W        W36661  15.225  11.137   5.923 -0.3992  0.0979 -0.2317
23248W        W36662   1.938  12.365  16.084  0.0461 -0.0601  0.0308
23249W        W36663   7.924  11.720  11.322 -0.0178  0.3698 -0.1537
23250W        W36664  17.263   9.177   4.910 -0.1655 -0.4178  0.4396
23251W        W36665  16.420   4.710   4.396  0.2586  0.1026  0.2695
23252W        W36666   8.969  11.817   4.635 -0.2960  0.0872  0.2607
23253W        W36667   9.467   3.183  15.357  0.3982  0.2523 -0.0461
23254W        W36668   6.254   1.108   3.626  0.1883  0.0092 -0.2819
23255W        W36669  13.162  12.272   0.713 -0.0258 -0.3142 -0.1853
23256W        W36670   1.060  10.267   4.927  0.1863 -0.1112 -0.1636
23257W        W36671  15.650   2.929  15.218  0.0020  0.2416 -0.2697
23258W        W36672   8.888   4.311   1.647  0.0588  0.0544 -0.1995
23259W        W36673   5.994   8.427   1.503  0.2344  0.2358  0.1028
23260W        W36674   2.961  14.763  12.100 -0.2626 -0.1895  0.1647
23261W        W36675   0.921  14.387   2.259  0.2922  0.0670  0.1268
23262W        W36676  12.594   1.301  11.009  0.0284  0.1545  0.1840
23263W        W36677   4.753   9.284   2.367  0.1283 -0.0090 -0.0722
23264W        W36678   3.577   7.256   4.836  0.3266 -0.0493  0.0288
23265W        W36679  11.308   0.781  13.281  0.1355 -0.2479  0.2181
23266W        W36680   8.431   9.857   3.443  0.1921 -0.1904 -0.2089
23267W        W36681   4.259  17.404  10.732 -0.1636 -0.0729 -0.0726
23268W        W36682   0.011   8.818   3.913  0.0179  0.3197  0.1453
23269W        W36683  18.210  10.864  13.510  0.0468  0.3591  0.0813
23270W        W36684  17.370   8.506  14.744  0.1326  0.1315  0.2355
23271W        W36685  10.466   0.674   5.233 -0.0577  0.3120 -0.5085
23272W        W36686  14.179   2.561   3.142 -0.1814  0.1480  0.0208
23273W        W36687   4.895  16.484  15.645  0.2263  0.2319  0.1855
23274W        W36688   9.688   6.764  12.768 -0.0458  0.0340  0.0676
23275W        W36689   8.568   1.134   0.297 -0.0224 -0.1322  0.1556
23276W        W36690  14.047   1.594   2.660  0.1756 -0.0613 -0.0765
23277W        W36691   8.685   1.196   1.835 -0.0139  0.0055 -0.1334
23278W        W36692  10.428  10.619  14.049 -0.2356 -0.1114  0.1277
23279W        W36693  16.198   0.225   4.325  0.0121 -0.0077 -0.0868
23280W        W36694   8.311   9.117   0.490 -0.0746 -0.0001 -0.2618
23281W        W36695   7.178   1.886  13.340 -0.0453  0.1460  0.0376
23282W        W36696  13.915   4.360   5.741 -0.4723 -0.3510  0.0088
23283W        W36697  17.185   4.347  16.110 -0.2726  0.1250 -0.1799
23284W        W36698   4.573  12.784   2.870 -0.2412  0.1365 -0.1306
23285W        W36699  13.647  16.919   3.017 -0.2496  0.0482  0.2522
23286W        W36700   9.313   5.075   4.120  0.0115  0.1965  0.2160
23287W        W36701  12.142  12.859  16.193  0.1070  0.0688  0.1818
23288W        W36702   0.154   0.913  11.243 -0.1505  0.0366  0.0027
23289W        W36703   7.221  17.041   2.715  0.0748 -0.2156 -0.1924
23290W        W36704   0.659   0.255  10.528  0.0226  0.2752  0.1607
23291W        W36705   9.166   5.871   2.312  0.0154 -0.0494 -0.2994
23292W        W36706  15.572  16.070   2.235  0.0536 -0.0699  0.2091
23293W        W36707  16.479   2.368  12.490 -0.3559  0.0385 -0.1087
23294W        W36708  12.585   1.340   2.520 -0.0140 -0.0109  0.2926
23295W        W36709   6.477   9.942   2.717  0.1831  0.0903  0.2099
23296W        W36710  16.393  17.382   0.905  0.0656 -0.2418 -0.1352
23297W        W36711   3.297   1.903   4.990 -0.0526 -0.0644  0.0921
23298W        W36712  12.122   6.786  12.726 -0.2282 -0.0149 -0.1734
23299W        W36713  17.654   3.437  16.105  0.1508 -0.1157 -0.3018
23300W        W36714   7.093  15.407  12.979  0.1520 -0.2189  0.0047
23301W        W36715   1.852  16.839  11.296  0.0147  0.0944 -0.1562
23302W        W36716   8.373  17.393   1.997 -0.0747 -0.2431 -0.1162
23303W        W36717  10.084   3.259  13.812 -0.1268  0.1084  0.1586
23304W        W36718   2.258   8.767  15.704 -0.2841  0.0118 -0.0366
23305W        W36719   5.289  14.094  15.833  0.1138 -0.0582  0.0920
23306W        W36720   7.611   3.567   3.246  0.1001 -0.0488  0.1833
23307W        W36721   3.925  12.165   2.721  0.0638 -0.0915  0.0269
23308W        W36722   2.868   2.107  11.227 -0.0510 -0.0455  0.3250
23309W        W36723   3.166  14.867  10.469  0.4748  0.0347 -0.0142
23310W        W36724  10.472  17.740  14.902 -0.2027  0.1317 -0.1718
23311W        W36725  15.972   7.217   1.557 -0.0985 -0.1403  0.0820
23312W        W36726  14.663   3.111  12.604 -0.0694  0.0769  0.0693
23313W        W36727   6.068   5.634  12.377  0.1799 -0.0783  0.3142
23314W        W36728  15.143  13.217   1.230  0.0405  0.0518  0.0311
23315W        W36729   9.687  17.067  10.472 -0.4002 -0.2279  0.1509
23316W        W36730   2.098  16.555   5.946  0.1218 -0.3829 -0.0493
23317W        W36731  17.599   9.511  12.805 -0.0786  0.1063  0.0784
23318W        W36732  11.913   8.656   6.349  0.0817  0.0255 -0.2427
23319W        W36733   3.838   4.063  15.410  0.1422  0.1773 -0.0613
23320W        W36734   7.241  16.707   1.770  0.0876  0.1324  0.0581
23321W        W36735  17.710  12.216  11.326 -0.0064 -0.3207  0.1797
23322W        W36736   4.361   7.179  11.992  0.1302  0.3469 -0.0059
23323W        W36737  15.547   1.001  16.261  0.0674  0.1225 -0.1528
23324W        W36738   8.805  15.660   4.371  0.2924 -0.1672 -0.4440
23325W        W36739   6.747   5.201   3.576  0.0681 -0.0334  0.2552
23326W        W36740   0.490  14.746   5.001  0.2891 -0.0916  0.0282
23327W        W36741   3.191   3.383  14.916 -0.0124  0.1367 -0.1326
23328W        W36742  14.429   7.645   2.828 -0.0979  0.1597 -0.2714
23329W        W36743  15.509  16.026  13.613 -0.1575  0.0652 -0.3395
23330W        W36744   2.705  16.918  16.236 -0.2890 -0.2379  0.1306
23331W        W36745   6.424   9.389   1.934  0.0160 -0.1039 -0.2253
23332W        W36746  16.888   0.924  14.006  0.0298 -0.3207  0.0013
23333W        W36747  10.757  17.257  15.006  0.0824 -0.2898 -0.0719
23334W        W36748  14.299   1.108  13.491  0.4431  0.1213  0.0249
23335W        W36749   2.481   9.710   3.552 -0.3865 -0.0382 -0.0475
23336W        W36750  12.264   7.584   0.296  0.0791  0.1966 -0.1849
23337W        W36751   7.282  17.810  11.295 -0.2337 -0.0178  0.0698
23338W        W36752   6.161  13.022   1.654  0.4692  0.0353  0.1540
23339W        W36753   2.447   4.733   2.516 -0.3244  0.1218  0.0578
23340W        W36754  17.867   9.184  11.716 -0.2013  0.1490  0.3505
23341W        W36755   6.903   0.745   5.000 -0.1829 -0.0734 -0.0163
23342W        W36756   9.515  15.255  13.733  0.0750 -0.0088  0.0648
23343W        W36757  14.477  13.469   1.787 -0.0062  0.3414  0.0688
23344W        W36758  12.287   4.205  13.514 -0.0750 -0.0127  0.0778
23345W        W36759   8.159   8.962  11.149  0.1510  0.0749  0.0948
23346W        W36760  13.047   5.947  15.695  0.0637 -0.0994  0.3869
23347W        W36761   7.700  16.915   1.601  0.1630  0.2855  0.0887
23348W        W36762   0.115   2.871  12.780 -0.0479  0.0067  0.1585
23349W        W36763  17.104  12.363  15.496 -0.2455  0.1913  0.0298
23350W        W36764   6.406   7.892  13.763  0.1491 -0.0204  0.3245
23351W        W36765  17.447   2.329   4.788 -0.1266 -0.1045  0.0053
23352W        W36766   8.405   3.917   5.987 -0.3437  0.0776 -0.0046
23353W        W36767   2.546   4.621  11.420 -0.0942  0.6145  0.0811
23354W        W36768   8.094   7.375   5.117 -0.0376  0.0204  0.2595
23355W        W36769   4.847  17.138  11.671 -0.0705 -0.4211  0.1855
23356W        W36770  10.739   2.001   2.386 -0.2371 -0.0725  0.0661
23357W        W36771   5.203   5.555  13.298  0.0381 -0.5685  0.1520
23358W        W36772  18.005  17.402  12.439 -0.2971  0.0679 -0.1848
23359W        W36773  12.639  17.505   3.197 -0.0774  0.1162  0.2016
23360W        W36774   3.456   2.310  12.696  0.1606  0.0443 -0.1207
23361W        W36775  13.652  12.012   4.652  0.1240  0.0061  0.1485
23362W        W36776   1.425   4.009  14.989  0.0424 -0.0910 -0.2055
23363W        W36777   5.438  13.883  14.305 -0.0935  0.1170  0.1855
23364W        W36778  16.043  16.172   4.642 -0.3645 -0.1701  0.1066
23365W        W36779   9.344  16.316  15.933 -0.1899 -0.1345  0.1569
23366W        W36780   5.486   3.617   3.656 -0.2109 -0.1461 -0.3611
23367W        W36781   8.579   2.059  15.362  0.7101 -0.0214 -0.0256
23368W        W36782   8.964   1.142  11.718 -0.0026 -0.1033 -0.0068
23369W        W36783  14.362   7.461  14.594 -0.0412 -0.1190 -0.0519
23370W        W36784  11.963   3.474  11.662  0.1244  0.2206  0.3079
23371W        W36785  14.005  15.388  11.123  0.1112 -0.0741 -0.0429
23372W        W36786  12.143   7.828   1.303  0.0113  0.0254 -0.4007
23373W        W36787  14.020   2.300   0.656 -0.1459  0.1224 -0.3406
23374W        W36788  11.228  15.977   3.213 -0.1282  0.1387 -0.0133
23375W        W36789   3.633   6.688  14.183  0.0195 -0.3082 -0.0175
23376W        W36790  14.829   1.583  11.844 -0.2811  0.0192 -0.0888
23377W        W36791  11.735  15.570   9.476 -0.0028  0.0547  0.1894
23378W        W36792   6.010  16.892   0.765  0.0928  0.0795  0.0157
23379W        W36793  13.284   6.154  16.074  0.3067  0.2023  0.0839
23380W        W36794   4.472   2.102  15.469 -0.0671 -0.0044 -0.2026
23381W        W36795  13.627  13.586   1.948  0.1967 -0.0554  0.0387
23382W        W36796   3.341  13.616  10.769 -0.0667  0.1366 -0.0424
23383W        W36797   9.477  12.346   6.133 -0.0438  0.1965 -0.0951
23384W        W36798  11.515   8.845   1.519  0.1833 -0.0401 -0.0619
23385W        W36799  14.051   0.879   3.330 -0.2269  0.1839  0.1388
23386W        W36800   7.750   7.265  13.676  0.3478  0.1271 -0.4092
23387W        W36801  17.816   7.261   1.105  0.2041 -0.1427  0.1222
23388W        W36802   8.396   8.853   1.789 -0.1371 -0.0257  0.1601
23389W        W36803  13.076  16.326  15.411 -0.0535 -0.2939 -0.2415
23390W        W36804   8.491   3.686  16.317 -0.1011  0.2524  0.0745
23391W        W36805   7.516   5.534   3.294  0.2825  0.0901 -0.1764
23392W        W36806   9.908   4.748   2.331  0.3708  0.2199  0.0282
23393W        W36807  11.916  10.806   0.278 -0.0317 -0.2958  0.0344
23394W        W36808  14.426  12.188  13.715  0.0001  0.0243  0.3251
23395W        W36809   0.441  12.400   5.237  0.1289 -0.0630 -0.3308
23396W        W36810   9.041  16.016   5.390 -0.0676  0.5100 -0.2192
23397W        W36811   6.461   8.602   1.318  0.1222 -0.0804  0.1232
23398W        W36812  14.195  11.318  12.486  0.0996  0.1553 -0.0317
23399W        W36813  11.387   9.514  13.736  0.3060  0.1312 -0.0095
23400W        W36814  15.815  12.675  11.616  0.1585 -0.3241  0.3739
23401W        W36815   0.840  18.201   2.554  0.2129  0.1225  0.0686
23402W        W36816   0.380   4.642   4.597 -0.1530 -0.2274  0.0402
23403W        W36817   4.358   6.587   1.663  0.3349 -0.3422 -0.2914
23404W        W36818  16.574   0.746  14.398  0.4377  0.0329 -0.1648
23405W        W36819  16.657   8.694  15.216 -0.0596 -0.2728 -0.2577
23406W        W36820   7.226   1.759   2.851  0.0680 -0.2241  0.2762
23407W        W36821  13.010  17.013   2.371 -0.1001 -0.1091 -0.1097
23408W        W36822   7.381  11.722   6.344  0.0100 -0.0464  0.0097
23409W        W36823   1.317   7.806   0.587  0.0579 -0.3765 -0.0201
23410W        W36824   9.570  15.478  12.347 -0.0733  0.3134  0.0814
23411W        W36825   8.151  17.434   2.868  0.2265 -0.1333 -0.0763
23412W        W36826  18.067   3.415   5.545  0.0510 -0.3369 -0.1147
23413W        W36827   2.466   5.517   2.973  0.0629 -0.1683 -0.3122
23414W        W36828   8.357  14.273  10.038 -0.0419 -0.0565 -0.0331
23415W        W36829   3.876  10.795   5.969 -0.3064  0.0584 -0.1539
23416W        W36830  13.513  17.865  10.898  0.2984 -0.0377 -0.1657
23417W        W36831   7.145  17.567   0.851  0.1797 -0.0037  0.0036
23418W        W36832   9.127  10.832  11.248  0.2649 -0.2269  0.0728
23419W        W36833   3.758   0.775   4.274 -0.2209 -0.0808 -0.1038
23420W        W36834  16.883   2.708  12.544  0.2235  0.0176  0.0463
23421W        W36835  17.203  17.558  14.702 -0.0868 -0.1130  0.0628
23422W        W36836   2.511   4.515  10.129  0.0109 -0.2567 -0.0943
23423W        W36837  15.454  14.505   3.552 -0.0555  0.0718  0.1633
23424W        W36838  16.660   9.536   4.748 -0.0187  0.0344 -0.1975
23425W        W36839  17.346  16.076   4.006 -0.5313 -0.0217  0.1011
23426W        W36840   5.473   7.543  12.522 -0.0022  0.0012  0.0402
23427W        W36841   9.031   7.093   2.974 -0.0997  0.0790 -0.1980
23428W        W36842   4.716  14.916   3.103 -0.0637  0.0283  0.2371
23429W        W36843  13.862  15.838  13.863 -0.1612 -0.1643 -0.0804
23430W        W36844   6.018   6.974   0.959  0.0804 -0.2674 -0.0434
23431W        W36845  15.201   5.610   0.235  0.1650 -0.1361 -0.0315
23432W        W36846   1.440  12.513  16.424  0.0098 -0.0681  0.3470
23433W        W36847   0.198  10.807   4.882 -0.0989 -0.2779 -0.1924
23434W        W36848  16.613   7.310  16.439 -0.0916  0.1106 -0.1198
23435W        W36849   2.165  16.190  10.772 -0.0346 -0.0240 -0.0904
23436W        W36850  13.538   7.502   2.387 -0.0441 -0.2562 -0.1718
23437W        W36851   1.377   3.146  14.784 -0.2308 -0.0858 -0.0564
23438W        W36852   0.327   6.223  14.778 -0.2104 -0.0183 -0.0559
23439W        W36853  13.207   3.446  11.419  0.0313 -0.0651  0.1215
23440W        W36854   0.956  13.974   5.193 -0.0179 -0.2248  0.0976
23441W        W36855  13.736  12.770   2.355 -0.1609  0.2963  0.1983
23442W        W36856   0.442   0.213  15.710 -0.3994 -0.3272 -0.0208
23443W        W36857  17.705   0.356  12.163 -0.3226 -0.1941  0.2131
23444W        W36858  17.475  16.405   4.352 -0.1963 -0.1106 -0.0031
23445W        W36859  12.927  17.941   0.836 -0.0180  0.1779  0.0835
23446W        W36860   5.939  11.811  11.823  0.1436 -0.2604 -0.0500
23447W        W36861   4.961   0.584   4.112  0.0331 -0.2990 -0.1216
23448W        W36862   4.948   0.837  11.702  0.0298  0.2574 -0.1450
23449W        W36863   8.987   1.348  12.666 -0.0296 -0.0017 -0.0439
23450W        W36864  12.191   7.048  11.930  0.0983  0.0171  0.2822
23451W        W36865  13.382  12.825   5.708  0.0216  0.2754 -0.0997
23452W        W36866  13.919   9.673   0.159  0.0298  0.5024  0.2174
23453W        W36867   3.403   2.590   3.480  0.1258  0.0948  0.2740
23454W        W36868  17.216   1.206  12.645 -0.1172 -0.1660  0.0503
23455W        W36869   2.509  11.454  10.835 -0.1132  0.1870 -0.0156
23456W        W36870   2.568   6.666  14.193 -0.2723 -0.2586  0.0028
23457W        W36871  14.084   8.903   3.425  0.0371 -0.3126 -0.2182
23458W        W36872  17.480  12.370   5.948 -0.0511  0.1334  0.0129
23459W        W36873  15.160  12.866   1.646  0.2527 -0.1077 -0.0129
23460W        W36874   7.471   5.155  10.465 -0.1393  0.1261  0.1407
23461W        W36875   9.960  10.526   1.567 -0.1886  0.1470  0.0278
23462W        W36876  13.256   3.505   0.935  0.1705 -0.0846 -0.1356
23463W        W36877  11.791   7.445   1.507  0.3158 -0.1218  0.0496
23464W        W36878  11.066   6.481   2.764 -0.0531 -0.2129  0.2080
23465W        W36879  10.211  16.847   4.222  0.1047 -0.0505  0.2393
23466W        W36880   3.492   0.333  11.155 -0.0109 -0.0861 -0.0779
23467W        W36881   8.817   2.985  15.149 -0.1815  0.1407 -0.0245
23468W        W36882   1.849   7.738  15.294  0.0504 -0.0639  0.2627
23469W        W36883   1.041   4.980   1.068  0.4048  0.3316  0.0365
23470W        W36884   7.574  12.267   3.585 -0.0744 -0.0142 -0.2337
23471W        W36885   0.175   3.330  14.029 -0.1004 -0.1137  0.1594
23472W        W36886  17.919   0.376   6.453 -0.1135  0.2258 -0.0982
23473W        W36887   5.530  15.523   2.667 -0.1857 -0.0456  0.1412
23474W        W36888   8.563   8.185   4.414 -0.1681 -0.1682  0.0861
23475W        W36889  11.500  11.950   4.687  0.0380 -0.0099  0.1607
23476W        W36890  16.391  15.864   3.613 -0.1894 -0.0443  0.3291
23477W        W36891  15.656   1.670   4.641  0.0736 -0.1322  0.3238
23478W        W36892  15.198   5.794  14.816  0.4686 -0.1300  0.1342
23479W        W36893   6.964   1.226   4.437 -0.0359 -0.0522  0.0821
23480W        W36894   1.853   7.851   3.478 -0.0925 -0.2269  0.0413
23481W        W36895  14.561   6.801  16.444  0.0906 -0.1243  0.0641
23482W        W36896   3.465  11.159   0.732  0.0667  0.0813  0.2506
23483W        W36897  15.948   6.032  10.646  0.0260 -0.1269  0.1462
23484W        W36898   4.584  16.015  15.882 -0.1965 -0.2066  0.1627
23485W        W36899   2.997   9.174   4.211  0.1234 -0.1822  0.3038
23486W        W36900  16.177   5.326   1.182  0.2456  0.0890  0.0570
23487W        W36901   9.705  14.809   4.230 -0.0509  0.0889  0.0110
23488W        W36902   8.921   2.803   1.285 -0.3065  0.1592 -0.3912
23489W        W36903  12.211   0.936   1.752 -0.1072 -0.0938 -0.3120
23490W        W36904  15.603  12.213   4.206  0.3566  0.0764  0.0161
23491W        W36905  15.655   4.630   1.624  0.0817  0.2018 -0.2025
23492W        W36906   8.870  12.034   3.522  0.3194  0.0248  0.0230
23493W        W36907  13.226   5.241   2.191  0.1184 -0.1957 -0.0983
23494W        W36908   5.172   9.854  14.549 -0.2672 -0.1881  0.2465
23495W        W36909   8.219  14.326  13.542 -0.1451 -0.0454 -0.0089
23496W        W36910   9.159  16.312  12.373  0.0794  0.4005 -0.1203
23497W        W36911  14.379   5.140  13.129  0.1369  0.0215  0.0306
23498W        W36912  18.015  12.283   3.137  0.0518  0.2147 -0.0548
23499W        W36913  16.137   8.746  13.029  0.2358  0.1060 -0.0150
23500W        W36914   2.487   1.204   5.735 -0.3520  0.1016 -0.2833
23501W        W36915  17.307   2.259   3.901 -0.0242 -0.0117  0.0208
23502W        W36916  17.290  16.934  15.792  0.2512  0.1695  0.2117
23503W        W36917   6.061   9.880  13.886  0.2610  0.3231 -0.2095
23504W        W36918  12.947   4.142  11.295 -0.1260 -0.1590 -0.1579
23505W        W36919   1.919   0.772   4.412  0.4886  0.2080  0.0468
23506W        W36920  12.369  10.388  14.717 -0.5396  0.0900 -0.1637
23507W        W36921  10.588   7.942  11.211  0.0748  0.0518 -0.1273
23508W        W36922   5.834   8.137  15.030 -0.4106 -0.2217  0.2368
23509W        W36923   9.373  14.035   5.242 -0.1386  0.3630  0.2291
23510W        W36924  15.728   3.930  11.619 -0.0432  0.1800  0.0200
23511W        W36925   5.762   6.052   2.113  0.0987  0.0001  0.1067
23512W        W36926  10.786  12.300  13.448  0.2376 -0.1910 -0.3063
23513W        W36927  11.386   3.542   1.826  0.0889 -0.4450 -0.3431
23514W        W36928  14.340   1.263   3.435  0.0641 -0.2160  0.0378
23515W        W36929  16.919  11.812  11.692 -0.1163  0.0638  0.1203
23516W        W36930   2.887  10.879   0.123  0.0865  0.0899  0.2209
23517W        W36931  16.646   7.623   6.176 -0.2550  0.2549 -0.0771
23518W        W36932  11.640   4.011   3.007 -0.0267  0.0591  0.0501
23519W        W36933   7.393   6.544   3.367 -0.0794 -0.3818 -0.1158
23520W        W36934   4.235  10.962  14.590 -0.2963  0.1039 -0.1413
23521W        W36935  15.343  17.832  15.098 -0.0135 -0.1904 -0.0900
23522W        W36936   2.926  13.114  11.718 -0.2937 -0.0580 -0.1322
23523W        W36937  18.157  12.159   0.685 -0.0942 -0.1757  0.2799
23524W        W36938   8.413   4.248  16.257  0.0546 -0.2463  0.2307
23525W        W36939   6.306  17.277  15.725  0.2221 -0.2188  0.1676
23526W        W36940   9.351   9.056  13.847 -0.1214 -0.2850 -0.0948
23527W        W36941   2.562   8.410   3.526 -0.1632  0.1852 -0.3203
23528W        W36942   6.263   8.751  15.538 -0.1797  0.3263  0.0907
23529W        W36943  12.494   9.989   4.528 -0.1234  0.1246 -0.2875
23530W        W36944  10.723   9.118  16.262 -0.3125  0.1476  0.1723
23531W        W36945  18.192  15.004  12.868  0.1667  0.0695  0.0814
23532W        W36946   6.778  10.623  12.955 -0.1412  0.3311 -0.1064
23533W        W36947  11.202  16.320   1.641  0.3776 -0.1865 -0.0520
23534W        W36948   7.611  14.673  12.074 -0.0127 -0.2413  0.0805
23535W        W36949  15.583   9.284  10.744 -0.3196  0.1734 -0.3186
23536W        W36950  12.291   1.991  11.156 -0.3408 -0.1074  0.1570
23537W        W36951   5.039  14.735  10.761 -0.2033  0.0843 -0.0236
23538W        W36952   0.356  13.731  15.033  0.0707  0.2802 -0.0782
23539W        W36953   3.155  11.517   1.250  0.2290 -0.0702  0.1648
23540W        W36954  16.987  17.169   2.144  0.2005  0.0650  0.2336
23541W        W36955  14.341   6.722   3.772 -0.1725 -0.1498 -0.1651
23542W        W36956   6.317  13.753  13.736 -0.0120  0.1151  0.0292
23543W        W36957   7.222   1.172   4.859 -0.2576  0.0606 -0.1583
23544W        W36958   1.222   9.112   6.225  0.0085  0.0968  0.0289
23545W        W36959   4.861   0.318   0.051 -0.0230 -0.1721 -0.0292
23546W        W36960  13.653   7.368  13.989  0.3965  0.2076 -0.2062
23547W        W36961   3.830   2.912   5.373  0.2209 -0.1984  0.2532
23548W        W36962  14.664   4.706  14.832  0.1832  0.1971 -0.1054
23549W        W36963  16.501   1.234  13.842  0.0669 -0.1573 -0.1014
23550W        W36964   3.470  15.414   2.470 -0.0488 -0.0873  0.0495
23551W        W36965  14.739   6.418   0.312  0.0535 -0.3478 -0.1367
23552W        W36966   4.959   0.395   5.486 -0.0658 -0.2821 -0.0210
23553W        W36967  11.409   8.432   3.635 -0.0315 -0.0942  0.1724
23554W        W36968   2.491  15.977   0.758  0.1338 -0.0292 -0.0137
23555W        W36969   1.856  12.618  15.630 -0.0826 -0.2625 -0.1083
23556W        W36970   7.099  17.421  12.120 -0.1259  0.1404  0.0889
23557W        W36971   2.547   7.584   1.355 -0.0926 -0.0675 -0.0178
23558W        W36972   5.564  14.042   5.572  0.0782 -0.0130 -0.0185
23559W        W36973   4.841  10.972   6.248 -0.0008  0.0972 -0.1827
23560W        W36974   5.507  13.947  15.185 -0.0755  0.0523 -0.0799
23561W        W36975   8.528  12.978   2.701  0.0486  0.1368  0.1427
23562W        W36976  11.049  13.264  13.341  0.1345  0.1064 -0.0787
23563W        W36977  11.361  13.159   0.344 -0.3194  0.1299 -0.0097
23564W        W36978   8.700   4.499  14.572 -0.0488 -0.0565  0.1451
23565W        W36979  10.717   3.127  14.440  0.4901  0.0340 -0.1089
23566W        W36980  12.879   7.523   4.662 -0.0619  0.1693 -0.0641
23567W        W36981  17.834  15.490  12.952 -0.2062 -0.2715  0.2851
23568W        W36982   4.187  16.825  10.478 -0.3697  0.0392 -0.1117
23569W        W36983  14.908  15.037  14.642 -0.2159 -0.1932 -0.1414
23570W        W36984   1.383  11.862  12.362  0.2045 -0.0465 -0.1590
23571W        W36985  11.405   7.997   6.238  0.2446  0.0632 -0.0992
23572W        W36986   2.679   9.431  14.110 -0.3191 -0.0860 -0.0608
23573W        W36987  16.767   9.329   0.439  0.0770  0.1251 -0.0177
23574W        W36988   6.863  10.342   6.174 -0.1915  0.2069 -0.0658
23575W        W36989  13.614   2.812  11.859 -0.0189  0.1596 -0.1960
23576W        W36990   6.228  10.892   5.102 -0.2708  0.0691 -0.0419
23577W        W36991  16.083  15.663  11.034 -0.0552 -0.1289 -0.2228
23578W        W36992   8.931   0.469   1.399  0.1978 -0.0517 -0.0748
23579W        W36993  16.045   8.532   5.463 -0.1340  0.0011 -0.1228
23580W        W36994  16.522  16.318   0.380 -0.2006 -0.1328 -0.1678
23581W        W36995   8.325   5.148   1.450 -0.0652 -0.1383 -0.0392
23582W        W36996  11.743  14.092  14.074 -0.1124  0.3143 -0.0988
23583W        W36997  14.051  16.566   5.529 -0.1372  0.0487 -0.2144
23584W        W36998  11.564   4.640   4.434 -0.0200 -0.2081 -0.0393
23585W        W36999   2.037   0.977   0.069 -0.2009 -0.1038  0.1617
23586W        W37000  10.354  11.395   4.879 -0.2817  0.0089 -0.0958
23587W        W37001  11.050  17.003   1.655 -0.0659 -0.0139  0.0160
23588W        W37002  10.211  11.729   3.296  0.2959  0.1231 -0.0919
23589W        W37003   5.964   1.760   1.846 -0.1502  0.2108  0.2145
23590W        W37004   6.058   6.401   2.951  0.0827 -0.0073 -0.0361
23591W        W37005   0.952   3.954  13.711  0.0362 -0.0605  0.0734
23592W        W37006  15.883   1.687   1.342 -0.0182 -0.1946 -0.2696
23593W        W37007   9.892   1.049  10.009  0.2923 -0.1151 -0.0037
23594W        W37008  17.652  11.318   0.559  0.1738 -0.1738 -0.1314
23595W        W37009   1.169   7.934  16.257 -0.0479  0.2612 -0.0482
23596W        W37010   9.784  15.664   1.240  0.1658 -0.0623  0.0578
23597W        W37011   8.479  16.923  11.397  0.0815 -0.0466  0.0273
23598W        W37012   0.286  11.324  12.161  0.0457  0.0328 -0.0523
23599W        W37013   1.038   9.467   5.329  0.1070  0.0488 -0.1478
23600W        W37014  12.509   6.533  12.597  0.1231  0.2314 -0.0584
23601W        W37015   2.036   8.640  11.465 -0.6984 -0.0085  0.1345
23602W        W37016   0.754   9.679   4.500 -0.1172 -0.1536  0.2415
23603W        W37017   9.995   4.136   4.022 -0.2375 -0.0951  0.1627
23604W        W37018   6.889   8.479   6.074 -0.3260  0.0311 -0.0835
23605W        W37019  14.526   9.355   3.981 -0.0699  0.1377 -0.0791
23606W        W37020   0.629  14.429   5.305 -0.1490  0.2148  0.0160
23607W        W37021  17.645   3.833  13.808 -0.2902 -0.0860  0.1734
23608W        W37022   8.623  17.814  11.212  0.2511 -0.1503 -0.0016
23609W        W37023  15.934   5.983  13.012  0.1806 -0.0334 -0.2318
23610W        W37024   6.855  10.608   1.277  0.0725  0.0988 -0.0627
23611W        W37025   1.385  11.766  14.137  0.2004  0.1669  0.2462
23612W        W37026  15.182  14.541   5.922 -0.0414  0.2642 -0.0300
23613W        W37027   1.635   7.695   5.295 -0.0307  0.2863  0.2324
23614W        W37028   4.065  14.064  14.622 -0.2143 -0.1920  0.1354
23615W        W37029   7.189   1.731   3.796  0.0912 -0.2461 -0.2797
23616W        W37030  16.731   5.015  11.664  0.3482 -0.1418  0.1142
23617W        W37031  15.534  11.515   5.384  0.1528 -0.0007 -0.1711
23618W        W37032   9.889  10.127   4.569  0.0262  0.1094 -0.0561
23619W        W37033   4.566  15.663  13.626  0.0006  0.1527 -0.1942
23620W        W37034   0.129   7.625  11.244  0.0032 -0.0493  0.0145
23621W        W37035  10.645   2.522   5.371  0.0914 -0.1722  0.1774
23622W        W37036   5.461   0.359   5.402 -0.2882  0.0504  0.0302
23623W        W37037   6.836   7.796  12.503  0.0070  0.1567 -0.1366
23624W        W37038  11.715  11.934  14.325  0.0155  0.1033 -0.0792
23625W        W37039  12.171   4.742   2.411 -0.1488 -0.0044 -0.0606
23626W        W37040  11.463  17.171  10.748 -0.2087 -0.0478 -0.0338
23627W        W37041   4.939  14.497   2.801 -0.0877 -0.0493  0.1672
23628W        W37042  13.041   0.466  10.929  0.1610 -0.0887 -0.1919
23629W        W37043   5.128   9.460   2.020 -0.0415 -0.0832 -0.1699
23630W        W37044   3.108   0.532   2.817  0.0982 -0.0708 -0.1365
23631W        W37045   2.349   8.673   3.084 -0.0059 -0.2481  0.1040
23632W        W37046  16.195   5.400  14.759 -0.1543 -0.1436 -0.0528
23633W        W37047   2.197   1.641  12.386 -0.1306  0.1245 -0.1853
23634W        W37048   1.445  13.693   5.993  0.3330 -0.0384  0.0794
23635W        W37049  11.908   9.540   0.819  0.2216  0.1070 -0.2055
23636W        W37050   7.903   3.500   4.003 -0.2471 -0.0718  0.0431
23637W        W37051   7.072   1.910   1.596  0.0344  0.0255 -0.0882
23638W        W37052   7.264  11.448  10.917  0.3457 -0.2474 -0.0796
23639W        W37053  14.939   3.168   0.156  0.1705  0.3788  0.2583
23640W        W37054   3.792   7.850   4.196  0.0402 -0.0745  0.0492
23641W        W37055  17.085  12.309  10.492 -0.1094  0.0185  0.2645
23642W        W37056   5.111   1.566  15.105 -0.1726  0.1390 -0.0517
23643W        W37057  10.144   2.451   5.579 -0.3182  0.1952  0.1667
23644W        W37058   3.278   2.197   1.705  0.0764 -0.0781 -0.1904
23645W        W37059   2.295  18.192   1.070  0.1470  0.1068  0.0601
23646W        W37060   2.893   9.209   5.673  0.2592 -0.1563 -0.0257
23647W        W37061  10.448   9.509   4.811  0.0473  0.1462 -0.2872
23648W        W37062  15.273  14.859   1.022 -0.0598 -0.1975  0.3060
23649W        W37063   9.106   7.659   0.185  0.2209 -0.1868 -0.0467
23650W        W37064   7.391   6.787   1.088 -0.1936  0.0089 -0.1438
23651W        W37065   7.480   1.729  12.532  0.0595 -0.1723 -0.2202
23652W        W37066   6.103  11.707   5.282 -0.4049  0.1645 -0.0736
23653W        W37067  16.033  16.066   2.091 -0.3106 -0.1441 -0.1306
23654W        W37068  14.895  17.477  11.411 -0.1450  0.1512  0.0395
23655W        W37069   7.073   4.348  10.628  0.2335  0.3369 -0.1808
23656W        W37070   4.169  16.601   3.752 -0.3210 -0.0726  0.1417
23657W        W37071   5.378   5.480  13.767 -0.1286  0.0676 -0.2104
23658W        W37072   9.228  13.439  12.319 -0.0397  0.3598  0.1158
23659W        W37073  16.652  12.282   1.287 -0.2405  0.1089  0.0421
23660W        W37074  15.430   4.181  16.441 -0.0543  0.1646 -0.0256
23661W        W37075  12.909   6.427  11.618 -0.0058 -0.1674 -0.0975
23662W        W37076  13.408   3.619   2.835  0.1171  0.1703  0.0574
23663W        W37077   7.959   2.776   5.250  0.1159 -0.0679  0.1120
23664W        W37078  13.760   3.106  12.707 -0.0462  0.6112 -0.4838
23665W        W37079  11.313   3.897   1.440 -0.0091 -0.0711  0.1033
23666W        W37080  12.996  18.178  15.996 -0.0691  0.1472  0.0242
23667W        W37081  14.833   4.422  13.928  0.0005  0.2325  0.2560
23668W        W37082  10.898  11.939  15.298  0.1990  0.1369  0.0197
23669W        W37083   2.078  11.319  15.117  0.1480 -0.0129  0.0127
23670W        W37084   0.646  12.795  16.032 -0.0843  0.0019  0.0198
23671W        W37085  11.140   9.695  12.839  0.0880  0.1079  0.0950
23672W        W37086   5.898   8.368   2.067 -0.2756  0.0946 -0.2368
23673W        W37087   8.480   6.997   3.012 -0.1342 -0.0935 -0.1338
23674W        W37088  10.182   7.962   5.737 -0.0549 -0.1897 -0.3952
23675W        W37089   1.966  10.886   1.272 -0.3230  0.1593 -0.1530
23676W        W37090  11.026  17.534   4.322  0.1751  0.0460  0.0096
23677W        W37091   7.022   4.807  15.482  0.1784  0.0635 -0.2136
23678W        W37092  15.747  12.165  11.602 -0.2325  0.3203 -0.1616
23679W        W37093  10.903  18.011   2.076  0.0233  0.1800  0.0466
23680W        W37094   2.518  15.059  13.034 -0.1007 -0.0030  0.2237
23681W        W37095  11.319   8.299   1.124  0.0802  0.1497 -0.0166
23682W        W37096  12.518   5.228   1.489 -0.0967 -0.1343  0.1174
23683W        W37097  15.753  16.638   4.843  0.1721 -0.1269 -0.0264
23684W        W37098  12.447   8.705   1.299  0.1214  0.2096  0.1457
23685W        W37099  17.309  16.332   3.233 -0.2332  0.0581  0.2594
23686W        W37100   1.791  13.184  11.823  0.2442 -0.2504  0.0112
23687W        W37101  12.946   5.768   5.241  0.1031 -0.3519 -0.1408
23688W        W37102   6.606  14.248  11.036 -0.0593  0.1072  0.1070
23689W        W37103  15.102   2.515   4.907 -0.2215  0.0271  0.1830
23690W        W37104  16.817   4.275  11.410 -0.2685 -0.2270 -0.2264
23691W        W37105   0.635   1.344   4.002  0.2756  0.1992  0.0745
23692W        W37106   0.350   3.887   1.990  0.2076  0.0551 -0.0926
23693W        W37107  15.894  15.878   3.282  0.1929  0.1030 -0.0320
23694W        W37108  11.941  16.735  10.034  0.1532  0.0181 -0.2531
23695W        W37109  13.408   5.515   4.505  0.3976 -0.1120 -0.0308
23696W        W37110  16.586  10.497   1.033 -0.1500 -0.0252 -0.3489
23697W        W37111   2.875  17.760  15.603  0.3139 -0.1528  0.1651
23698W        W37112   9.782  15.396  10.893  0.3586  0.1593 -0.0425
23699W        W37113   5.323  13.534  12.894  0.4213  0.0933  0.1795
23700W        W37114  14.517   4.158  11.336  0.1584 -0.0884 -0.0667
23701W        W37115  17.837   4.609   5.302 -0.0366  0.1045 -0.0269
23702W        W37116  16.699  18.026  13.579 -0.0834 -0.1716 -0.0199
23703W        W37117   4.789  15.576   3.622 -0.5494 -0.1149 -0.1604
23704W        W37118  17.742   0.158  15.257 -0.0923  0.2811 -0.1201
23705W        W37119   1.932   4.038  12.789 -0.0525 -0.2936  0.1318
23706W        W37120  11.825   5.138   2.180 -0.0588 -0.0864 -0.1369
23707W        W37121   7.652  14.857  16.202 -0.3284  0.0043  0.1179
23708W        W37122   7.746  12.418  16.266 -0.1572 -0.0057  0.1683
23709W        W37123  17.683  10.821  10.347  0.0089 -0.1923 -0.3351
23710W        W37124   7.069  18.039  16.446 -0.2563 -0.1408  0.0673
23711W        W37125   3.268   6.958   4.013  0.4003  0.1424 -0.0700
23712W        W37126  14.755   6.972  13.857 -0.3217 -0.1918  0.1668
23713W        W37127   6.864  14.893  12.920  0.4024 -0.4464 -0.2765
23714W        W37128  11.182   6.876   0.458 -0.3999  0.1229  0.3835
23715W        W37129  18.044  15.891  12.753 -0.0209 -0.2008 -0.0148
23716W        W37130  13.336   9.632   4.409  0.2172 -0.0296  0.1927
23717W        W37131   7.961  15.689   1.546 -0.4133  0.0891  0.1983
23718W        W37132  16.653  11.698  14.470 -0.1021  0.0467  0.0699
23719W        W37133   9.115  12.735   3.249 -0.0594 -0.1115  0.0191
23720W        W37134  15.971   5.074   6.281 -0.1226 -0.0976 -0.2064
23721W        W37135   1.742  18.223   2.153  0.2024  0.0690 -0.3622
23722W        W37136  16.769  17.091  11.945  0.0473 -0.2001  0.1778
23723W        W37137   6.381  16.440  13.134 -0.0595  0.1121 -0.0051
23724W        W37138   9.417   3.040  13.824 -0.1130  0.3080  0.1915
23725W        W37139  16.026  12.098   3.968 -0.0594 -0.4686  0.1731
23726W        W37140   8.660  12.740  12.859  0.0258 -0.1310  0.0965
23727W        W37141  17.960   7.379  11.451  0.0382 -0.0056  0.0097
23728W        W37142   8.357  16.133   2.368 -0.0266  0.2091  0.0141
23729W        W37143  11.341   7.540   3.399 -0.2047  0.1500  0.0509
23730W        W37144  14.660   6.372  15.836 -0.0422 -0.0302 -0.1079
23731W        W37145  10.688  14.509  14.707  0.2023  0.2195 -0.1846
23732W        W37146   3.743   3.554  11.577 -0.3434  0.3028  0.0181
23733W        W37147   9.587  11.055   5.394  0.1686  0.0472 -0.1646
23734W        W37148   9.525  16.970  13.281 -0.0524 -0.2348 -0.0695
23735W        W37149   1.776   6.337  12.537 -0.1718  0.0173  0.0142
23736W        W37150   3.638  16.266  12.949 -0.1762  0.1204  0.0309
23737W        W37151  12.310   0.774  13.872  0.1803  0.1165  0.1066
23738W        W37152  10.087  12.702   1.100  0.2164  0.2002 -0.2225
23739W        W37153   3.207   4.185   0.679  0.0584 -0.0318  0.1493
23740W        W37154   5.703   5.220   2.697 -0.1228 -0.0859  0.1719
23741W        W37155   1.692   3.612  13.274  0.0463 -0.0249 -0.0061
23742W        W37156   8.018   9.613   0.168 -0.0260  0.0156 -0.0085
23743W        W37157  13.740   9.093  14.874 -0.2526 -0.0097  0.0160
23744W        W37158  10.282  11.579  15.415 -0.2241 -0.0855  0.1095
23745W        W37159  12.870  11.761   2.156 -0.1414 -0.3347 -0.0761
23746W        W37160   1.567  15.512  11.563 -0.0714 -0.1657 -0.2368
23747W        W37161  11.353  14.862  16.480 -0.0366 -0.2019 -0.0591
23748W        W37162   5.002   4.489   4.209  0.1010 -0.1096 -0.0343
23749W        W37163  11.722  13.962  13.251  0.2247 -0.0247  0.2848
23750W        W37164   9.143   6.834   2.161  0.0814  0.1081  0.0139
23751W        W37165  17.766   4.048   4.280  0.1487  0.0480 -0.0921
23752W        W37166  11.895   2.640   3.854  0.3194  0.2291  0.0007
23753W        W37167  11.561   0.043   5.068 -0.0907 -0.1534  0.1915
23754W        W37168   9.658  12.636   2.545  0.1478  0.0584  0.0192
23755W        W37169   2.630   9.890   2.255 -0.0613 -0.2875 -0.0482
23756W        W37170  12.139   8.300  13.469  0.1640 -0.1276  0.1756
23757W        W37171   5.606  17.371  14.946 -0.1961 -0.0588 -0.1831
23758W        W37172  17.421   8.221   2.090 -0.2631 -0.2544 -0.1503
23759W        W37173  14.940  11.906   5.942 -0.0879  0.0116  0.1804
23760W        W37174  17.282   0.150   4.904  0.3922 -0.0629 -0.0276
23761W        W37175  16.486  15.472  14.384  0.3100  0.0748  0.1782
23762W        W37176   7.776  11.462   5.602 -0.0272  0.1131  0.2959
23763W        W37177   2.118  10.617  14.632  0.2257  0.0074 -0.0248
23764W        W37178   0.188   3.986  12.283  0.1175  0.0620 -0.0614
23765W        W37179   4.869   7.921  13.791  0.1101 -0.0457  0.0263
23766W        W37180   4.679   0.924   1.656  0.0410  0.4212 -0.0518
23767W        W37181  18.042   9.767   6.152 -0.0162 -0.1438  0.0577
23768W        W37182   2.762  14.530  16.039 -0.1110  0.1690  0.4131
23769W        W37183  11.914  14.928   3.033  0.2469  0.3548 -0.2407
23770W        W37184  12.068  13.486  13.229 -0.1382  0.0218 -0.1713
23771W        W37185   5.741   7.032   1.431  0.1426  0.0871 -0.3409
23772W        W37186   7.726  15.872   9.731 -0.3379 -0.1340  0.1104
23773W        W37187   7.168   6.507   5.128 -0.2514  0.0427  0.1553
23774W        W37188  10.651  15.931  13.639 -0.3573  0.0407  0.0477
23775W        W37189  14.704   6.511   4.031 -0.1000 -0.2457 -0.1326
23776W        W37190  17.379   4.611   1.673 -0.1064  0.0595  0.3129
23777W        W37191  17.649   3.950   2.599  0.1708 -0.0502 -0.1150
23778W        W37192   5.031  15.183   4.463 -0.2101  0.1515  0.1836
23779W        W37193  15.797   7.456   4.575 -0.0553  0.0863 -0.0209
23780W        W37194   7.141   0.536  13.702  0.0534  0.0221  0.2888
23781W        W37195   6.230   7.327   5.468 -0.0904  0.0978  0.1051
23782W        W37196   6.071  17.006   1.900  0.2681  0.0890 -0.2901
23783W        W37197   5.239   3.916   3.309  0.2239 -0.2538  0.0170
23784W        W37198  14.449  11.468  12.948  0.0776  0.2714 -0.2045
23785W        W37199   0.421  11.705   6.493  0.1065 -0.1583 -0.1520
23786W        W37200   8.928  16.329  13.923  0.0887  0.1532  0.0785
23787W        W37201   2.013  13.688  11.352 -0.0460 -0.1428 -0.1550
23788W        W37202   3.722   2.600   4.519  0.2166  0.0358  0.0062
23789W        W37203   6.592  15.142  11.995 -0.1558 -0.0614 -0.2996
23790W        W37204   2.274  10.219   3.961 -0.2669 -0.5208  0.1724
23791W        W37205   0.695   5.162   2.005  0.0957  0.4192  0.3893
23792W        W37206  10.537  16.816  15.238 -0.1880  0.0416  0.2201
23793W        W37207   1.289   6.804   3.249  0.0618 -0.1102  0.0121
23794W        W37208  16.839   2.416  14.242  0.2281  0.1615  0.2238
23795W        W37209  13.108   2.969  12.160  0.2182 -0.1933 -0.0613
23796W        W37210  11.846   8.136  16.211 -0.1844 -0.1677 -0.1364
23797W        W37211   9.657   1.787  12.074 -0.1062  0.0031  0.0279
23798W        W37212   2.323   4.248   4.876  0.2105 -0.2946  0.1035
23799W        W37213   6.716   1.211   4.942 -0.3290 -0.0800 -0.1756
23800W        W37214   6.164   2.534  14.198  0.1569 -0.3156  0.2587
23801W        W37215  11.217   5.698   1.522  0.0506  0.2552 -0.3137
23802W        W37216  13.045  17.123   3.280 -0.0309 -0.1074  0.1899
23803W        W37217   6.307  14.509  14.385  0.1961 -0.1707 -0.0062
23804W        W37218  16.003  12.793   0.920 -0.0338  0.0334 -0.0022
23805W        W37219  13.334   5.755  10.607  0.3471 -0.0886 -0.0521
23806W        W37220  17.619  12.386   1.280 -0.0535 -0.0230 -0.2320
23807W        W37221  11.083  11.648   2.949 -0.2934  0.0549  0.0023
23808W        W37222  10.385   7.374   2.638  0.2284 -0.3447 -0.0620
23809W        W37223  13.666   2.410  10.742 -0.0771  0.1272  0.0305
23810W        W37224  12.905   2.100  13.083 -0.1850 -0.1155 -0.1897
23811W        W37225   1.911  13.982  12.454  0.1825 -0.0836 -0.0009
23812W        W37226   0.789  12.229  11.498 -0.1999 -0.2322 -0.1461
23813W        W37227  11.628   6.398   1.740  0.5527 -0.0449 -0.3520
23814W        W37228   1.099  15.272  11.626 -0.2398 -0.2635 -0.1792
23815W        W37229  14.094  10.022   0.733 -0.4000  0.2315 -0.1576
23816W        W37230   4.630  16.931   1.129 -0.2203 -0.2999 -0.0926
23817W        W37231   4.491  14.166   4.526  0.1837 -0.1300 -0.1183
23818W        W37232   8.875   1.636  15.335 -0.0218 -0.1743 -0.0586
23819W        W37233  12.282   5.702   1.518  0.1452  0.0233  0.1409
23820W        W37234  12.932  17.985  11.918 -0.0728  0.0853 -0.0557
23821W        W37235  12.838  13.598   4.002 -0.1539 -0.1899 -0.3494
23822W        W37236  10.971  17.957  14.828 -0.0341 -0.0630  0.1800
23823W        W37237   0.474  12.032  14.809  0.0102  0.3834 -0.1612
23824W        W37238  10.096  12.313   5.353  0.1543  0.2380  0.0134
23825W        W37239   3.671   8.594  15.784 -0.1354  0.0388  0.2500
23826W        W37240  10.097  14.450   0.504 -0.0946 -0.0840 -0.0910
23827W        W37241  14.606   6.667   5.465  0.0433 -0.0324  0.1115
23828W        W37242   4.213   2.443   4.573 -0.1441  0.0072 -0.4676
23829W        W37243   3.502  17.516   3.336  0.1939 -0.0204  0.1024
23830W        W37244   1.308   7.075   0.435 -0.2492 -0.3448 -0.2259
23831W        W37245  13.485   9.967   5.429  0.1368  0.1870  0.0301
23832W        W37246   8.318   8.575  10.496  0.0566  0.1203 -0.2497
23833W        W37247  13.169  10.776  14.023  0.2573  0.0127 -0.0902
23834W        W37248   0.385  14.385  11.825 -0.1673 -0.0269 -0.0561
23835W        W37249  11.138   9.741  13.380  0.0205  0.1760  0.1836
23836W        W37250   0.165  14.408   0.925  0.0739  0.4702  0.1498
23837W        W37251   0.408   1.784   5.985  0.0952  0.0846 -0.1442
23838W        W37252  15.613   7.258  15.929 -0.0995  0.0234  0.0863
23839W        W37253   2.205   2.061   4.808 -0.0940  0.0357  0.3829
23840W        W37254   0.193  15.763   0.164  0.1202  0.1726  0.0971
23841W        W37255   6.704   2.306   5.590 -0.0908 -0.1178  0.0940
23842W        W37256  12.077  13.157   1.386 -0.2237  0.0543 -0.0934
23843W        W37257   7.158   5.237   1.022  0.2165  0.1027  0.2098
23844W        W37258  16.772  13.389   2.287  0.1473  0.0369  0.0452
23845W        W37259  15.601  16.107  15.959  0.0982  0.0104  0.0346
23846W        W37260  10.908   5.430   1.869  0.0702  0.1841  0.1251
23847W        W37261   6.408   6.594   1.032 -0.1843  0.0704 -0.2240
23848W        W37262   2.997  11.101   1.030  0.0123 -0.0756 -0.0471
23849W        W37263   7.356  12.724   3.669  0.3431  0.4312 -0.1432
23850W        W37264   7.652   6.685  14.577 -0.2458  0.3552  0.2040
23851W        W37265   3.955   7.469  16.484 -0.0676 -0.3698  0.2169
23852W        W37266   3.421   6.336   1.014  0.1504 -0.0512 -0.0748
23853W        W37267   1.474  15.510  11.059 -0.0165 -0.0995 -0.1321
23854W        W37268   6.435   5.367  10.771 -0.0050  0.2159 -0.2220
23855W        W37269  11.428  14.657  12.633 -0.0870 -0.1052  0.1326
23856W        W37270  12.532   9.623   3.312  0.2237 -0.0919 -0.0484
23857W        W37271   3.581  12.237  12.453  0.2111 -0.1451 -0.3689
23858W        W37272   3.564   3.103   3.236  0.2669 -0.2411  0.1861
23859W        W37273   3.572  14.841  14.009  0.4186 -0.0473 -0.1654
23860W        W37274  16.261   2.511  16.076 -0.3953  0.1519 -0.0648
23861W        W37275   8.458  10.710   2.043 -0.2487 -0.1601  0.1956
23862W        W37276   1.293   1.449   4.388  0.2847 -0.2227 -0.2619
23863W        W37277  16.271  13.358   5.179 -0.0155 -0.1334  0.0490
23864W        W37278  17.793   9.408   5.387 -0.2705  0.3044 -0.2984
23865W        W37279  12.058  12.990  11.939  0.2199 -0.1016  0.2311
23866W        W37280  14.409  16.621  14.305 -0.3220 -0.2299 -0.0686
23867W        W37281   8.050  17.932   1.217  0.3583  0.1665  0.0675
23868W        W37282   3.589   2.424   4.065 -0.0460  0.0136  0.1611
23869W        W37283   8.561  14.127  11.836  0.0260 -0.0718  0.3269
23870W        W37284  15.139   1.407   3.316  0.0538 -0.2371  0.1618
23871W        W37285  17.258  14.995  11.068 -0.1330 -0.2445  0.2853
23872W        W37286   7.587   5.580  14.696 -0.0074 -0.0456 -0.0678
23873W        W37287   6.841   9.425  11.383 -0.1302 -0.0319 -0.0691
23874W        W37288   0.276  16.878   5.137  0.1786 -0.0496  0.4030
23875W        W37289   1.199   9.187   4.239 -0.5573  0.3187 -0.2557
23876W        W37290  17.797   3.583   4.681 -0.1141 -0.1163  0.2693
23877W        W37291  14.505   3.803   4.239 -0.1406 -0.0399  0.2008
23878W        W37292   8.801   0.160   0.601 -0.1549  0.1232 -0.0829
23879W        W37293  14.816   6.327  16.281  0.0673  0.0376 -0.1214
23880W        W37294  16.848   9.056   3.023 -0.0192 -0.1771  0.2318
23881W        W37295   9.677  16.472   0.175 -0.0356 -0.1503  0.2078
23882W        W37296   1.567  15.606   2.807 -0.0930  0.3213 -0.2079
23883W        W37297   6.117   7.959   4.705  0.2993 -0.1541 -0.3342
23884W        W37298  13.692  13.985  14.389 -0.4127  0.0584 -0.0592
23885W        W37299  14.749  14.861   5.242  0.1245 -0.3036  0.0562
23886W        W37300  10.866   8.505   1.033 -0.0061 -0.0207  0.0213
23887W        W37301   8.303  10.742   1.018  0.1127 -0.2718 -0.1317
23888W        W37302   6.480  17.521  14.516  0.2619  0.2128  0.0041
23889W        W37303  12.424  10.624   6.063  0.2094  0.4829 -0.0087
23890W        W37304   9.852   2.802  15.364 -0.1207 -0.0793  0.0096
23891W        W37305   5.133  12.588  11.985  0.2120  0.2094 -0.1004
23892W        W37306   9.487  15.161   0.560  0.1345 -0.0586 -0.4031
23893W        W37307  14.977   2.347  14.406  0.2511  0.0333 -0.0806
23894W        W37308   6.607  13.313  15.921  0.0700  0.3569 -0.0041
23895W        W37309  17.420  11.793  16.094  0.2656  0.3849  0.0312
23896W        W37310   6.663  16.022  15.418  0.1109  0.3361  0.1159
23897W        W37311  10.540   3.867   0.340  0.0750  0.1413  0.0345
23898W        W37312   6.460  15.960   1.070  0.1392  0.3692  0.0736
23899W        W37313   3.637   6.130  12.877 -0.1941 -0.0350 -0.2137
23900W        W37314   2.896  15.107  15.743 -0.1558  0.0784  0.3238
23901W        W37315  16.023   1.590  14.930 -0.1856 -0.0778  0.1224
23902W        W37316   5.616   0.532  14.588 -0.2473 -0.0682 -0.1231
23903W        W37317  13.427   5.731  15.895 -0.0508  0.1938  0.0049
23904W        W37318   1.989   3.208  11.381  0.2550 -0.0730 -0.2319
23905W        W37319   1.015  17.821  13.732  0.0929  0.0224  0.1196
23906W        W37320   8.989  15.711  15.612  0.1462  0.0438 -0.0586
23907W        W37321  12.782   0.866   9.822 -0.0826  0.2081 -0.0722
23908W        W37322  12.492  12.293   1.345 -0.0046 -0.0766  0.2143
23909W        W37323   2.176  16.167   3.493  0.3222  0.2502  0.1989
23910W        W37324   7.351   0.334   4.952  0.2097 -0.2754 -0.1682
23911W        W37325   4.596   2.264   6.156 -0.2242 -0.4599  0.0005
23912W        W37326   6.968  15.658   3.503  0.3592 -0.1890  0.1430
23913W        W37327   3.073   1.166   1.008  0.2264 -0.1339 -0.2451
23914W        W37328  10.179  13.417  11.836  0.0890 -0.0984 -0.0171
23915W        W37329  13.668  17.080  13.775 -0.1561 -0.1421 -0.1705
23916W        W37330   0.100   2.963  16.053 -0.1298  0.1915 -0.0874
23917W        W37331   6.333   8.565  12.273  0.3668 -0.0037  0.4064
23918W        W37332   1.358   9.640   4.321  0.1605 -0.2296  0.0235
23919W        W37333   4.274  17.559   4.132  0.3197 -0.1116  0.0862
23920W        W37334   5.465   3.256   1.506  0.0447 -0.1733 -0.1608
23921W        W37335  13.291   8.093  13.150  0.0755 -0.0724  0.0500
23922W        W37336   3.125   0.089  13.218  0.0194  0.0034 -0.2274
23923W        W37337  14.956  13.759  11.133 -0.0328  0.1641 -0.0648
23924W        W37338   0.813  15.175   0.223 -0.3196  0.2038  0.0912
23925W        W37339  16.557   9.233  13.809 -0.0587 -0.0285  0.0568
23926W        W37340  11.926   5.282  15.069  0.1014 -0.1866 -0.0621
23927W        W37341   3.483   6.674  12.275 -0.0432 -0.5493  0.0806
23928W        W37342   0.403   2.025  10.644  0.3788  0.0439 -0.1785
23929W        W37343  18.060   7.186  15.615  0.0477  0.1984 -0.0911
23930W        W37344  12.477   7.147  14.324 -0.0669 -0.0439 -0.1538
23931W        W37345   5.538   3.229  12.260 -0.2077  0.0551  0.1446
23932W        W37346   8.732   9.580   0.826 -0.0838  0.2678 -0.1711
23933W        W37347   2.234  13.249   0.762 -0.1736  0.0468 -0.0366
23934W        W37348   8.635   5.653   3.363 -0.0582 -0.0532 -0.4714
23935W        W37349  12.084  11.176  14.661 -0.1055 -0.1900  0.0069
23936W        W37350   7.697   4.220  11.410  0.1127  0.0402 -0.2649
23937W        W37351   2.387   1.767  10.625 -0.0251 -0.2863 -0.0166
23938W        W37352   9.675   6.476   4.702 -0.3397 -0.2341  0.0266
23939W        W37353  12.525   3.654   9.844  0.0372  0.0600  0.3617
23940W        W37354  13.891  16.521  15.901  0.0434 -0.0951  0.0980
23941W        W37355  17.937  16.790  10.930 -0.1179 -0.3305  0.2970
23942W        W37356  14.435   9.824   2.416  0.1872  0.2349 -0.0748
23943W        W37357  16.420  17.812  16.436 -0.1900  0.1838 -0.0011
23944W        W37358   8.940  17.770  16.505  0.1695  0.5674  0.2007
23945W        W37359   4.066  12.928  12.587 -0.0342  0.0466  0.1202
23946W        W37360  12.889  11.582   3.989  0.1796 -0.0958 -0.1795
23947W        W37361   8.058   4.693  14.983 -0.0569 -0.0739 -0.1671
23948W        W37362  14.536  11.084   1.863 -0.2419  0.1198  0.1046
23949W        W37363  13.090  14.689   3.123 -0.1184 -0.3792  0.0008
23950W        W37364   5.556   7.642   4.122  0.0060  0.0505 -0.0116
23951W        W37365  12.761   4.153   4.800 -0.1574 -0.0548 -0.0720
23952W        W37366  11.500  17.795   4.616 -0.1359 -0.0626  0.1393
23953W        W37367  11.256  15.615   2.821  0.0586 -0.0578  0.2637
23954W        W37368   7.892   1.684  13.436 -0.0766 -0.3257  0.3755
23955W        W37369  16.801  17.409   5.092  0.1812  0.0312  0.0637
23956W        W37370   5.620   8.081   3.689 -0.1228 -0.3054 -0.0343
23957W        W37371  16.890   8.776   5.622 -0.1750 -0.0236 -0.2447
23958W        W37372   2.045   9.424  16.195 -0.0984  0.1070  0.0288
23959W        W37373   5.042   2.707  13.519  0.1625  0.1378  0.1991
23960W        W37374   7.047   9.544   5.917 -0.1604  0.0780  0.2702
23961W        W37375   0.091   5.888   3.141 -0.2923 -0.3323  0.0351
23962W        W37376   9.483  11.140   4.640  0.0678 -0.2424  0.2750
23963W        W37377   0.929   1.907   3.135 -0.2363  0.1991  0.2261
23964W        W37378  11.885   6.453  14.564  0.1538 -0.1268 -0.0173
23965W        W37379   9.996  14.388  13.710  0.1131  0.0977  0.1274
23966W        W37380   0.351   6.354   5.408  0.1076 -0.1541 -0.1304
23967W        W37381  12.104  10.970   6.923 -0.2550 -0.0002  0.0904
23968W        W37382   4.444  16.490  12.380 -0.0464  0.1567  0.0007
23969W        W37383  16.877  16.966  11.486 -0.2050  0.2277 -0.0005
23970W        W37384   0.982  14.682   2.779 -0.3533 -0.0993  0.1130
23971W        W37385  12.754   3.638   2.723 -0.3864  0.1140 -0.2158
23972W        W37386  15.285  16.357  14.883 -0.1498 -0.0223  0.1950
23973W        W37387   8.824   1.641   3.426  0.0342 -0.0162 -0.0582
23974W        W37388   2.067   0.488   9.996 -0.0015 -0.2216  0.0004
23975W        W37389   9.990   6.767   5.255  0.1969  0.0456  0.0741
23976W        W37390   5.758  16.484  14.790 -0.3311  0.2583  0.1135
23977W        W37391  11.182  10.381   1.118 -0.0874  0.1525  0.3001
23978W        W37392   5.817  15.187   1.828 -0.0582  0.0955  0.1109
23979W        W37393   6.548   8.220   4.952 -0.2733  0.1855 -0.1623
23980W        W37394   2.954   9.763  11.771  0.3060  0.0090  0.0436
23981W        W37395  10.560   1.816  15.707  0.1677 -0.0807  0.2460
23982W        W37396  14.113  16.960  12.975  0.4804 -0.0054  0.2684
23983W        W37397   2.433  16.228   4.184  0.1196 -0.2687 -0.3455
23984W        W37398  15.463  13.133   6.273 -0.2066 -0.1190  0.0556
23985W        W37399  10.859  14.966  15.494  0.0367 -0.0921  0.1980
23986W        W37400  12.994  11.904  15.516  0.3057 -0.1936  0.0573
23987W        W37401   8.962   1.823   2.848  0.3935  0.0096  0.1813
23988W        W37402   5.914   6.861  14.347  0.3151  0.1824 -0.1696
23989W        W37403  15.800   1.766   0.366  0.1594 -0.1558 -0.0994
23990W        W37404  11.350  16.599  16.103 -0.0209 -0.2293  0.0023
23991W        W37405  17.235  15.868  14.000  0.0043  0.3372 -0.2030
23992W        W37406   3.286   0.820   3.366 -0.0314  0.0138 -0.1474
23993W        W37407  10.995   2.152   5.196  0.3109  0.0748 -0.0058
23994W        W37408  10.538  14.417  12.021 -0.1998 -0.1404  0.0426
23995W        W37409  12.276   0.641  14.861 -0.0746 -0.1330 -0.0815
23996W        W37410   9.249   0.803  14.882  0.2247  0.1364 -0.0274
23997W        W37411  14.424  14.805  15.248 -0.1183 -0.1156 -0.0634
23998W        W37412   2.940  13.324  13.771 -0.1352 -0.1253 -0.2915
23999W        W37413  16.158   2.375   1.004  0.0361 -0.0813 -0.2304
24000W        W37414   0.586  11.020  15.660  0.0942  0.0473 -0.0427
24001W        W37415   5.879   8.139  13.239 -0.2328 -0.0216  0.1230
24002W        W37416  12.635   1.598   5.098  0.0092 -0.0620 -0.2496
24003W        W37417   5.746   4.553   4.020  0.2630 -0.0664  0.4126
24004W        W37418   2.217  11.206   2.157 -0.1852  0.1119  0.1063
24005W        W37419   0.560  13.952  11.956  0.0340  0.1076 -0.3726
24006W        W37420   7.672  11.487   2.935 -0.1259  0.1357 -0.1315
24007W        W37421   6.338   0.875   2.209 -0.0472  0.1840 -0.2892
24008W        W37422   7.035  12.734   5.253  0.1369  0.3135  0.0818
24009W        W37423   4.543  17.798  12.365  0.1310  0.0586  0.0707
24010W        W37424  15.488  13.808  14.509 -0.2378  0.1354  0.0084
24011W        W37425   9.818  17.563  11.484 -0.0161 -0.0530 -0.1139
24012W        W37426  15.887  15.255   0.495 -0.0919 -0.0190  0.1005
24013W        W37427   9.797   2.255   0.668 -0.0084 -0.0974 -0.0159
24014W        W37428  16.310  14.790  12.075 -0.2830 -0.0748 -0.3147
24015W        W37429  13.892   6.492   6.552  0.1070  0.1540 -0.1922
24016W        W37430   3.941   5.486   1.019 -0.1117 -0.2595  0.0407
24017W        W37431   6.483   3.507  15.889  0.0575  0.1250  0.1166
24018W        W37432   8.440   1.560   0.539 -0.1493 -0.1761  0.1730
24019W        W37433   1.299  11.485   3.248 -0.3822 -0.0314 -0.0799
24020W        W37434   2.132   7.249  12.446  0.1910 -0.1708 -0.1399
24021W        W37435   1.971  17.736  12.407  0.3076 -0.0765  0.1881
24022W        W37436   0.542  13.672   2.692  0.3733  0.0224 -0.0639
24023W        W37437   9.536   5.511  13.599 -0.0047  0.0253 -0.0915
24024W        W37438   0.541   0.268  13.257 -0.0705 -0.0800 -0.1353
24025W        W37439  11.155  11.827  13.418  0.3366  0.1677 -0.1080
24026W        W37440   2.117  14.553   0.825 -0.1159 -0.0162  0.0821
24027W        W37441  16.170   7.226   0.610 -0.0398  0.0789 -0.0811
24028W        W37442  12.762  16.260  13.638 -0.0784  0.0875 -0.0771
24029W        W37443   1.398  14.918   4.906  0.1073  0.2341 -0.0295
24030W        W37444  16.489  14.121  12.430  0.0784 -0.0198  0.0795
24031W        W37445   9.649   2.713   0.465  0.1087  0.0203 -0.0840
24032W        W37446  15.194  10.562  13.603  0.0980 -0.2636  0.0274
24033W        W37447  17.673  16.595   0.710  0.0501  0.0989 -0.0308
24034W        W37448  17.775   2.537   3.866 -0.0702  0.1618  0.0856
24035W        W37449   9.749   4.635  16.397 -0.0905 -0.0548  0.1358
24036W        W37450   3.257   7.793  15.345  0.3513 -0.2635 -0.0474
24037W        W37451   3.623  11.430   1.258  0.1357 -0.1103 -0.1898
24038W        W37452   9.304  15.889  12.601 -0.3147 -0.1339  0.2217
24039W        W37453   1.790  14.828  11.708  0.5177 -0.1455  0.0742
24040W        W37454  13.584   4.992  13.464  0.1885  0.2334  0.1464
24041W        W37455   4.665   7.391   1.013 -0.1739  0.1699  0.4861
24042W        W37456   3.112   3.988   2.378  0.1686  0.1703  0.0790
24043W        W37457  17.009  18.002   1.174 -0.0333  0.3586  0.1383
24044W        W37458   0.833   5.268  15.856 -0.0711 -0.1813 -0.3478
24045W        W37459   2.972   3.805   0.920  0.1703  0.0744 -0.2709
24046W        W37460  15.062  12.214   3.408  0.1263 -0.3777 -0.0698
24047W        W37461   1.900  17.892  11.526 -0.1478 -0.0917 -0.3803
24048W        W37462   3.476   0.655  11.625  0.2340 -0.1171  0.1159
24049W        W37463   2.356   9.740  15.129 -0.1546 -0.0388  0.2461
24050W        W37464   0.113   1.797  10.242  0.0369  0.2005  0.0138
24051W        W37465   9.562   7.573   6.119  0.0661 -0.0168  0.1053
24052W        W37466  17.529  16.188  12.473 -0.1635  0.0172 -0.2455
24053W        W37467   2.322   6.354  12.690 -0.2286  0.0839 -0.0954
24054W        W37468  11.083   7.187   5.065  0.0149  0.0933 -0.0895
24055W        W37469  12.614   6.815   3.738 -0.3653  0.1414  0.1872
24056W        W37470   9.696  15.236   0.080 -0.1649  0.0157 -0.0991
24057W        W37471  15.808   5.629   3.131  0.2517 -0.0279 -0.0311
24058W        W37472   4.048  15.861   3.042 -0.1780  0.2147 -0.2298
24059W        W37473  10.543  14.760  10.908  0.2596  0.0331 -0.1068
24060W        W37474  17.152   2.000   2.756  0.0130  0.0894 -0.0125
24061W        W37475  10.211  11.099  13.115 -0.0425  0.2346 -0.0778
24062W        W37476   2.187   2.328  15.267 -0.0528 -0.1463 -0.0297
24063W        W37477  16.773   7.127  14.249  0.2327  0.2600  0.1200
24064W        W37478   8.382  15.927   4.914 -0.0356  0.1863  0.0570
24065W        W37479   9.193   7.679  12.910  0.2432 -0.0117  0.2050
24066W        W37480   5.278  12.069   2.076  0.2611 -0.0106  0.0018
24067W        W37481  11.175   1.138  10.320  0.0958 -0.0383 -0.0913
24068W        W37482   3.286  12.319  11.356  0.0555 -0.1392 -0.0863
24069W        W37483   4.671   6.161  14.996 -0.1786  0.4556  0.0955
24070W        W37484  14.711  16.429  15.550  0.0682 -0.0043  0.1231
24071W        W37485   5.304   0.679  14.253  0.1923 -0.1049 -0.0473
24072W        W37486  11.765  17.941   4.187 -0.1080  0.0646  0.0002
24073W        W37487   2.255   7.862  16.341 -0.0008  0.1011  0.0405
24074W        W37488  10.371  16.517  10.100  0.1040  0.0425 -0.2274
24075W        W37489   2.851  14.533  15.385  0.2926  0.0373 -0.0690
24076W        W37490  12.411  18.052  11.590 -0.1874  0.2861 -0.1173
24077W        W37491   9.065   6.805   6.831  0.0171 -0.0482 -0.0875
24078W        W37492   6.570   0.520  10.699  0.0542  0.1761  0.2396
24079W        W37493  10.670   9.345   2.932 -0.0487  0.1245 -0.0909
24080W        W37494  15.178  18.087  10.983  0.1042  0.2353 -0.0407
24081W        W37495  15.869  11.541  16.455  0.2300  0.0952  0.1054
24082W        W37496   8.325   4.584   3.121  0.1214 -0.1443  0.4104
24083W        W37497  10.399   5.446   1.778  0.0897  0.0608  0.0671
24084W        W37498  16.419   5.413  16.119  0.0402 -0.2239 -0.2073
24085W        W37499   2.413  14.851   6.103  0.1522  0.1337  0.0382
24086W        W37500   8.695   6.824   2.495 -0.0826  0.1780 -0.3624
24087W        W37501  15.009   8.569  14.503 -0.1355 -0.3571 -0.0292
24088W        W37502   1.814   8.277  15.318  0.1202 -0.0702  0.2540
24089W        W37503   4.161  14.708  10.827  0.1408 -0.0072 -0.1072
24090W        W37504   6.259   6.156   1.200  0.1954  0.0345 -0.0859
24091W        W37505  15.395  11.930  13.652  0.0975 -0.0590  0.1270
24092W        W37506  11.575   1.985   2.772 -0.1111 -0.0062 -0.1542
24093W        W37507   5.511  15.059  16.198 -0.1049  0.1880  0.0315
24094W        W37508  14.673  17.063  16.108 -0.2915  0.1863 -0.0358
24095W        W37509   4.681   2.414  13.725 -0.2239  0.0730  0.2699
24096W        W37510  17.987  15.477  11.166 -0.1874  0.2590 -0.0141
24097W        W37511  11.298  12.835  12.659 -0.1872 -0.0340  0.2067
24098W        W37512  16.049  15.766   2.486 -0.2923  0.3260  0.0003
24099W        W37513   4.603  11.717   4.848 -0.2135 -0.2032  0.0561
24100W        W37514   5.427   0.061  13.485  0.0784 -0.1552  0.0588
24101W        W37515   0.636  17.084  11.966  0.0365 -0.3063  0.1191
24102W        W37516  13.379   9.663  13.378  0.0238  0.0102 -0.0837
24103W        W37517  11.451   7.186  10.742 -0.0494 -0.1218  0.3741
24104W        W37518  16.882  17.002  12.749 -0.0699  0.2718  0.0850
24105W        W37519  11.691  15.364   2.226  0.1224  0.3041  0.1127
24106W        W37520  17.958  12.842   6.894  0.1173 -0.1540 -0.0607
24107W        W37521  15.342  10.176  11.835 -0.2009  0.0904 -0.1100
24108W        W37522   9.981  13.674   0.236  0.0592 -0.0930  0.1476
24109W        W37523   2.627  10.530   2.163  0.1713 -0.3287  0.2547
24110W        W37524   6.373   7.506  11.307  0.0299 -0.0907  0.1054
24111W        W37525   6.738   5.331  11.188 -0.1549  0.0173 -0.2516
24112W        W37526   1.644   0.289   0.778 -0.0652 -0.1948 -0.3632
24113W        W37527  10.312   6.021  13.442  0.1073 -0.0340  0.0286
24114W        W37528  17.824  14.232  11.961  0.2527  0.1813 -0.1141
24115W        W37529  12.396  13.838   4.219 -0.0218 -0.1239 -0.2412
24116W        W37530   9.790  10.196   5.949 -0.1887  0.1251 -0.0595
24117W        W37531   6.626   9.580   4.715  0.1739 -0.1318 -0.0857
24118W        W37532  17.786   6.566   5.498  0.0820  0.3014  0.0929
24119W        W37533  15.628   8.358   3.379 -0.2864 -0.3301 -0.2704
24120W        W37534  18.177   6.170   3.592 -0.4071 -0.2527 -0.3366
24121W        W37535   0.565  10.536   5.183 -0.0837  0.1875 -0.0493
24122W        W37536   3.663   6.815  10.828 -0.1331 -0.1689  0.0246
24123W        W37537   6.793   9.335  14.069 -0.0904  0.1221 -0.1592
24124W        W37538  12.735   1.563   3.271 -0.0685 -0.0088  0.1274
24125W        W37539   1.873   8.754  13.287  0.2065 -0.2630  0.0729
24126W        W37540   3.330   3.448  14.333  0.2069  0.1320  0.0351
24127W        W37541  12.575  17.864  16.127 -0.2209  0.1485 -0.2080
24128W        W37542   4.945  17.141   0.761 -0.1656  0.0249  0.2583
24129W        W37543   1.227  12.380  11.793 -0.0597 -0.1934 -0.0601
24130W        W37544  10.041   8.745   3.455  0.1568  0.0577  0.1194
24131W        W37545   1.171  10.470  12.951 -0.2162  0.1035  0.4048
24132W        W37546   0.220  16.402  12.132  0.2073  0.1987 -0.0491
24133W        W37547   7.283   0.092   9.968 -0.3069 -0.0532  0.1573
24134W        W37548  10.072  14.538   4.395  0.0683  0.2533  0.0297
24135W        W37549  11.471  11.335   3.187  0.4080 -0.1014 -0.2010
24136W        W37550   4.196  16.911   4.781  0.0742 -0.0464 -0.2093
24137W        W37551   3.595   7.399   3.443  0.1270  0.0869  0.3310
24138W        W37552  17.983   1.292   6.175  0.0317  0.0137  0.1120
24139W        W37553  12.002  15.119  12.497 -0.0366 -0.0415 -0.0344
24140W        W37554  15.956  12.665  13.947  0.0656 -0.1088  0.1016
24141W        W37555  10.096  17.186   4.658 -0.1234  0.0934  0.0134
24142W        W37556  12.922  11.883  11.782 -0.1290 -0.0230  0.0770
24143W        W37557  15.337   7.993  14.283 -0.1214  0.0914 -0.1761
24144W        W37558   2.598   6.323  14.661  0.0429 -0.0986 -0.1173
24145W        W37559   3.093  17.153  11.216 -0.1445 -0.0952 -0.1439
24146W        W37560  12.960   1.677  13.357  0.1051 -0.0366 -0.0289
24147W        W37561  17.221  10.716   3.500  0.0619  0.0712 -0.0346
24148W        W37562   9.478  17.832   0.544  0.1837 -0.1217 -0.1934
24149W        W37563   6.189   5.655  16.502 -0.3824  0.1503 -0.1238
24150W        W37564  15.578  12.244   4.781 -0.0615 -0.0952 -0.0726
24151W        W37565   5.353   3.500   2.517 -0.0643  0.0614 -0.3143
24152W        W37566   1.389   8.603  14.567 -0.1257 -0.0588 -0.1183
24153W        W37567   5.806  14.325   4.125  0.1747  0.0626 -0.2065
24154W        W37568  12.929   0.499   0.624  0.2906 -0.3027  0.0276
24155W        W37569  18.181  16.648   1.568 -0.2245  0.1086  0.0579
24156W        W37570   7.616  14.898   1.908  0.0111  0.1575  0.0977
24157W        W37571   3.084  11.758  13.235 -0.3769 -0.0251 -0.0376
24158W        W37572   6.491   3.682   4.605  0.1506  0.0232  0.1646
24159W        W37573   0.640   1.477  10.739  0.0000 -0.0297 -0.0701
24160W        W37574   2.279  13.645  15.890 -0.0907  0.0618 -0.0989
24161W        W37575  14.347  13.260  15.123  0.0976  0.1947 -0.3929
24162W        W37576   0.224   4.618  12.885  0.2145 -0.2980 -0.0846
24163W        W37577   2.749  15.900   5.953 -0.0118  0.2393 -0.1309
24164W        W37578   3.372   7.200  11.274 -0.2882 -0.0223 -0.2981
24165W        W37579   9.096   0.480  14.487 -0.1682  0.0368 -0.0550
24166W        W37580  16.485  12.078   4.592  0.0616 -0.2998 -0.2070
24167W        W37581   3.777  10.120  10.359 -0.3068  0.1374  0.2539
24168W        W37582   1.531  17.560  11.612 -0.0562  0.4052  0.0411
24169W        W37583   0.140   1.571   2.242  0.0225 -0.2318  0.0107
24170W        W37584  14.110  12.488   4.136 -0.1660  0.1181  0.2517
24171W        W37585   8.404   7.819   0.778 -0.2424  0.1037  0.1244
24172W        W37586  11.387   9.128  12.817 -0.1826  0.1563 -0.3795
24173W        W37587   9.984   6.120   2.905  0.0755  0.1059 -0.0552
24174W        W37588   0.076  11.314  14.253  0.2746  0.1358 -0.2367
24175W        W37589   6.386   4.485  15.780 -0.2924 -0.0522  0.0391
24176W        W37590   7.802  10.224  13.422 -0.0421  0.0956  0.0729
24177W        W37591   4.657   1.974   3.577 -0.0145  0.0308  0.3819
24178W        W37592   6.158   7.271   0.055 -0.2056 -0.0771 -0.1093
24179W        W37593  11.363   4.509   3.397  0.2056  0.0857  0.2021
24180W        W37594  11.096  14.078   3.742  0.2890  0.1078 -0.0953
24181W        W37595   1.059  14.585  14.183  0.2313 -0.0559  0.1409
24182W        W37596  14.610  15.556  14.644  0.0491  0.1835 -0.1783
24183W        W37597  18.047   5.473  15.724  0.0355  0.1183  0.1608
24184W        W37598  11.858  17.687   1.272  0.0834 -0.2483  0.2826
24185W        W37599  13.024   9.095  15.495 -0.0270  0.1649 -0.0191
24186W        W37600  12.896  12.591   3.981  0.1578  0.0562 -0.0574
24187W        W37601   7.559  16.492  10.659 -0.2400 -0.0207 -0.1094
24188W        W37602   1.369   6.241   6.165  0.1476 -0.1180  0.0413
24189W        W37603  15.634   8.792   5.385 -0.0639  0.0170 -0.1117
24190W        W37604   8.763   4.028  14.369  0.0971 -0.1376  0.0771
24191W        W37605   7.537   1.282   9.599 -0.0465  0.2533  0.0895
24192W        W37606   2.640  13.262   0.128 -0.0763 -0.0610  0.0865
24193W        W37607  16.789  16.468  16.514 -0.1050  0.3780 -0.1288
24194W        W37608   3.508   6.816   0.082  0.0481  0.1032 -0.2771
24195W        W37609   1.464  14.387  15.337  0.0337  0.4444  0.4178
24196W        W37610   8.043   1.723  15.401 -0.0074  0.0325  0.2323
24197W        W37611  13.716   7.052   2.545 -0.0336  0.2303  0.0407
24198W        W37612   1.630   4.749   5.051 -0.2415  0.2813 -0.0408
24199W        W37613   9.072  14.332  13.568 -0.0028  0.0107 -0.0939
24200W        W37614  17.073   0.940   3.515 -0.0385  0.1843 -0.2749
24201W        W37615   6.132  12.586   2.018  0.2349  0.0699  0.1426
24202W        W37616   3.486   1.239  15.208 -0.1857 -0.1587  0.1046
24203W        W37617   6.704  17.906   1.674 -0.2142 -0.0845 -0.2650
24204W        W37618   9.522  14.470  15.507  0.1195  0.1628 -0.1450
24205W        W37619   4.538  15.178   0.133  0.1172 -0.1190 -0.2103
24206W        W37620  15.181   6.607  15.951  0.0839 -0.2338 -0.1303
24207W        W37621  12.916   9.905  16.447  0.1608  0.4535 -0.1186
24208W        W37622   4.618   0.829  12.061  0.2887  0.0419  0.0346
24209W        W37623  12.574  10.215   0.329  0.2686  0.0522  0.1661
24210W        W37624   4.728   1.266   5.722 -0.1532  0.1940 -0.1805
24211W        W37625  16.748   8.787  11.510  0.0968 -0.0988  0.0808
24212W        W37626   9.928   3.504   3.145 -0.2025 -0.0455 -0.2184
24213W        W37627  13.080  14.694   1.476  0.1026  0.4014  0.3091
24214W        W37628   4.631   9.480   5.073  0.0411 -0.0212  0.1890
24215W        W37629  11.246   7.845  14.632  0.1077 -0.0668  0.0447
24216W        W37630   0.136   8.673  11.109 -0.1943 -0.2726 -0.0929
24217W        W37631   1.776   0.483  13.025 -0.3884  0.2103  0.3809
24218W        W37632  11.434   1.057  14.262  0.2748 -0.0614  0.0036
24219W        W37633  12.799  13.376  10.939 -0.1179  0.2353  0.3225
24220W        W37634  13.696   7.636  14.915  0.2720 -0.2996  0.2143
24221W        W37635   0.944  17.132  10.932  0.3226 -0.4385 -0.1904
24222W        W37636  14.748   3.706  13.367 -0.1867 -0.1997  0.2247
24223W        W37637   7.321   4.480   0.709  0.1215 -0.0181  0.1159
24224W        W37638   9.382   7.298  16.338  0.1396  0.1897  0.3297
24225W        W37639  13.756  10.893   5.583 -0.0923 -0.2110 -0.1590
24226W        W37640  13.752   5.147   4.542  0.0325 -0.0039 -0.1310
24227W        W37641   3.170  13.096  12.827 -0.0859 -0.2664 -0.4570
24228W        W37642   8.365  14.746   6.309 -0.1707 -0.3473 -0.0845
24229W        W37643  16.502  15.785  10.801  0.0413 -0.3577 -0.2274
24230W        W37644  17.095  14.508  13.285  0.1996  0.3122 -0.1131
24231W        W37645   7.011  13.763   1.155 -0.0599  0.1448 -0.2419
24232W        W37646  12.283   2.638  14.559  0.0961 -0.0145 -0.1524
24233W        W37647  17.452   1.925   1.761  0.1975 -0.1209 -0.0692
24234W        W37648  16.105   3.765   0.626  0.4144  0.1704  0.3187
24235W        W37649  17.834  16.880  11.769  0.0165  0.2584  0.2072
24236W        W37650  17.072   1.959  11.304  0.0423  0.0944 -0.0239
24237W        W37651  17.852   3.861  16.355 -0.2604  0.0991  0.0971
24238W        W37652   0.038   4.387   1.217  0.1970  0.0331  0.1435
24239W        W37653   1.703   3.137   0.289  0.2818 -0.0642 -0.2542
24240W        W37654   2.858  13.492  10.839 -0.0557  0.0562  0.1697
24241W        W37655  15.720   3.942  10.720  0.1356  0.3316 -0.0178
24242W        W37656   7.626   8.856   0.785  0.3945  0.0199 -0.1266
24243W        W37657   6.926  12.902   0.544 -0.3049 -0.2122  0.3682
24244W        W37658   1.486  10.321  11.880  0.1089  0.0909  0.0864
24245W        W37659  17.654   1.378   2.378 -0.1250  0.3420  0.2968
24246W        W37660   0.878  10.126  12.713  0.2366 -0.0005 -0.3750
24247W        W37661   2.052   3.876  11.961 -0.1336 -0.0002 -0.1369
24248W        W37662   6.389   2.981  10.916  0.1630  0.0584 -0.0853
24249W        W37663  12.882  11.556   5.326  0.1641  0.3853  0.0071
24250W        W37664   0.264  15.748  16.193 -0.2964  0.2704  0.2061
24251W        W37665   8.849  14.605   3.421  0.2911 -0.1521 -0.0921
24252W        W37666   9.722   8.019  14.693  0.2853 -0.1595 -0.2143
24253W        W37667  11.923   9.931  13.034  0.3087 -0.0751  0.1653
24254W        W37668   6.127  14.232   5.047  0.0528  0.0649  0.2381
24255W        W37669   0.513   1.538   5.495  0.0884 -0.3362  0.0563
24256W        W37670  13.177  16.659  10.549  0.1970  0.0270  0.0284
24257W        W37671  16.861  17.181  14.978 -0.0258 -0.4963  0.2485
24258W        W37672   5.967  16.308  12.461 -0.0607  0.2773 -0.1617
24259W        W37673  12.785   4.705   3.079 -0.0312  0.0645  0.2117
24260W        W37674   9.367   3.598  14.204  0.0046  0.1223 -0.1165
24261W        W37675  13.338  12.405   4.777  0.1511 -0.2766  0.2879
24262W        W37676   3.551   3.327  15.261  0.2300  0.1449 -0.0156
24263W        W37677   8.148   0.886  11.106 -0.0081  0.0440  0.1247
24264W        W37678  12.358   1.637   1.198  0.1543 -0.0721  0.2121
24265W        W37679   7.005   2.359   2.827  0.2839 -0.0142  0.1533
24266W        W37680   0.387  12.510  14.728  0.0106 -0.1295 -0.0552
24267W        W37681   3.401   1.154  14.642 -0.1557 -0.1277 -0.1944
24268W        W37682  18.170  11.888  15.972  0.3131 -0.1337 -0.0669
24269W        W37683   7.009  14.681  12.028  0.1033  0.0765  0.1020
24270W        W37684  16.173  18.210   0.885  0.1183  0.4399  0.2457
24271W        W37685  10.505  14.753   3.027  0.2264  0.1348 -0.0494
24272W        W37686   5.183  16.524  13.847 -0.2255 -0.0949 -0.2389
24273W        W37687   0.151   3.139  11.817  0.1038  0.2751  0.1179
24274W        W37688  11.875  10.392   0.638  0.0579  0.1028  0.4045
24275W        W37689  12.775   4.105   2.277  0.0071  0.1299 -0.2133
24276W        W37690   2.227   2.867   5.051  0.3031 -0.1171  0.0593
24277W        W37691  10.667   8.246  10.699 -0.1274 -0.2748  0.0999
24278W        W37692   5.350  17.217   5.227  0.0821  0.0114  0.2206
24279W        W37693  13.645  17.865   3.375 -0.0190  0.1167  0.0739
24280W        W37694  14.167   7.262   2.573 -0.0346  0.1602 -0.2755
24281W        W37695  17.405   1.698   3.151 -0.0914  0.2076  0.1028
24282W        W37696   1.260   1.581  14.847 -0.1790  0.1744  0.0463
24283W        W37697  12.878   6.469  14.704 -0.3436  0.0312  0.2504
24284W        W37698   9.984   4.675  12.100  0.0148  0.3028 -0.2028
24285W        W37699   6.917   8.007  12.962 -0.0389 -0.3329 -0.0266
24286W        W37700   8.714  12.294   5.612  0.3793 -0.0285  0.2490
24287W        W37701   1.038  16.097   1.762  0.1440  0.0050 -0.1050
24288W        W37702   6.865  13.374  15.436  0.1921 -0.0861  0.0303
24289W        W37703  11.293  16.139  12.978 -0.3684  0.1182 -0.0659
24290W        W37704  12.162  17.710  13.967  0.0162  0.0890  0.0150
24291W        W37705   1.528   3.867   6.057  0.2108  0.0308 -0.3136
24292W        W37706  12.445  11.254   4.302  0.0447 -0.1267 -0.2509
24293W        W37707  18.200   2.631  11.838 -0.0429  0.3137  0.0157
24294W        W37708   7.141   7.082  11.722  0.1326 -0.3050  0.5571
24295W        W37709  16.840  15.553   3.621 -0.0459 -0.0153  0.1210
24296W        W37710  14.836   9.529  15.023 -0.1862  0.3285  0.2406
24297W        W37711  11.821   0.374  11.510 -0.1245  0.1695 -0.2949
24298W        W37712   3.133  10.088   5.882 -0.2823 -0.0137 -0.0087
24299W        W37713  12.309   7.017   3.263 -0.0806 -0.0746 -0.0156
24300W        W37714   9.820   6.598  14.717  0.0804 -0.0170  0.0271
24301W        W37715  13.692  13.999   3.108 -0.2988  0.1132 -0.0846
24302W        W37716   4.854  10.905  11.265  0.2221  0.2777  0.1795
24303W        W37717   5.077   3.390  15.054  0.0562  0.1500  0.2606
24304W        W37718  10.803   8.693   4.307  0.1816 -0.2425  0.1115
24305W        W37719   2.473   5.653   0.878  0.2269  0.1724  0.1397
24306W        W37720   2.871  14.378   4.981  0.0441 -0.1905 -0.0804
24307W        W37721  10.359   6.096  12.415 -0.0194  0.0230  0.1239
24308W        W37722   6.175   4.042   0.927 -0.0938  0.1283 -0.0091
24309W        W37723   6.496  13.905   4.785  0.1172 -0.2589 -0.2349
24310W        W37724  15.839  13.830   4.530 -0.2164 -0.0301  0.1548
24311W        W37725  13.401  10.306  16.477  0.0476 -0.0492 -0.0786
24312W        W37726  14.561   0.341  15.591 -0.0291 -0.1709  0.1522
24313W        W37727   7.459   6.877   6.214 -0.1126  0.1099  0.0006
24314W        W37728   1.960  10.828  11.833 -0.2881 -0.1554 -0.0437
24315W        W37729   4.271   4.204   0.772 -0.0814 -0.2404  0.0194
24316W        W37730  12.895   7.281  15.778  0.0564 -0.2341  0.0391
24317W        W37731   9.678   1.655  14.679  0.0223  0.1185 -0.0581
24318W        W37732  13.581  16.814   5.561 -0.1895  0.4376 -0.1346
24319W        W37733  11.379   7.436   6.730 -0.0103  0.0925  0.1010
24320W        W37734  11.242   2.746  14.998 -0.0738  0.1393 -0.2830
24321W        W37735  14.036   7.851  15.669 -0.4070 -0.0903  0.0544
24322W        W37736   3.751  10.098   3.621 -0.0566  0.0719  0.0252
24323W        W37737  16.086  17.952   4.110  0.1687 -0.0108 -0.2479
24324W        W37738  13.192  12.423  11.054  0.1199 -0.2029  0.0574
24325W        W37739   3.426  17.939   5.292  0.1843  0.1846  0.1448
24326W        W37740  16.930   4.414   5.774  0.1625  0.1232  0.3229
24327W        W37741   5.038   0.944  15.789  0.3035  0.0537 -0.3088
24328W        W37742  14.964  13.802  16.150  0.0526 -0.2981  0.0606
24329W        W37743   3.895   5.855  15.078  0.1309 -0.3647  0.0072
24330W        W37744   7.828  16.705   2.424 -0.1835  0.2383 -0.2473
24331W        W37745   1.974  17.309  11.459  0.0782  0.0232 -0.0529
24332W        W37746   4.068  13.022   3.891  0.1317  0.1679 -0.0046
24333W        W37747   9.446  15.639  15.116  0.0830  0.0924 -0.2194
24334W        W37748  15.674   4.432  16.093 -0.1731  0.0466  0.0578
24335W        W37749   0.078   2.481   5.341 -0.0348  0.3408 -0.2695
24336W        W37750  14.633   6.398   2.564  0.3319 -0.3525  0.1211
24337W        W37751   6.070   3.080  16.364 -0.0611  0.1077  0.0633
24338W        W37752  15.694   1.370   5.868 -0.2609 -0.2346  0.1137
24339W        W37753   7.879   2.388   2.660  0.0474  0.0771 -0.0835
24340W        W37754  12.764   0.916  14.107  0.0850 -0.1831 -0.0016
24341W        W37755   8.879  10.974   4.856 -0.2548  0.2410 -0.0791
24342W        W37756  10.559  17.090  13.530 -0.2679  0.0879  0.2012
24343W        W37757  16.676  10.297   0.556 -0.2383 -0.0555 -0.0359
24344W        W37758   9.312  15.381  11.193  0.2231  0.0226 -0.2035
24345W        W37759   9.322  16.905   4.065 -0.1043 -0.0520  0.1213
24346W        W37760  12.143  14.648  14.909 -0.3633  0.1708 -0.1147
24347W        W37761   4.194   6.866  14.380  0.2206 -0.0065 -0.0705
24348W        W37762  11.423   2.873   1.014  0.0897  0.0336 -0.0531
24349W        W37763   3.563   7.586   1.358 -0.0250 -0.1673  0.3175
24350W        W37764   4.325   7.172  14.758  0.0274  0.0049  0.0536
24351W        W37765   0.060  17.692   0.978 -0.0051 -0.1469  0.0059
24352W        W37766   4.873  16.710  11.334 -0.2591  0.0588 -0.0940
24353W        W37767  12.185   3.479  16.420  0.2038  0.0981 -0.3684
24354W        W37768   6.083   1.241  15.045 -0.0150  0.0993  0.1326
24355W        W37769   6.561   7.092   2.586 -0.0317  0.1179 -0.1410
24356W        W37770   0.837   0.239  11.029 -0.3119  0.0552  0.1600
24357W        W37771   1.198  16.972  15.171 -0.0400 -0.0653  0.0868
24358W        W37772   0.136  11.712   0.883 -0.2157 -0.3518  0.0292
24359W        W37773   0.728  14.137   5.719  0.2022 -0.0858 -0.0291
24360W        W37774  10.984  12.463  13.864 -0.1987  0.2426 -0.1066
24361W        W37775  18.032  17.005  13.511  0.3276  0.1171 -0.1202
24362W        W37776   6.460  13.937  12.460 -0.0993 -0.5642  0.0841
24363W        W37777  16.838  11.351   6.880 -0.1571  0.0698  0.1064
24364W        W37778   2.380   0.819   4.142  0.4207 -0.2718 -0.1695
24365W        W37779  12.297  14.439  16.130  0.2995 -0.1698  0.1199
24366W        W37780   2.324   0.829  15.835 -0.2624  0.0746 -0.1301
24367W        W37781   3.141   1.762   3.394 -0.0970 -0.0929  0.1060
24368W        W37782  17.202   3.967  15.364 -0.2694 -0.3271  0.2305
24369W        W37783  18.075   0.026  11.053  0.4164  0.2383 -0.0722
24370W        W37784  16.127   1.932   0.785 -0.1232 -0.2543 -0.0607
24371W        W37785  13.743  17.595  13.704  0.0879 -0.2878 -0.1939
24372W        W37786  16.504  13.924   1.594  0.1197 -0.0818 -0.1781
24373W        W37787   6.822  14.264   2.978  0.1465 -0.2060  0.3005
24374W        W37788   0.063   7.017   5.946 -0.0393 -0.0881 -0.3024
24375W        W37789   6.624  15.223  15.106  0.0087  0.0507  0.0169
24376W        W37790  16.350   4.620   0.056  0.2462  0.0513 -0.0387
24377W        W37791   9.600  10.276  12.565 -0.2970  0.2502  0.2200
24378W        W37792   4.847  13.298  14.107 -0.0914  0.2009 -0.4401
24379W        W37793  16.098   7.917   3.355 -0.0498  0.1587  0.1051
24380W        W37794  17.117  11.517   0.497  0.2230  0.1067  0.2440
24381W        W37795   1.268  12.265  14.987 -0.0654  0.1392 -0.1625
24382W        W37796   2.853   3.647   2.142 -0.1258  0.0710  0.2155
24383W        W37797  11.850  11.278  13.822 -0.6144  0.0184  0.0032
24384W        W37798   1.546   4.168   1.713 -0.1759  0.3405 -0.2043
24385W        W37799  14.763  14.230   0.787  0.0567  0.0316  0.0349
24386W        W37800  11.008  11.463  13.793  0.0287 -0.3626  0.1754
24387W        W37801  11.148  10.578  13.916 -0.3234 -0.0258 -0.2686
24388W        W37802   8.379  10.695   6.087  0.0397 -0.3555 -0.1909
24389W        W37803   8.152   8.671  13.557  0.0586 -0.2846  0.1423
24390W        W37804  13.861  17.167  14.247  0.3532  0.2564  0.1536
24391W        W37805  17.510   1.639   1.195  0.0756  0.1245 -0.1044
24392W        W37806  17.089  17.652   3.765 -0.1847  0.0788  0.2076
24393W        W37807   4.205   5.978  10.713 -0.1430  0.1509  0.1500
24394W        W37808  14.012   5.885   3.859  0.3868 -0.1836 -0.3039
24395W        W37809   3.995  10.276  12.858 -0.2320  0.0887  0.1568
24396W        W37810  12.003  10.099  12.238 -0.1989  0.0768  0.0647
24397W        W37811  12.196  17.643   2.047  0.0480 -0.1922  0.2606
24398W        W37812   0.530  14.335   0.560 -0.1563  0.4596  0.0190
24399W        W37813  12.635  17.297   9.782  0.1568  0.0508  0.1199
24400W        W37814  15.846   7.719   4.164  0.2194 -0.3986  0.0150
24401W        W37815   6.918   1.867  10.788  0.2026  0.0336 -0.0425
24402W        W37816   4.071   9.145   2.627  0.0746 -0.1232 -0.3582
24403W        W37817   2.926   5.538  11.255  0.2910 -0.0643  0.0619
24404W        W37818  12.335  16.976   4.279 -0.2370 -0.1590 -0.1487
24405W        W37819   5.549   3.026   2.729 -0.3063 -0.1596 -0.1378
24406W        W37820  15.449   0.972   1.486  0.0911  0.0383 -0.0906
24407W        W37821  10.262  10.197   1.965 -0.0112  0.1460  0.2249
24408W        W37822  12.819   7.110   0.582 -0.1448  0.0987  0.0401
24409W        W37823   0.754  11.162   1.967  0.2756  0.1650 -0.1148
24410W        W37824   1.622   0.632   0.008 -0.2524  0.2261 -0.0114
24411W        W37825  15.262   7.353   5.552  0.0459 -0.1402  0.0194
24412W        W37826   0.802   2.830  16.487  0.0396  0.2136 -0.3487
24413W        W37827   7.680   0.678   4.331 -0.2937  0.1682  0.0757
24414W        W37828  16.553   3.026   3.748  0.0313  0.1680 -0.3843
24415W        W37829  12.457  12.966   1.698  0.0584  0.2923  0.0066
24416W        W37830   7.797   5.105  13.386 -0.0908 -0.0478 -0.3702
24417W        W37831   9.873  18.129  15.114  0.0406 -0.2297 -0.3191
24418W        W37832  17.669   9.519   4.810  0.1816 -0.4558 -0.3612
24419W        W37833   4.314   4.591  13.496 -0.0968 -0.0164 -0.0204
24420W        W37834   5.003  13.746  11.670  0.0408 -0.1392  0.2278
24421W        W37835  16.126   2.269   4.994 -0.2014  0.1556 -0.2600
24422W        W37836  16.858   3.337   5.656 -0.1106  0.1598 -0.0793
24423W        W37837  17.719   9.469   0.321  0.0826  0.2948  0.2171
24424W        W37838  11.826  14.363   2.264 -0.0807 -0.0376  0.1287
24425W        W37839  17.968  11.219  13.252 -0.0821 -0.3325 -0.2910
24426W        W37840   7.200   9.295  14.982 -0.2211 -0.0952 -0.0270
24427W        W37841   8.542   5.719  13.153  0.2109 -0.1282 -0.0263
24428W        W37842  13.685   8.792   1.183 -0.0847  0.0636  0.1054
24429W        W37843  18.197  14.471   2.554  0.1259  0.0008  0.0355
24430W        W37844  12.194  16.694  10.487  0.1136  0.0634 -0.1034
24431W        W37845   6.646   4.679   1.275  0.1135  0.1062  0.1371
24432W        W37846   9.396  14.028   2.893 -0.0955  0.0586 -0.1197
24433W        W37847  15.951   9.493  12.584 -0.3843 -0.1642  0.1172
24434W        W37848   0.021  12.359   4.927 -0.2344 -0.1127  0.3934
24435W        W37849   9.971   1.808   0.830  0.3790 -0.2273  0.2666
24436W        W37850  13.843   1.097   1.501  0.0505 -0.1043 -0.2820
24437W        W37851   8.012  15.955   1.991  0.2297 -0.3141 -0.0057
24438W        W37852  10.593  16.259   4.140 -0.0988  0.0898 -0.0917
24439W        W37853   8.658   9.405   4.992 -0.2139  0.2990  0.0284
24440W        W37854   5.838  10.246  15.798  0.0065 -0.1658 -0.1882
24441W        W37855   0.608   1.534   3.137 -0.2784 -0.1015  0.0869
24442W        W37856  17.624  18.105   5.108  0.4748  0.2747 -0.3275
24443W        W37857  12.759   1.625  14.837 -0.0223 -0.0908 -0.1614
24444W        W37858   7.617   0.856  11.257  0.3054  0.1558 -0.0108
24445W        W37859   1.690   1.319   5.622  0.0118  0.1346 -0.1138
24446W        W37860  15.760  11.695   4.835  0.1546 -0.1185 -0.3325
24447W        W37861   7.015   8.261   0.813 -0.0219 -0.0707  0.2737
24448W        W37862  15.721  13.981   1.061 -0.0345 -0.0941  0.2023
24449W        W37863  12.190   2.872  11.720 -0.0702 -0.2220 -0.2083
24450W        W37864  14.407   1.049   1.506  0.0003 -0.1166  0.0976
24451W        W37865  11.424   1.841  15.420 -0.0500 -0.2285 -0.1903
24452W        W37866  13.048  16.338  12.545 -0.0311  0.0635 -0.2007
24453W        W37867   3.752   3.581   3.057  0.2050 -0.0050  0.3248
24454W        W37868   8.372  17.133   4.167  0.0298 -0.2580  0.1034
24455W        W37869   5.438   4.153  13.324 -0.1710 -0.2880 -0.2195
24456W        W37870   6.058   4.569   3.554 -0.2346 -0.0704 -0.4420
24457W        W37871   3.249  11.955  13.730 -0.0080 -0.0413  0.2709
24458W        W37872  17.816   7.014   2.672 -0.0837 -0.2017  0.0106
24459W        W37873  13.818  10.893  11.754  0.1237  0.1342  0.0555
24460W        W37874   5.252   4.318   1.187 -0.1575 -0.1403  0.2723
24461W        W37875  12.378   5.037   3.209  0.1448 -0.0242 -0.0504
24462W        W37876   0.400   1.356   3.580  0.0716  0.1513  0.0606
24463W        W37877  17.233  16.729   2.293 -0.0567  0.2045  0.1363
24464W        W37878   4.329  16.239  16.308 -0.0201  0.2336 -0.0242
24465W        W37879   8.321  11.667  13.225 -0.1041  0.1806 -0.1976
24466W        W37880   4.749   9.751  11.655 -0.0690 -0.0960 -0.1011
24467W        W37881   2.742   0.044  12.329 -0.0740  0.0987  0.0295
24468W        W37882   3.645   0.122  14.454  0.2575  0.0972 -0.1499
24469W        W37883   8.783  17.971  15.530  0.1328 -0.1645  0.2864
24470W        W37884  18.067  12.746  12.745 -0.0079  0.0443 -0.0898
24471W        W37885  14.652   2.551  12.506 -0.0625 -0.0918  0.0615
24472W        W37886   4.620  17.112  13.026  0.0631  0.0679  0.0075
24473W        W37887   5.298   5.924   6.202 -0.1863  0.1380  0.1761
24474W        W37888  17.388  12.972   5.917  0.0561 -0.0636 -0.0914
24475W        W37889  12.802  12.456   5.530  0.1297  0.0422  0.3279
24476W        W37890  12.688  10.745  16.214  0.0159 -0.2024  0.0644
24477W        W37891   7.212   5.971  12.455 -0.0960  0.0509  0.0098
24478W        W37892   4.283  13.775  12.057 -0.0185  0.1783  0.1487
24479W        W37893  17.613  18.154   2.572 -0.3334 -0.3360  0.1232
24480W        W37894   8.665   7.285  15.062  0.0806 -0.0461  0.0110
24481W        W37895  13.662  16.990  12.801  0.0136 -0.2092  0.0170
24482W        W37896   6.105  12.026  15.651  0.2011  0.0203  0.0280
24483W        W37897  15.557   4.386  12.178 -0.0493 -0.1048  0.0901
24484W        W37898   2.092  13.042  10.441 -0.0106 -0.1998  0.1247
24485W        W37899   2.572  11.466   1.803  0.0542 -0.2133 -0.2923
24486W        W37900  11.973   2.902   5.072 -0.0370  0.0551 -0.0324
24487W        W37901   9.398   7.928   2.011 -0.1047  0.0067  0.1443
24488W        W37902  11.246  13.220   3.546 -0.0313  0.2048  0.0412
24489W        W37903  10.258   8.225  12.442 -0.0591 -0.0167 -0.0273
24490W        W37904  16.308   5.764   2.489 -0.1711 -0.1695  0.0327
24491W        W37905   1.298  13.889  15.367 -0.2111 -0.1978 -0.1856
24492W        W37906   4.618   8.504   0.968  0.0518  0.0590  0.0749
24493W        W37907  10.949   5.013  15.043 -0.0004 -0.3867  0.0198
24494W        W37908   6.682   7.703   5.543 -0.2203  0.0670 -0.2156
24495W        W37909  15.933  17.229   3.580 -0.1537  0.0153 -0.0608
24496W        W37910   6.284   3.843  14.835  0.0151 -0.0231 -0.0236
24497W        W37911   9.250   3.056   2.513 -0.0838 -0.0721 -0.1657
24498W        W37912  13.263   8.954   1.028 -0.0738  0.2070 -0.2648
24499W        W37913   6.833  12.079   1.683 -0.0995 -0.1778  0.2253
24500W        W37914   3.466   8.485   5.798  0.1805 -0.0915  0.1258
24501W        W37915  11.461   0.477  10.624 -0.1751 -0.1668  0.0411
24502W        W37916  10.007  14.794   1.623 -0.1705 -0.2241 -0.2848
24503W        W37917   9.639   1.090  14.076  0.2164  0.3209  0.0701
24504W        W37918  12.274  14.009   5.489  0.0706  0.1167  0.0336
24505W        W37919  13.119   8.985  12.112  0.2487 -0.2214  0.4415
24506W        W37920  13.324  14.356   5.749  0.2863  0.0826  0.0017
24507W        W37921   1.667   2.228  13.284  0.2987  0.1038 -0.2521
24508W        W37922   2.315  12.352   1.083  0.0495  0.0277  0.5169
24509W        W37923   3.480   3.624  15.715 -0.0322  0.1092 -0.1771
24510W        W37924   0.622  13.366  11.246 -0.0856  0.0706 -0.1479
24511W        W37925  17.931   5.002   3.463 -0.2514  0.0669  0.1557
24512W        W37926   4.529  11.044   3.349 -0.0699  0.1146 -0.1402
24513W        W37927   2.732   8.969  15.674 -0.0553 -0.0751  0.3662
24514W        W37928   3.714   3.542   5.762 -0.1737  0.0815 -0.1780
24515W        W37929   6.076  12.151  11.440 -0.2146 -0.2731  0.2276
24516W        W37930   1.904  13.483  10.430 -0.2345 -0.0271 -0.2332
24517W        W37931   0.030   3.786  15.409 -0.4697 -0.0425  0.0508
24518W        W37932  17.695  17.549  13.506  0.4446  0.1095  0.2380
24519W        W37933  11.442   9.668   2.881  0.2697 -0.0810  0.2081
24520W        W37934   2.896   1.756  12.958  0.0858 -0.0182  0.0141
24521W        W37935  10.155  16.798  10.487 -0.1158 -0.0653  0.1497
24522W        W37936   8.310   6.538  12.652 -0.1536 -0.1852  0.1021
24523W        W37937   1.434   8.542  13.162 -0.1066 -0.2373  0.0391
24524W        W37938  16.177   1.979  15.186 -0.3885  0.0354 -0.0296
24525W        W37939  10.231   2.804   1.092  0.0222  0.2605 -0.2274
24526W        W37940   4.386  14.888   5.108  0.0499 -0.1829 -0.1977
24527W        W37941   3.530   9.627   2.085 -0.2560  0.0271  0.1552
24528W        W37942  10.122   7.113   4.912 -0.0326 -0.0102  0.0349
24529W        W37943  14.490   2.568   0.700  0.3116  0.0562 -0.1385
24530W        W37944  10.593   1.531   2.554 -0.2792  0.2818  0.1877
24531W        W37945  10.705  13.215  13.723 -0.0061 -0.1598  0.4079
24532W        W37946   4.876  15.619   0.943 -0.0958 -0.0022 -0.1752
24533W        W37947   0.775  17.722  14.581  0.1001 -0.1176  0.2454
24534W        W37948   6.264  13.991  15.921  0.2396  0.1753  0.1819
24535W        W37949  13.354   8.073  15.131 -0.1144  0.0940  0.0980
24536W        W37950   1.289  12.547   2.502  0.0688  0.1671 -0.0964
24537W        W37951   8.695  11.188   1.889 -0.0360 -0.0325 -0.1311
24538W        W37952   8.506   7.543   1.279 -0.0545 -0.2751 -0.2033
24539W        W37953   0.495   1.908   5.116  0.0046  0.4323  0.0031
24540W        W37954  16.551  11.490   5.397  0.0090  0.0441 -0.3311
24541W        W37955  10.794  14.803   0.276 -0.1299 -0.0029 -0.2100
24542W        W37956   7.082  11.215  14.149 -0.1671  0.0226 -0.0567
24543W        W37957   0.799   8.291   0.606 -0.0332 -0.0478 -0.3618
24544W        W37958   7.737  16.494   1.940  0.0083  0.2762 -0.2391
24545W        W37959  16.137   0.559   2.166 -0.0872  0.0530  0.1724
24546W        W37960  13.440   1.988  10.174 -0.2373 -0.0946  0.2130
24547W        W37961   9.885   0.272  12.991  0.2000 -0.0351 -0.1202
24548W        W37962   9.725   6.730  11.469 -0.1350 -0.1550 -0.2425
24549W        W37963   9.847   8.318   5.538 -0.2168  0.0621 -0.1217
24550W        W37964   3.033   8.718   4.537 -0.0277  0.0912  0.2735
24551W        W37965   5.953  14.454  11.551  0.1279 -0.2292 -0.1356
24552W        W37966  14.321   7.458   1.756  0.0606  0.2810  0.1860
24553W        W37967   8.171   6.058  14.524 -0.2072 -0.1692 -0.2013
24554W        W37968  12.659   9.538  16.131  0.0862 -0.1447  0.1471
24555W        W37969  13.013   3.738   5.064 -0.2451 -0.0943  0.0115
24556W        W37970   5.945   9.288  15.317 -0.0409 -0.1669 -0.0723
24557W        W37971   4.628   2.017   5.322  0.1876  0.0425  0.0520
24558W        W37972   9.207   1.927   4.195  0.1973  0.1865  0.1449
24559W        W37973   1.426   0.846   4.997 -0.1566 -0.0001  0.0781
24560W        W37974   8.682  10.053   0.203 -0.3954 -0.0002 -0.1630
24561W        W37975   9.752   3.190  14.209  0.2404 -0.0440  0.0624
24562W        W37976  14.641  13.710  12.441 -0.3743 -0.1086  0.1120
24563W        W37977   7.806   0.233  15.988  0.2728  0.4408 -0.0798
24564W        W37978   3.573  17.433   5.540 -0.0473  0.2102  0.1902
24565W        W37979   5.052   1.899   2.157 -0.2455 -0.3326 -0.0328
24566W        W37980   6.395   7.244   3.769 -0.1425  0.0340  0.2889
24567W        W37981  10.386  10.690  10.748  0.0049 -0.2751 -0.1047
24568W        W37982  16.153   5.028  16.324  0.2871 -0.1821 -0.1815
24569W        W37983  14.815  11.493   5.184 -0.0166  0.0477 -0.0079
24570W        W37984   9.745   9.542   2.886 -0.6854  0.2131  0.2808
24571W        W37985   2.929  13.215  10.392  0.0277 -0.2873 -0.1875
24572W        W37986   7.130  17.067  10.719  0.0488 -0.1129 -0.0161
24573W        W37987  10.510  16.844  11.022  0.0005 -0.0376  0.3817
24574W        W37988   1.275  13.611   5.105  0.0529 -0.0707 -0.0630
24575W        W37989  13.608  16.589  13.788 -0.0874 -0.1966  0.1009
24576W        W37990   7.580  13.868   3.857 -0.2839 -0.1998 -0.0380
24577W        W37991   1.937  14.286   5.508  0.2029  0.3648  0.0111
24578W        W37992  10.258   7.392   3.203  0.1374 -0.1381  0.0165
24579W        W37993  15.758  10.766   1.110 -0.0134 -0.0794 -0.1836
24580W        W37994  12.780   8.611  11.845  0.2958 -0.3857 -0.1586
24581W        W37995   0.170   5.597   4.131  0.2285  0.1576 -0.2284
24582W        W37996   2.475  14.986   1.795  0.0138 -0.0901 -0.2828
24583W        W37997   9.651   5.941   1.535 -0.1814  0.1017 -0.0461
24584W        W37998   9.336   1.735   4.694 -0.1672  0.1577  0.0383
24585W        W37999   8.784  13.301  15.894 -0.0299 -0.0096  0.1314
24586W        W38000  12.955  15.252   1.503 -0.0981 -0.0864  0.0821
24587W        W38001   7.561  16.990  11.333 -0.2229  0.1009  0.0533
24588W        W38002  13.914  13.112   3.544  0.0467  0.0200  0.1151
24589W        W38003  13.821  17.076   2.087  0.0718  0.0038 -0.0615
24590W        W38004   1.933   5.094   4.478  0.0365  0.0585  0.0661
24591W        W38005  10.283   9.910   0.834 -0.3245  0.1764  0.6045
24592W        W38006   9.029   7.424   1.267 -0.2219 -0.0263 -0.0955
24593W        W38007   2.068   0.897   2.076 -0.0981  0.2129  0.0495
24594W        W38008   6.607   7.117   0.217 -0.0223  0.0006 -0.0531
24595W        W38009   1.129  12.917   0.201  0.1651 -0.1694  0.0469
24596W        W38010  17.839  15.409   0.862 -0.1732 -0.3604 -0.1517
24597W        W38011  11.248  11.559   3.853  0.0027  0.0054  0.1868
24598W        W38012   3.184  16.501   0.962 -0.0238 -0.0151  0.0114
24599W        W38013   3.504   0.831   2.863  0.2011 -0.0962 -0.0387
24600W        W38014  10.619  12.365   5.055  0.0560  0.2571  0.0088
24601W        W38015   3.148   8.294   0.911 -0.2010  0.3370  0.2003
24602W        W38016  14.686   1.822  13.612  0.1681 -0.1303 -0.1200
24603W        W38017  12.489   1.956   0.359 -0.0013  0.1186 -0.1947
24604W        W38018  11.727  12.108  16.210  0.0283  0.0149 -0.1670
24605W        W38019  11.091   3.439   5.418  0.0774 -0.1309 -0.1760
24606W        W38020  10.791   7.121   2.514 -0.0211 -0.1066 -0.1379
24607W        W38021   2.385  17.542  16.485  0.1922  0.2921  0.1043
24608W        W38022  10.104   7.934   2.489  0.3390  0.0387  0.1954
24609W        W38023   1.455   7.946  11.994 -0.0296  0.0322 -0.1314
24610W        W38024   1.744  14.768   2.148  0.1589  0.1117 -0.2062
24611W        W38025  16.384   5.810   4.501 -0.2272  0.2367  0.2754
24612W        W38026  15.730  13.672   6.530  0.0582 -0.0789 -0.0386
24613W        W38027   6.658  12.922  15.145 -0.0002 -0.2555  0.0926
24614W        W38028  17.543  13.533   5.097 -0.3475  0.0071 -0.0705
24615W        W38029   3.545  10.335  15.546  0.0048 -0.1182 -0.1060
24616W        W38030   2.949  11.774   2.592 -0.0304 -0.1633 -0.0825
24617W        W38031   2.877   5.077  12.287  0.1328 -0.1953  0.1486
24618W        W38032   3.414   9.650   2.729 -0.1795 -0.3663  0.1699
24619W        W38033  13.178  16.048  12.951 -0.0723 -0.1973 -0.1339
24620W        W38034   7.051   0.829   2.296  0.0961 -0.3084  0.1654
24621W        W38035   8.085  14.687   0.603 -0.1571 -0.0053 -0.1517
24622W        W38036   3.409  15.381  14.145  0.3160  0.0001 -0.2232
24623W        W38037   2.259   6.733   3.990 -0.0686  0.1623  0.0204
24624W        W38038  13.961   1.546  14.369  0.2920 -0.3390 -0.2846
24625W        W38039   5.032   2.350   3.497  0.0489  0.3556  0.5067
24626W        W38040   0.219  15.062  16.029  0.3110 -0.0807 -0.0521
24627W        W38041  10.996  12.129   1.207  0.2151 -0.0004 -0.1561
24628W        W38042  12.212  17.180  13.791 -0.0033 -0.0045 -0.1512
24629W        W38043  14.275   2.409  11.528  0.1089  0.2570  0.0348
24630W        W38044   0.550   8.930  14.786 -0.2640  0.1050  0.1081
24631W        W38045   7.279   9.609   0.577 -0.0792 -0.0383 -0.0070
24632W        W38046   2.872  10.571  14.092 -0.1868  0.0563  0.0617
24633W        W38047  12.124   2.193   2.658 -0.3234 -0.0394  0.1673
24634W        W38048  16.901   8.257   3.881 -0.0254 -0.0438  0.2898
24635W        W38049   6.019  17.681  10.769  0.3230 -0.1091 -0.2840
24636W        W38050   3.919  11.664  11.851 -0.0378 -0.1466  0.0461
24637W        W38051   7.496  14.160  11.309 -0.3013  0.0564 -0.0356
24638W        W38052   7.276   7.338   6.246  0.1418 -0.1290  0.0867
24639W        W38053   4.083   9.459  13.389 -0.1632 -0.2826 -0.4254
24640W        W38054   7.658  16.195   4.973  0.1677  0.0455  0.4538
24641W        W38055   6.282  10.349   3.054 -0.0225  0.0090 -0.0439
24642W        W38056  12.030   6.338   3.609  0.0672  0.0614 -0.3803
24643W        W38057  17.997  11.734  14.723 -0.2389 -0.2859  0.1772
24644W        W38058   7.893  13.940  16.361 -0.4079  0.0047  0.1224
24645W        W38059   3.430  16.117   9.919  0.0564  0.1784  0.4633
24646W        W38060  12.281  15.202   0.152  0.0633  0.1514 -0.3349
24647W        W38061   0.031   2.410  13.754  0.2536 -0.5313  0.2729
24648W        W38062   7.732   8.613  15.646 -0.3639  0.1972 -0.1921
24649W        W38063  18.000  10.931   4.570 -0.1303 -0.1856  0.1569
24650W        W38064   5.960  16.063  13.452 -0.1654 -0.1601  0.1891
24651W        W38065   9.972   5.607  12.876 -0.1009 -0.0848  0.0105
24652W        W38066   8.688  14.061  13.601 -0.0333  0.1208 -0.0336
24653W        W38067   3.363   0.412  14.081  0.1249  0.1768  0.1317
24654W        W38068   4.714  10.248  11.692  0.2001  0.1538  0.0765
24655W        W38069   5.205  11.693   4.246 -0.1952 -0.1155 -0.0617
24656W        W38070   4.995  12.037   1.613 -0.2581  0.1058  0.1455
24657W        W38071  16.917  12.018  10.993 -0.2963 -0.0477 -0.1128
24658W        W38072  13.707  17.084   0.393 -0.0476 -0.1571  0.0814
24659W        W38073  14.010   2.652   2.408  0.2290 -0.3819 -0.1366
24660W        W38074  11.661   0.198  13.509  0.1808  0.0391  0.1271
24661W        W38075  12.030  12.194  14.611  0.0640  0.1652 -0.2619
24662W        W38076  13.223   4.147   4.618  0.2445  0.0031 -0.0029
24663W        W38077   6.863   0.027  13.651 -0.1032 -0.0525 -0.0888
24664W        W38078   5.202   0.555   4.969 -0.0634  0.1578 -0.0606
24665W        W38079   4.042  13.179   1.083  0.2823  0.2150 -0.1622
24666W        W38080   9.131  12.309   4.133 -0.0928 -0.0466  0.1812
24667W        W38081   0.035   3.263  15.268  0.5109  0.2087  0.1593
24668W        W38082   2.296  13.241  16.248  0.1337  0.0711 -0.0603
24669W        W38083   4.732   8.033  14.242 -0.3126 -0.2908  0.2244
24670W        W38084   4.100   4.166   2.061  0.2073  0.1410 -0.2841
24671W        W38085   3.750   0.894   3.388  0.1911 -0.0270  0.3430
24672W        W38086   0.156   1.095  10.724 -0.4560 -0.0466  0.0749
24673W        W38087  15.480   1.162  13.497  0.0684  0.0172 -0.1179
24674W        W38088   6.282  14.959  12.363  0.1412  0.0068  0.1070
24675W        W38089   5.654  12.049  12.688  0.0540  0.0199  0.0899
24676W        W38090   2.330  10.172   0.877 -0.1998 -0.0913 -0.2618
24677W        W38091  18.094  12.797  12.257 -0.0777 -0.2101  0.1482
24678W        W38092   9.899  16.517  15.937  0.3073  0.0210 -0.2297
24679W        W38093  13.806   0.883  15.769 -0.0547 -0.2426  0.0060
24680W        W38094   2.302   8.378  14.658 -0.3188  0.0824  0.1753
24681W        W38095  16.066   1.062  13.679  0.2804 -0.1429  0.0063
24682W        W38096  14.304  15.411   2.557 -0.3098 -0.3756  0.2340
24683W        W38097   0.721  12.609   5.922  0.2520  0.0843 -0.1356
24684W        W38098   3.729  17.314  13.815  0.1178  0.0674  0.0946
24685W        W38099   9.983  11.477  16.318 -0.1757 -0.1677  0.0229
24686W        W38100   7.044  13.311  13.317 -0.1834 -0.1990  0.0648
24687W        W38101   9.270   5.870  11.804 -0.1816  0.1269  0.2857
24688W        W38102   6.721  11.101  12.835  0.0616  0.1003  0.2054
24689W        W38103   9.152  10.788   1.998  0.1656  0.1913  0.0180
24690W        W38104  13.064  12.118   2.465 -0.0915 -0.0509 -0.1572
24691W        W38105   0.963  10.375   0.314  0.1549 -0.1918  0.0431
24692W        W38106   9.908  14.884   4.768 -0.1423  0.0571  0.1770
24693W        W38107  14.533  16.681  16.473 -0.0519  0.1339 -0.0479
24694W        W38108  15.216  15.170  10.714 -0.4733  0.2579 -0.0029
24695W        W38109   5.474  17.896   4.834  0.0017 -0.1424  0.2874
24696W        W38110  10.253  11.952   3.779 -0.0647  0.1755 -0.1775
24697W        W38111   0.383   5.444   1.233  0.0195  0.2566  0.0267
24698W        W38112  10.204  17.571  12.743 -0.0081  0.2608 -0.2880
24699W        W38113  17.284   5.106   1.519  0.2568 -0.0818 -0.0725
24700W        W38114   4.452   6.862   4.698 -0.0883  0.1259 -0.3841
24701W        W38115   1.535  11.182  15.151  0.2181 -0.0616 -0.0494
24702W        W38116   6.608  14.016  12.967  0.0567  0.0185  0.4741
24703W        W38117  12.526  18.147  12.141  0.2498  0.0024  0.3130
24704W        W38118  16.752  15.538   5.659 -0.0206  0.1855  0.2292
24705W        W38119   0.893  13.936   4.189  0.0029  0.3119  0.0300
24706W        W38120   6.974  12.127   5.202 -0.1030  0.0301  0.1718
24707W        W38121  10.126   8.040  11.056 -0.1640 -0.0855  0.0059
24708W        W38122  16.877   7.603  15.964  0.1144 -0.0473  0.1040
24709W        W38123   2.171   0.550  14.607 -0.1154 -0.0751 -0.0659
24710W        W38124   3.614  10.782   2.585  0.0188 -0.0133  0.0480
24711W        W38125   0.423  13.837   3.331 -0.0223  0.3783  0.1612
24712W        W38126   0.160  13.372   1.829  0.0679 -0.0461 -0.2009
24713W        W38127   8.902  11.864  12.102 -0.1421 -0.3089 -0.0358
24714W        W38128  12.742   0.192  15.427 -0.1741 -0.1073 -0.1769
24715W        W38129   6.624   2.280  11.450  0.0573  0.0972 -0.2285
24716W        W38130  12.303  14.954   5.144  0.3229  0.0576 -0.0176
24717W        W38131   1.886   2.705  15.387  0.2515  0.2908  0.0395
24718W        W38132   3.787   7.109   5.697  0.1035 -0.0641 -0.1755
24719W        W38133  15.494   7.264   5.988 -0.2369  0.0111  0.1220
24720W        W38134  14.985   1.407  15.167 -0.0393  0.3387  0.3039
24721W        W38135   6.846  10.327   3.036 -0.2378 -0.0852  0.3427
24722W        W38136  17.343  11.195   3.896  0.0847 -0.1076  0.1573
24723W        W38137   5.335   2.345  15.948  0.3628 -0.2184 -0.2111
24724W        W38138  16.909  17.567  12.018 -0.1740 -0.1085  0.0013
24725W        W38139  17.837  13.333   5.474 -0.0058  0.1112 -0.1585
24726W        W38140   9.315  14.085   4.121 -0.1762  0.1194  0.2316
24727W        W38141  14.054  17.635  10.031 -0.1250  0.1574 -0.1935
24728W        W38142   7.584   0.218   1.093 -0.1720  0.1390  0.1153
24729W        W38143  15.077   7.107  11.478  0.0146  0.1461 -0.1657
24730W        W38144   2.431  17.935  12.693  0.0744 -0.0906 -0.0066
24731W        W38145   1.717   1.307   5.144 -0.1807  0.0797 -0.1086
24732W        W38146   0.497  10.300  13.539 -0.0913 -0.1031  0.0555
24733W        W38147   9.760  15.279   4.044 -0.0408  0.2549  0.0865
24734W        W38148  10.863  13.184   0.349 -0.1498  0.1843 -0.0750
24735W        W38149   4.537   6.343   0.175  0.1598  0.2624  0.0984
24736W        W38150   1.241  11.655   0.169 -0.0906 -0.5349  0.3059
24737W        W38151   5.342   9.371   1.468 -0.0642 -0.0466 -0.3032
24738W        W38152  18.057   5.322   4.452  0.0820 -0.3000 -0.0148
24739W        W38153  10.984   6.590  13.036 -0.1826  0.3366 -0.0977
24740W        W38154  10.646  11.803  13.600 -0.1374 -0.0951 -0.0863
24741W        W38155   5.881   2.450   3.350  0.0313  0.1394  0.1312
24742W        W38156   7.226   8.894  13.948 -0.0936 -0.3665 -0.1202
24743W        W38157  10.550   8.486   4.808  0.1226  0.1865 -0.2001
24744W        W38158   4.067  10.258  13.661 -0.1500  0.1783 -0.2079
24745W        W38159  17.221  13.323   2.505 -0.1425 -0.0351 -0.0724
24746W        W38160   1.547  12.269   4.897 -0.1897  0.0786 -0.0620
24747W        W38161  11.416  15.785  12.623  0.0187  0.0814 -0.0333
24748W        W38162  11.113  14.307  11.291  0.1930 -0.2688 -0.1927
24749W        W38163   0.865   0.852   4.970  0.1325  0.0881  0.1674
24750W        W38164   6.812  15.545  11.471  0.1218 -0.0814 -0.2639
24751W        W38165  13.644   6.065  10.265 -0.1716 -0.2142 -0.0932
24752W        W38166   0.556  14.658  16.144  0.3043  0.0439  0.1965
24753W        W38167  10.937  11.414  10.881 -0.0680 -0.0082  0.1159
24754W        W38168   1.240  14.774   4.002  0.1253 -0.4089 -0.2072
24755W        W38169   0.610  17.760   3.479 -0.2017  0.1099  0.1399
24756W        W38170   2.642   9.839  14.434  0.0896  0.1137 -0.1549
24757W        W38171  18.217   2.847  15.517 -0.0673  0.3234 -0.1220
24758W        W38172   5.620  11.242  14.305  0.0843 -0.2479  0.1758
24759W        W38173   1.143   9.386  11.553  0.1762 -0.0400  0.1063
24760W        W38174   8.990   3.025  13.485  0.2628  0.1230  0.0859
24761W        W38175   2.347   8.564   3.971 -0.0586  0.1213  0.0732
24762W        W38176   9.129   5.656   3.241 -0.4111 -0.1459 -0.1048
24763W        W38177   7.305  13.724   5.885  0.2518  0.0754  0.2120
24764W        W38178   2.671  16.099  12.670  0.2219  0.0495 -0.1996
24765W        W38179   1.079  16.555   1.949  0.1061  0.0121 -0.2246
24766W        W38180   3.656   0.325  14.905 -0.2365 -0.0354  0.1379
24767W        W38181  12.310   5.964  11.455 -0.2156  0.0623 -0.0833
24768W        W38182  10.841   6.263   5.617  0.0251  0.0882  0.2421
24769W        W38183   7.457  16.153   9.439  0.1538  0.1901 -0.1782
24770W        W38184  14.341   7.443   5.846  0.3336 -0.0992  0.0573
24771W        W38185   0.647   5.569   5.101  0.0297 -0.1897 -0.0865
24772W        W38186   8.535   4.546  15.020  0.3494 -0.1310 -0.0704
24773W        W38187   7.694  12.418   0.296 -0.3247  0.1183  0.0300
24774W        W38188   9.559  14.374  11.025  0.0258  0.0776 -0.1000
24775W        W38189  18.172   6.535   6.254 -0.0800  0.0764  0.2156
24776W        W38190   8.819  12.864   5.751 -0.1494  0.0990 -0.2894
24777W        W38191   4.577   0.061   4.286 -0.1721  0.0025  0.0184
24778W        W38192  17.188  11.720  14.263 -0.2582  0.0560  0.1059
24779W        W38193   9.193   8.116   2.911  0.1032 -0.1278 -0.1329
24780W        W38194   4.115   0.360  14.600  0.3044  0.0102  0.2801
24781W        W38195  17.975  15.127   2.423  0.0144 -0.1532  0.0739
24782W        W38196   7.248  11.859   4.615  0.1704 -0.1641 -0.3228
24783W        W38197  10.759   3.256  12.151 -0.1326  0.1841  0.2492
24784W        W38198  15.545  10.063  14.420 -0.1097 -0.0676 -0.0350
24785W        W38199  16.388  12.765  11.146 -0.0239 -0.1528  0.0369
24786W        W38200  17.675   1.170   5.735  0.1252 -0.0653  0.2261
24787W        W38201   5.105   4.563   5.080  0.1847  0.0676 -0.0603
24788W        W38202   1.540   9.704   0.198 -0.1817 -0.0238  0.1531
24789W        W38203   5.622  17.017  10.332  0.0399 -0.1710  0.3085
24790W        W38204   8.205   4.785   5.806 -0.0013  0.1510  0.2586
24791W        W38205  15.154  17.504  11.883 -0.0150  0.0719  0.0756
24792W        W38206   8.843   5.530   2.106  0.1534  0.1501  0.4048
24793W        W38207   9.123  13.762   3.690 -0.3223  0.0744  0.0075
24794W        W38208  13.947  17.772   0.898  0.2041 -0.2116  0.0240
24795W        W38209   1.771  13.514  12.836  0.0096  0.1744 -0.1965
24796W        W38210  11.294  10.169  14.220 -0.2497  0.0148 -0.0636
24797W        W38211  14.777  18.032   3.938 -0.1459 -0.0658 -0.0844
24798W        W38212  13.612   8.527  15.095 -0.0175 -0.0716 -0.0544
24799W        W38213   9.708   7.110   5.958 -0.1185 -0.0423 -0.0989
24800W        W38214   7.174  14.911  15.983 -0.1649  0.1676  0.2196
24801W        W38215  17.553   5.746   1.262 -0.0848  0.4033  0.2585
24802W        W38216   0.618   5.691   1.855 -0.2339 -0.0206 -0.1279
24803W        W38217   1.263   6.641   2.327 -0.2378 -0.1564  0.2076
24804W        W38218   6.741   3.783   3.280 -0.1799 -0.1138  0.1091
24805W        W38219  10.742   0.223   0.550  0.1087  0.0602 -0.3452
24806W        W38220   3.293  10.834   5.369  0.1775  0.0332 -0.2632
24807W        W38221   4.815  14.248  10.956  0.2623  0.1730  0.3643
24808W        W38222   3.268   3.319   1.258 -0.0361  0.2602  0.1422
24809W        W38223   5.519   9.193  11.877 -0.1994 -0.3347  0.2583
24810W        W38224  11.018  11.941   4.326  0.1437 -0.0763 -0.1128
24811W        W38225   2.431   1.836   2.607 -0.2884  0.0935  0.2205
24812W        W38226   3.293   2.704   2.507  0.0568  0.0660  0.0185
24813W        W38227   4.642   6.947   3.575  0.1038 -0.3543  0.0863
24814W        W38228   0.484  14.575   2.653  0.3488  0.1993 -0.1809
24815W        W38229   8.944   0.781   9.875 -0.1568 -0.2523  0.0344
24816W        W38230   8.058  18.030   5.409 -0.0839  0.1706  0.2955
24817W        W38231   5.860   3.354   3.462  0.2337  0.1194 -0.1222
24818W        W38232   0.282   9.572  13.113  0.0489  0.0662 -0.1431
24819W        W38233   8.251  12.658   0.929 -0.1591  0.0116  0.0331
24820W        W38234   9.841  13.311   1.238  0.1823  0.4161 -0.1225
24821W        W38235   4.225   2.814  11.671 -0.1523 -0.1943  0.1919
24822W        W38236  15.043   9.238   1.707 -0.2518 -0.1168 -0.0243
24823W        W38237  14.704  12.868   1.928  0.1232  0.0431 -0.0097
24824W        W38238   1.181   0.521   5.427 -0.1850  0.0023 -0.2179
24825W        W38239   5.517   1.069  15.919 -0.0084 -0.0208 -0.0079
24826W        W38240   2.799   8.692   3.943 -0.0478 -0.1470  0.1129
24827W        W38241   2.689   6.971  10.739  0.0077  0.1656  0.1833
24828W        W38242  11.446   9.259  15.216  0.4025 -0.0202 -0.2499
24829W        W38243   7.362   8.718   3.478 -0.0248  0.0121 -0.1019
24830W        W38244  11.742   5.132   4.220 -0.0363 -0.3080  0.0382
24831W        W38245   0.941   2.118  10.486 -0.1195 -0.0747  0.0055
24832W        W38246   7.516   1.564   2.487 -0.1265 -0.0860 -0.0107
24833W        W38247  11.775   0.800  14.642 -0.1027 -0.2297 -0.1339
24834W        W38248   4.655   1.299   3.526  0.1918  0.0837  0.0092
24835W        W38249  17.179  12.740  13.791 -0.1987 -0.2906 -0.0220
24836W        W38250  16.043   3.212   5.422  0.0553 -0.1287 -0.2162
24837W        W38251   2.483  18.011   3.381 -0.0192 -0.0948 -0.1055
24838W        W38252  13.407  15.886   2.602 -0.0720 -0.1208  0.2103
24839W        W38253  10.603  11.800   2.367 -0.0246  0.1537 -0.1660
24840W        W38254  11.019  17.901  15.755 -0.1317 -0.2738 -0.0632
24841W        W38255  14.192  18.023  11.676  0.0696  0.1956  0.2163
24842W        W38256   5.720   1.479   0.532 -0.1411 -0.2967 -0.1930
24843W        W38257   3.849  16.427  14.225  0.0622  0.4099 -0.0711
24844W        W38258  10.541   7.519   0.894 -0.2070  0.0741 -0.0979
24845W        W38259  17.818   5.807  10.337  0.1481 -0.1448 -0.1914
24846W        W38260  13.273   1.319  13.592  0.2561 -0.2459  0.1048
24847W        W38261  13.192  15.332  11.536 -0.2444 -0.0699  0.0206
24848W        W38262  13.051   2.220  14.099  0.0829 -0.1362 -0.0304
24849W        W38263  17.020   2.886  11.501  0.0395 -0.0402 -0.0374
24850W        W38264  12.323  12.117   3.090 -0.3913 -0.0133 -0.2810
24851W        W38265  12.646   7.753   1.229  0.1426  0.2055 -0.0641
24852W        W38266   7.983   3.978   4.115 -0.0072  0.3743  0.3243
24853W        W38267   8.387  10.963   3.934 -0.0626 -0.1343 -0.2469
24854W        W38268  16.675   4.879  14.030  0.1188 -0.0220 -0.3842
24855W        W38269  12.577  14.522  13.666  0.0101  0.0736  0.0939
24856W        W38270   1.268   6.568   4.103  0.0428  0.0560  0.3283
24857W        W38271   6.671  13.199   1.367 -0.1703 -0.1033 -0.0388
24858W        W38272   3.130   3.596  12.887  0.2763 -0.4148  0.0992
24859W        W38273   5.364  16.266  16.036 -0.0045  0.2290 -0.0483
24860W        W38274  12.377   3.663  12.387  0.2013 -0.1679 -0.1151
24861W        W38275  15.367   4.759   2.053  0.0806 -0.3007  0.1590
24862W        W38276  16.084  17.457  16.171  0.0630  0.0498 -0.2520
24863W        W38277  10.938   3.627  16.515 -0.1537 -0.1567  0.1365
24864W        W38278   3.234   7.923   3.358 -0.1030  0.1640  0.2164
24865W        W38279  12.979  17.250   1.792  0.0915  0.0787 -0.0100
24866W        W38280  15.580  15.027   2.155 -0.0398  0.0833 -0.3630
24867W        W38281   7.788  13.390   3.835 -0.2601 -0.1051 -0.0355
24868W        W38282  14.621   5.207   3.541 -0.1579  0.1865 -0.1101
24869W        W38283   2.239   0.682   5.709 -0.1377  0.1700  0.2235
24870W        W38284   7.054   4.121  12.321  0.1441  0.0773 -0.1921
24871W        W38285  12.316  15.494   9.659  0.2636  0.3206 -0.0855
24872W        W38286   1.169  11.693   5.369 -0.3208  0.0172 -0.1927
24873W        W38287   8.462   5.388   0.999  0.1698 -0.1212 -0.3685
24874W        W38288   5.453   8.494  14.425 -0.2486 -0.1526 -0.1805
24875W        W38289   0.927  16.119   5.424 -0.0181  0.1625 -0.2858
24876W        W38290  13.360  14.206   4.062 -0.2223  0.2560 -0.2917
24877W        W38291   9.620  12.169   2.267 -0.1532  0.3310 -0.0445
24878W        W38292   0.992  12.407  14.022 -0.3438 -0.0208  0.0264
24879W        W38293   5.188  14.512   3.816 -0.1448 -0.2849 -0.2454
24880W        W38294  16.411   6.172   0.589  0.1090  0.1041  0.1598
24881W        W38295  14.444  16.163   1.178  0.1922  0.2114 -0.1268
24882W        W38296   1.719  13.726   1.136  0.1967  0.1579 -0.4890
24883W        W38297   2.625  16.844   4.974 -0.2830  0.0473 -0.2509
24884W        W38298   8.585  17.921  14.609 -0.0702  0.1493 -0.0818
24885W        W38299   5.043  16.190  15.231 -0.1458  0.1729  0.1544
24886W        W38300   7.573  10.375  12.890 -0.0410  0.0129  0.0326
24887W        W38301   0.709  12.169   3.609  0.1993 -0.2180 -0.0311
24888W        W38302  11.408  12.932  13.127  0.1666  0.2060  0.0132
24889W        W38303  15.657  11.187  11.749  0.0602  0.2702 -0.2318
24890W        W38304  14.042   1.692  12.400 -0.3220 -0.1034 -0.0975
24891W        W38305   2.487   1.118  11.643 -0.1349  0.0702  0.1293
24892W        W38306   6.625  16.118  10.449  0.0735  0.1852 -0.0699
24893W        W38307   6.676   4.290   3.591 -0.0648  0.3064 -0.2011
24894W        W38308   4.429   1.488  10.726  0.2408  0.2268 -0.3551
24895W        W38309  17.289   8.083  11.261 -0.2556  0.5652  0.4562
24896W        W38310   0.265   5.106   4.583 -0.2344 -0.0117 -0.1061
24897W        W38311  11.113  13.010   4.492 -0.1822  0.1259  0.2368
24898W        W38312   0.833   1.181   4.500  0.0474 -0.0406 -0.0716
24899W        W38313  15.513   9.545  14.460 -0.1630  0.2262 -0.2646
24900W        W38314   8.429   9.620  16.388  0.2117 -0.1607  0.0234
24901W        W38315  11.988  11.494   4.129 -0.2346 -0.0473 -0.1356
24902W        W38316  17.186   9.555   1.965 -0.3058  0.2708 -0.0147
24903W        W38317  10.909  17.645  15.248 -0.1531 -0.0919  0.2659
24904W        W38318  11.884   7.229  11.121 -0.2579  0.2508  0.2871
24905W        W38319  11.735   3.508  15.639  0.0490  0.0497 -0.2236
24906W        W38320   2.333  18.089  15.738  0.0825 -0.2415  0.1630
24907W        W38321  14.607   5.925  15.537  0.1797 -0.0510  0.1147
24908W        W38322  17.493   2.112   5.728 -0.2376  0.1191 -0.3013
24909W        W38323  16.903  10.924  11.834 -0.0643  0.1531  0.2481
24910W        W38324  11.149   0.975  12.340  0.0260 -0.0444  0.0226
24911W        W38325  17.708   6.982   4.017  0.2731  0.0225  0.1746
24912W        W38326  16.306  16.793  13.810  0.0094  0.2397 -0.0046
24913W        W38327  15.825  11.867  13.991  0.1772  0.0990  0.1249
24914W        W38328  13.664  11.439  15.399 -0.1502 -0.0779  0.1113
24915W        W38329   0.538   8.863   3.444 -0.0295 -0.1579 -0.0533
24916W        W38330   1.098  11.412   4.443  0.0768 -0.2639 -0.3034
24917W        W38331   5.301   1.683   4.482 -0.0264 -0.2368 -0.2411
24918W        W38332   0.194  12.728   0.706 -0.4688  0.0515 -0.0732
24919W        W38333   9.983  12.758   0.155  0.2009  0.1005  0.0778
24920W        W38334   0.729  18.161   4.355  0.2551  0.4773 -0.0242
24921W        W38335   7.919   0.265  13.386 -0.4095  0.5175  0.1646
24922W        W38336   5.295   3.502   0.034  0.0645 -0.0498  0.0367
24923W        W38337   1.181   9.857   0.606  0.0719 -0.0278  0.3310
24924W        W38338   7.844  11.588   6.053 -0.0750 -0.0361 -0.1948
24925W        W38339   8.403  10.122   4.685  0.1297  0.1732 -0.2050
24926W        W38340  10.317  13.723   3.085  0.2385 -0.0174 -0.0251
24927W        W38341   4.513  13.023  10.073 -0.0378 -0.0418 -0.0397
24928W        W38342   5.981   3.011  14.415 -0.0105  0.1829 -0.0856
24929W        W38343  10.428  11.363   4.365  0.0241  0.1989 -0.0460
24930W        W38344   1.499  11.714   6.668  0.1049  0.2655 -0.0291
24931W        W38345  12.907   0.976   5.716  0.3093  0.0083  0.2223
24932W        W38346  14.009  11.854   3.636 -0.1917 -0.0319 -0.1318
24933W        W38347  15.154  15.798  13.118 -0.0036 -0.2415 -0.0555
24934W        W38348   8.929   0.623   2.879 -0.0703 -0.0711  0.2098
24935W        W38349   3.950  16.719   2.178  0.1886 -0.1973 -0.0847
24936W        W38350  17.021   7.232  11.569  0.2814 -0.1665  0.0497
24937W        W38351  10.449   4.420  13.852  0.0749 -0.0738 -0.3568
24938W        W38352  15.283   3.272  16.369 -0.0625 -0.2663 -0.0985
24939W        W38353   1.793  10.303  14.908 -0.2464  0.0470  0.1216
24940W        W38354   6.268  12.161   2.666  0.2229  0.1058  0.0724
24941W        W38355  11.774   6.916   2.665  0.2626 -0.5475  0.4197
24942W        W38356   3.153  11.545   0.774  0.0772 -0.1970  0.2716
24943W        W38357   8.945   0.319   0.001 -0.2963  0.0282 -0.3661
24944W        W38358   8.544  17.870  14.003 -0.1184 -0.1217  0.1501
24945W        W38359   5.067   2.645  14.204  0.3174 -0.1022  0.1207
24946W        W38360   1.715  16.202   0.635 -0.1130 -0.0059 -0.0683
24947W        W38361   1.941  12.661   0.065  0.2221 -0.1907 -0.1385
24948W        W38362   9.143  14.979   0.258 -0.1650 -0.2757 -0.2394
24949W        W38363  16.884   4.560   5.149  0.0941  0.0619  0.0712
24950W        W38364  17.222   4.276   2.546  0.0692 -0.0263  0.2314
24951W        W38365  14.957  12.707  14.216  0.1298  0.0940  0.1389
24952W        W38366  13.563  16.625   0.438  0.2419  0.2174  0.0736
24953W        W38367   1.179  15.782  14.429 -0.1198  0.0200 -0.0998
24954W        W38368   1.608  10.240   2.624 -0.1363 -0.1657  0.3142
24955W        W38369   9.422   7.015  12.364  0.0700 -0.0288  0.4454
24956W        W38370  10.202   6.617   3.602  0.1093  0.1283  0.0550
24957W        W38371   0.829   8.480   4.595 -0.2081  0.2531 -0.0754
24958W        W38372   5.222  11.226   1.221  0.1577 -0.0855 -0.0332
24959W        W38373   4.926   6.236   6.541  0.0677 -0.0648  0.0180
24960W        W38374  14.651   7.415  11.220 -0.0691 -0.0056 -0.0122
24961W        W38375  10.381   6.395  10.654  0.2492 -0.0192  0.1947
24962W        W38376  11.664  12.449  14.391  0.3073 -0.4441  0.2164
24963W        W38377   7.945  16.073  13.018  0.1909 -0.0447 -0.0538
24964W        W38378   0.699  18.132   1.433 -0.0198 -0.2191  0.2361
24965W        W38379  11.177  16.721   3.572 -0.0805  0.1274 -0.2912
24966W        W38380   0.619  15.608  15.235  0.2576  0.5365 -0.2605
24967W        W38381   8.520   5.034   4.870 -0.1967 -0.0264  0.3229
24968W        W38382   4.983  12.164   4.063 -0.3591  0.3414 -0.0471
24969W        W38383   4.447   0.409   2.851  0.1921  0.2175 -0.1703
24970W        W38384   7.572  10.847   1.238  0.0306  0.0521 -0.2152
24971W        W38385  11.356   9.811   0.290 -0.0188  0.1687  0.0294
24972W        W38386  15.211   6.434   4.041 -0.0744 -0.1763  0.0895
24973W        W38387   9.304   0.543  11.961 -0.2593 -0.1111  0.0878
24974W        W38388   9.865  16.866   1.023 -0.2791 -0.2357  0.3087
24975W        W38389   8.433  11.952  11.342  0.0298  0.1380 -0.1786
24976W        W38390   7.724   8.363   2.254  0.0712  0.1494 -0.0483
24977W        W38391  18.047   0.815   2.395 -0.2878 -0.1286  0.2906
24978W        W38392   0.161   7.091  14.602 -0.0387  0.0107  0.2090
24979W        W38393   4.446   9.516  12.067  0.1821  0.1343  0.1746
24980W        W38394  14.040  14.072  15.424  0.0015  0.0602 -0.0003
24981W        W38395   5.123  10.248   2.530  0.0378  0.0590  0.2673
24982W        W38396  15.650   5.528  11.359  0.1774  0.2376 -0.3466
24983W        W38397   8.743   4.122   0.516  0.0462 -0.4049  0.0791
24984W        W38398   3.548   7.839  13.483  0.0333 -0.2328 -0.2779
24985W        W38399   2.927   0.289   5.619  0.2432  0.1600  0.2131
24986W        W38400   1.648   2.168   2.724  0.2081  0.0127  0.0784
24987W        W38401   3.322  13.947  12.207  0.1850  0.1410 -0.0269
24988W        W38402  12.986   9.198  14.179 -0.0629  0.1111 -0.0686
24989W        W38403   4.372   1.183   1.155  0.0587 -0.0725  0.0691
24990W        W38404  12.444   1.965  16.252 -0.3913 -0.0467 -0.0012
24991W        W38405   3.300  10.340   5.460  0.2548 -0.1515  0.3292
24992W        W38406  15.059  10.492   0.627 -0.0237  0.0130 -0.0760
24993W        W38407  16.673   5.391   2.948 -0.0136 -0.1738 -0.0803
24994W        W38408  13.716  13.058   1.735  0.1666 -0.0680  0.0750
24995W        W38409  17.874  14.313   2.941  0.3385  0.0032 -0.2432
24996W        W38410  14.669  15.542   0.294 -0.1531  0.0795  0.1980
24997W        W38411   4.098  17.006   1.192  0.2662 -0.1153 -0.0387
24998W        W38412  17.699   7.369   2.339  0.0740 -0.1667  0.1220
24999W        W38413  13.163  16.258  14.898  0.0567  0.0619  0.0295
25000W        W38414  17.834  16.571  11.351  0.3706  0.3013  0.0879
25001W        W38415  12.111  10.311  11.378  0.2575  0.2730 -0.0736
25002W        W38416  17.854   3.093  16.376  0.1260 -0.2041  0.2717
25003W        W38417  16.838  12.160   3.345 -0.4443  0.0708  0.2750
25004W        W38418   0.512   3.407  10.813 -0.0549  0.3681  0.4190
25005W        W38419   7.679   7.536   4.175  0.1180 -0.1350  0.2699
25006W        W38420  11.725  12.577  12.093  0.1447 -0.1546 -0.0408
25007W        W38421   2.064   7.668   0.857  0.2295  0.3027 -0.4315
25008W        W38422   2.501   2.616  13.026 -0.2178 -0.0300  0.0027
25009W        W38423  13.127   3.600  13.655  0.0007 -0.0305  0.1385
25010W        W38424   3.100   2.651  12.698 -0.1251  0.0654 -0.2018
25011W        W38425   6.870   9.756  12.787  0.0534  0.1590 -0.0456
25012W        W38426  18.112  12.261  15.354  0.0833  0.1085  0.1294
25013W        W38427   3.275   2.237  15.204 -0.1143  0.0821 -0.1517
25014W        W38428   9.921   8.755  15.255 -0.2779  0.0395  0.2072
25015W        W38429   4.105  15.478   1.184  0.0306  0.0169 -0.3190
25016W        W38430  14.788   2.961   3.659 -0.1338 -0.0955  0.1367
25017W        W38431  17.887   4.446   3.908  0.0811  0.0090 -0.0228
25018W        W38432   0.528  17.689   0.787 -0.1095 -0.1965 -0.3167
25019W        W38433   2.909   6.483   3.918 -0.1222  0.0658 -0.2007
25020W        W38434   0.805   8.201  13.658  0.1070  0.4527  0.2225
25021W        W38435  14.347  14.475   2.734 -0.1777 -0.0895  0.0535
25022W        W38436   0.167  16.197  14.702  0.0827 -0.1710 -0.1600
25023W        W38437   4.402   8.152  16.277 -0.0267 -0.0052 -0.2068
25024W        W38438   4.436   3.042  15.393 -0.1324 -0.2733  0.0631
25025W        W38439  12.674   0.154   0.816  0.2740  0.1011  0.4738
25026W        W38440  17.414   8.938  12.807 -0.0013  0.0702  0.0163
25027W        W38441  13.555  13.658   4.024  0.2017 -0.1405  0.0037
25028W        W38442   1.884  17.269  14.820 -0.3368  0.0830  0.0970
25029W        W38443   9.321   5.786  15.628 -0.0269 -0.1201  0.1085
25030W        W38444   8.314  13.976   0.175 -0.0216  0.3087 -0.0291
25031W        W38445  12.791   9.995  15.120 -0.2785 -0.1761  0.2376
25032W        W38446  11.200   3.827   0.828 -0.0967  0.0292  0.1705
25033W        W38447   4.741   9.113  12.921 -0.1155  0.0302 -0.0177
25034W        W38448  17.037   6.176  11.576  0.1411  0.2796 -0.1044
25035W        W38449   9.826  18.222  10.763 -0.1614 -0.2125  0.2393
25036W        W38450  10.878  14.564  16.372 -0.0413  0.0296 -0.0474
25037W        W38451  14.308   4.326   3.281 -0.0097 -0.0818  0.1739
25038W        W38452   7.297   5.973   3.200 -0.0828  0.2263 -0.0616
25039W        W38453   8.787  12.079  11.693  0.0277 -0.2077 -0.2055
25040W        W38454   1.495  14.075  12.784  0.0379 -0.0086 -0.2172
25041W        W38455  14.329  18.067  15.815 -0.1632 -0.1747  0.1410
25042W        W38456   0.535  10.324   4.257  0.0584 -0.0518  0.2513
25043W        W38457  17.883  13.123  15.285  0.0730 -0.3077 -0.3274
25044W        W38458  13.066  14.380   0.844 -0.0046  0.0712  0.1540
25045W        W38459   0.809  13.495  10.623 -0.1087  0.2328 -0.2979
25046W        W38460   3.168   6.744   3.562 -0.0613 -0.3431  0.0997
25047W        W38461  17.097  14.340  14.427  0.2218  0.0691 -0.0086
25048W        W38462  11.118   3.168   4.479 -0.0694  0.0108  0.0632
25049W        W38463   7.378  10.412   4.841  0.0123 -0.0578 -0.3288
25050W        W38464  13.503   4.481  15.922  0.0276  0.3611 -0.0040
25051W        W38465  16.559  11.785  12.087 -0.2619 -0.2841 -0.1518
25052W        W38466   5.855  12.274   4.830  0.0941 -0.1260  0.0360
25053W        W38467  12.926   0.651   2.913  0.0422  0.4560  0.0831
25054W        W38468  12.646  17.933   2.016  0.0782  0.1265  0.0936
25055W        W38469  14.113   6.709   0.225 -0.0930 -0.5321  0.0492
25056W        W38470  17.889  16.325  13.379 -0.0985  0.0467 -0.0812
25057W        W38471  13.164  17.001  11.082  0.1146 -0.1944  0.1389
25058W        W38472  11.557   0.021  10.611  0.2090  0.0476  0.1182
25059W        W38473  15.720   3.339   3.914  0.0566  0.1378  0.0370
25060W        W38474   4.537  10.505  13.475  0.3467 -0.2298  0.2739
25061W        W38475  13.092  14.481  13.634 -0.0457  0.1234  0.1155
25062W        W38476   8.777   5.819  10.925  0.0550  0.1768  0.2291
25063W        W38477   2.364   1.481   1.739  0.2137 -0.2251  0.1822
25064W        W38478  13.926   0.689   3.929 -0.3359 -0.2300  0.1766
25065W        W38479  14.737   5.966  11.273 -0.0493 -0.1091 -0.0339
25066W        W38480  13.170  15.961   4.641  0.2255  0.0083  0.2235
25067W        W38481   9.752   5.068  15.264  0.0166 -0.2642 -0.0698
25068W        W38482  13.680  13.068  11.419  0.2774 -0.2138 -0.0180
25069W        W38483  16.680  14.485  13.812 -0.2168  0.1859  0.2368
25070W        W38484  14.879  12.275  11.258 -0.0895 -0.0421  0.0474
25071W        W38485   9.609   5.885   3.030  0.1319  0.1656 -0.2596
25072W        W38486  17.986   8.367  15.163  0.1985 -0.0752 -0.0991
25073W        W38487   3.757   9.108   1.756  0.0928 -0.1208 -0.3496
25074W        W38488   2.468   6.354  11.219 -0.2331 -0.1067 -0.1388
25075W        W38489  14.169   0.988  16.295 -0.1121  0.1227  0.2713
25076W        W38490   4.683   2.273   1.405 -0.1374  0.4210 -0.2189
25077W        W38491   4.508   4.540  15.594 -0.0706 -0.0378 -0.0855
25078W        W38492   8.083  16.226   4.633  0.0024  0.1072  0.0764
25079W        W38493   8.923  11.941  16.361 -0.0144  0.1416  0.1483
25080W        W38494   6.414   2.199   4.047  0.2012 -0.0532 -0.1351
25081W        W38495   7.435   2.574  16.113  0.1794 -0.0194  0.0180
25082W        W38496   1.410   8.460   4.769  0.0452 -0.2504  0.0263
25083W        W38497   7.992   7.960  12.286  0.0150  0.2783  0.0023
25084W        W38498  14.717  17.201   0.228  0.3004  0.0192 -0.0805
25085W        W38499   7.011  12.080  11.735  0.0858 -0.2219  0.2998
25086W        W38500   4.045   3.172  15.079  0.1319 -0.1127  0.2017
25087W        W38501  11.538  14.337   0.871 -0.3152  0.0217 -0.1210
25088W        W38502   3.701   4.814  12.711 -0.0713  0.1539 -0.1230
25089W        W38503  13.290   2.288  12.745 -0.1235  0.1951 -0.0066
25090W        W38504  10.090   2.501  15.009 -0.2318  0.1124 -0.0628
25091W        W38505   3.917  11.457   0.829 -0.1344 -0.0892  0.1449
25092W        W38506   9.615   0.204  11.818  0.0840  0.1695  0.1168
25093W        W38507  14.056   4.314  15.205 -0.0652 -0.1266  0.1126
25094W        W38508   2.186   9.832   1.485  0.1522 -0.1506  0.1767
25095W        W38509  10.417  13.435  15.573  0.2229 -0.1731  0.0452
25096W        W38510   9.927   8.645  10.934  0.1023  0.1269  0.3256
25097W        W38511  13.068  10.946  10.717 -0.1251 -0.1912 -0.0661
25098W        W38512   2.274   6.828   3.498  0.0347  0.1261 -0.0209
25099W        W38513  10.291   1.970  12.777  0.2558 -0.0236  0.1410
25100W        W38514   8.415   6.845   4.282 -0.0618 -0.2510 -0.0471
25101W        W38515  10.838   8.636   2.619 -0.1207 -0.0948  0.1934
25102W        W38516   2.977  16.887   3.276  0.0508  0.2987 -0.2304
25103W        W38517  16.828  17.479  11.531  0.0471  0.0466 -0.0697
25104W        W38518  11.506  13.660  10.750 -0.0937  0.1190 -0.3668
25105W        W38519   5.154  15.565   1.505 -0.2782  0.2434  0.2200
25106W        W38520  16.398   7.203   5.149  0.2016 -0.0870  0.0433
25107W        W38521   0.477   4.115  15.152 -0.0094 -0.2214 -0.3109
25108W        W38522   3.906   4.356   3.430 -0.1823 -0.0992 -0.2218
25109W        W38523  10.892  15.251  14.289 -0.1350 -0.2493  0.1290
25110W        W38524  10.883  16.112  11.596 -0.3815 -0.1803 -0.0257
25111W        W38525  16.157  15.306  12.151 -0.2874 -0.1756 -0.0595
25112W        W38526   3.267   2.476   6.764 -0.0136 -0.4120  0.1082
25113W        W38527   9.946   5.453   1.633  0.1319  0.0250  0.2335
25114W        W38528  15.755  14.245   1.873  0.1728 -0.0580  0.2522
25115W        W38529   9.722   5.953  11.612  0.5294  0.0959  0.3321
25116W        W38530  15.258   8.974  12.842  0.1295  0.2488 -0.2439
25117W        W38531  13.789   4.904  15.957  0.1639 -0.0451  0.1357
25118W        W38532  10.210  13.757   1.038  0.1108 -0.2937  0.0977
25119W        W38533   4.074  12.714   2.628  0.0045  0.0688 -0.0131
25120W        W38534   2.032  14.815  13.159 -0.1369  0.0567  0.4558
25121W        W38535  11.403  12.191  13.983 -0.0666  0.3101 -0.0258
25122W        W38536   9.250   7.802   2.502 -0.0748 -0.4078 -0.5428
25123W        W38537  16.595  17.529  12.881  0.2070  0.0951  0.0113
25124W        W38538  13.285   2.577   4.441  0.0530 -0.1067  0.0711
25125W        W38539   9.077  15.525   0.440 -0.0103 -0.0362  0.1718
25126W        W38540   4.894  16.506  14.273  0.0580 -0.0991 -0.1222
25127W        W38541  17.258  11.878   5.239 -0.1939  0.2558 -0.1951
25128W        W38542   3.066   9.275   5.177  0.3325 -0.1319  0.0530
25129W        W38543  13.859   5.067   5.935  0.0891 -0.4223 -0.1530
25130W        W38544  17.342   6.914   2.369 -0.3769  0.0980  0.0838
25131W        W38545   7.230   0.072  14.493 -0.2338 -0.2102  0.3012
25132W        W38546  16.754  15.726  15.860 -0.3331  0.0727  0.0587
25133W        W38547   1.247   4.421   4.906  0.1452  0.2604 -0.0110
25134W        W38548   2.744  15.544   0.627  0.1255  0.0577 -0.0753
25135W        W38549  14.505   1.596   0.790  0.0945 -0.0677 -0.0088
25136W        W38550  17.136   8.320   2.549 -0.2115  0.4578 -0.1157
25137W        W38551   6.851   9.998  12.072 -0.3400  0.1294  0.2503
25138W        W38552  14.743   6.837   2.876 -0.0618  0.3438  0.1550
25139W        W38553  16.794   8.907   6.097  0.0564  0.0006  0.1377
25140W        W38554  16.367   8.544   0.995 -0.5540  0.1752  0.1734
25141W        W38555   6.404  13.545   3.260 -0.3542  0.1685  0.0299
25142W        W38556   6.426  10.162  13.692 -0.0849 -0.0014 -0.1482
25143W        W38557  12.282   4.384   3.902 -0.2371 -0.2998 -0.0828
25144W        W38558   0.336  18.035   1.796  0.0789 -0.1015 -0.0377
25145W        W38559   6.574   1.264  15.154  0.2310 -0.2430 -0.1618
25146W        W38560  14.311  14.866  14.681 -0.2287 -0.0541 -0.2256
25147W        W38561  18.217  11.830   4.623  0.1757 -0.0254  0.0472
25148W        W38562  11.519   6.680  12.056 -0.0361  0.1971 -0.3316
25149W        W38563  18.044  13.074   1.519  0.2490  0.3919 -0.0779
25150W        W38564  16.395  17.569   2.879  0.1646 -0.1730  0.0373
25151W        W38565  16.539   9.220  15.062 -0.2271  0.1962  0.0360
25152W        W38566  17.095  10.253   0.325  0.2164 -0.1223  0.0264
25153W        W38567   5.823   7.643  10.610  0.0460  0.0782 -0.5494
25154W        W38568  17.214  12.751  10.713  0.2127 -0.1762 -0.0509
25155W        W38569   5.683   2.406   1.533 -0.0171 -0.1383  0.1436
25156W        W38570  10.837  11.297   1.890 -0.3978 -0.3298  0.0945
25157W        W38571   6.047  14.191   2.001  0.2961 -0.1265 -0.0461
25158W        W38572   5.768  13.002   1.325  0.2123  0.2524  0.1118
25159W        W38573  11.359  17.428  13.493  0.0622 -0.2445 -0.0480
25160W        W38574   0.459  15.677  13.932 -0.3481 -0.0289 -0.0291
25161W        W38575  15.056  17.764   1.755  0.0926  0.2472  0.0406
25162W        W38576   3.741   3.094  11.846 -0.2034  0.0387  0.2305
25163W        W38577   0.861   2.941  14.943  0.1518  0.2992  0.1224
25164W        W38578   1.754   6.020   2.695  0.1052 -0.1667 -0.1338
25165W        W38579   2.528   2.739  14.496  0.0664 -0.0912 -0.1046
25166W        W38580   9.730   6.989   0.894 -0.0315  0.1327 -0.0176
25167W        W38581  13.625   1.660  15.415  0.2265  0.0546 -0.0461
25168W        W38582   8.539  12.049  13.982 -0.0053 -0.0008  0.1249
25169W        W38583  15.454  13.319   2.107  0.1003 -0.1077 -0.1033
25170W        W38584  15.915   2.858  16.099  0.3256  0.1805 -0.2872
25171W        W38585   9.592  13.134  13.431  0.1583 -0.1549 -0.1979
25172W        W38586   5.972   6.653  14.920  0.2837  0.0339 -0.3530
25173W        W38587   4.232   1.253   3.235 -0.0845 -0.0860 -0.0389
25174W        W38588  16.080   8.251   1.775 -0.2287  0.0939  0.0138
25175W        W38589  12.793  16.997  16.488 -0.2254 -0.0122  0.0910
25176W        W38590  13.330  10.769   4.261 -0.0076  0.3732  0.3475
25177W        W38591  14.458   2.864  12.112 -0.1007  0.3156  0.1318
25178W        W38592  14.575  13.900  13.085 -0.0773  0.1279  0.3864
25179W        W38593  16.432   3.531   5.516  0.1590 -0.2014  0.0874
25180W        W38594   4.788   4.921   2.347  0.0070  0.0737  0.1436
25181W        W38595  17.612   9.205   2.283  0.0654 -0.0853  0.0808
25182W        W38596  16.028   1.592   4.272 -0.1441 -0.0082  0.0153
25183W        W38597   1.012   5.262   6.612 -0.1125  0.0944 -0.2104
25184W        W38598   4.495   6.091  16.265  0.0405 -0.2169 -0.2047
25185W        W38599  16.031  17.231  14.895 -0.0842  0.1535 -0.3222
25186W        W38600   5.961   8.702   5.886  0.0042 -0.1624  0.0645
25187W        W38601   0.821  11.311  13.420 -0.1765  0.1085  0.1374
25188W        W38602   2.269   8.169   0.399 -0.1513  0.0754 -0.2127
25189W        W38603  13.835   9.631   2.626 -0.0137 -0.0520 -0.0111
25190W        W38604  13.497  15.721  14.173  0.0652 -0.0512 -0.0181
25191W        W38605   0.296   0.411   6.086 -0.0539  0.0147  0.0892
25192W        W38606   6.549  12.435  15.195  0.1194 -0.0825  0.2253
25193W        W38607   9.173  16.271   2.314  0.0664  0.4235 -0.0260
25194W        W38608   1.473   0.900  10.968  0.1057 -0.1055 -0.3254
25195W        W38609   4.788   4.054  15.783  0.0129 -0.3931  0.0634
25196W        W38610   1.202   0.118   4.437  0.1131  0.1000  0.0660
25197W        W38611  10.059   1.869  12.309 -0.3169  0.2195 -0.3581
25198W        W38612   1.011  17.523  13.331 -0.1063  0.2772 -0.0631
25199W        W38613   3.557   4.332   1.805 -0.2217 -0.0400 -0.1222
25200W        W38614  17.282  17.838  13.716  0.0746  0.1817 -0.1829
25201W        W38615  10.660   2.880   3.524  0.0563 -0.2250 -0.1652
25202W        W38616   1.549   4.586   3.770 -0.2559 -0.1238  0.1869
25203W        W38617  16.818   1.522  13.302  0.1098 -0.0245 -0.1819
25204W        W38618   6.742  17.465   2.504 -0.0385  0.0476  0.1009
25205W        W38619   0.086   8.663  14.933 -0.0035 -0.0844 -0.3116
25206W        W38620   0.893  16.026   6.033 -0.2365 -0.2854  0.2071
25207W        W38621   4.372   6.969   2.184 -0.3077  0.2296  0.0199
25208W        W38622   2.225   6.323   3.619  0.0017  0.0478 -0.4780
25209W        W38623   0.476  12.465   1.474  0.0090  0.0954  0.0482
25210W        W38624   4.817  14.055   4.912 -0.2320  0.0265 -0.1067
25211W        W38625  14.994   8.232  10.733 -0.3122 -0.1742 -0.0049
25212W        W38626   8.416   4.446   4.824  0.2116 -0.0392  0.0438
25213W        W38627  16.740  17.930   6.501 -0.0476  0.2928 -0.0470
25214W        W38628   3.816  10.963   1.025  0.1758 -0.1273  0.0080
25215W        W38629  14.258   6.091   1.691 -0.2823 -0.0785  0.0249
25216W        W38630   5.551   1.491  16.247  0.0960  0.3551  0.1298
25217W        W38631   6.918  13.108  11.308 -0.0809 -0.1830  0.1298
25218W        W38632  11.692  16.611   5.335  0.0422 -0.0407 -0.1879
25219W        W38633  16.575   2.688   0.844  0.1109  0.2089 -0.1988
25220W        W38634  13.877   3.771  16.356  0.1019  0.0050  0.0819
25221W        W38635  12.791   4.483   3.847  0.0747  0.2064 -0.0228
25222W        W38636   2.556   2.424   5.051 -0.1789 -0.0791  0.1230
25223W        W38637   4.819  15.745   1.872 -0.2629  0.1719 -0.4281
25224W        W38638   1.017   4.106   0.811 -0.0140  0.0541 -0.0318
25225W        W38639   3.204  11.580   4.502 -0.0326  0.1741 -0.1387
25226W        W38640   7.274   5.118  15.890 -0.0270  0.2043 -0.0810
25227W        W38641   4.073  17.294  15.115 -0.1903 -0.1213 -0.1494
25228W        W38642   4.740   5.372   2.541 -0.0362  0.0823 -0.0809
25229W        W38643  16.146   8.858   5.068  0.1521 -0.3651 -0.0561
25230W        W38644  13.706   8.724   2.517 -0.0364  0.1900 -0.0261
25231W        W38645   4.300  13.861   4.935 -0.1124 -0.2683 -0.0159
25232W        W38646   6.043   6.380   6.411 -0.0846  0.1580 -0.0207
25233W        W38647   5.891   1.778   4.035 -0.3786  0.1723 -0.3459
25234W        W38648   4.766   0.363   0.749  0.0850 -0.0130  0.0314
25235W        W38649  14.138  13.444   3.261  0.2449  0.0021 -0.0508
25236W        W38650  16.381   9.480   0.141  0.0434 -0.1387  0.0373
25237W        W38651  17.666   1.856   2.659  0.3235  0.0306 -0.3023
25238W        W38652   4.695  13.992   1.513  0.2770 -0.0528 -0.2135
25239W        W38653  17.920  17.368  12.915 -0.1298  0.2234 -0.0373
25240W        W38654   5.129   1.773  13.865  0.1422  0.0751 -0.3377
25241W        W38655   9.280   8.353  14.959  0.1132  0.1770  0.3101
25242W        W38656   9.090   4.819   1.497 -0.1412  0.3311  0.0302
25243W        W38657  17.835   0.093   0.494 -0.0520  0.0341 -0.1288
25244W        W38658   0.860  16.089   4.593 -0.2323  0.0004 -0.1340
25245W        W38659   1.263   2.512  13.504 -0.0622 -0.0219  0.0241
25246W        W38660  13.860   1.227  13.604  0.2500 -0.4106  0.0957
25247W        W38661   7.038  15.258  14.660  0.1472 -0.1739  0.1979
25248W        W38662   9.931   7.017   3.246  0.1160  0.2210  0.0433
25249W        W38663   8.980  14.823  14.665 -0.0785 -0.0220  0.0300
25250W        W38664  17.992  13.990   2.546  0.0931 -0.1452  0.1722
25251W        W38665  17.881   5.351  11.923 -0.0884 -0.0189  0.0618
25252W        W38666   2.696  12.341   3.284  0.0963  0.0650 -0.1888
25253W        W38667   8.822   8.540  15.086 -0.2929 -0.1572 -0.1949
25254W        W38668   8.118   6.416  14.842  0.1319 -0.1083  0.0464
25255W        W38669  16.967   4.043   3.398 -0.2628 -0.0421  0.0076
25256W        W38670  15.034   0.944  15.279  0.2064  0.2125 -0.1516
25257W        W38671  14.196  14.955  13.412 -0.0224 -0.1237 -0.0470
25258W        W38672  11.227   4.048  12.061  0.1689 -0.2037  0.0027
25259W        W38673   9.364   4.660   2.973  0.0314  0.1339  0.0238
25260W        W38674  16.472  17.876  12.230  0.2093  0.0394 -0.1432
25261W        W38675  14.440  10.460   0.744 -0.0437 -0.0043 -0.2144
25262W        W38676  10.871  14.315   3.304  0.0231 -0.2208 -0.2244
25263W        W38677   6.635   1.703  15.552  0.0831 -0.0521  0.0249
25264W        W38678  11.357   8.282  11.938 -0.1316  0.0650  0.1541
25265W        W38679  10.033  14.613  12.646  0.2078  0.0197  0.2453
25266W        W38680   1.345  10.062   2.206  0.1917 -0.0170  0.0528
25267W        W38681  14.034   6.420  12.629 -0.1346 -0.1066  0.1292
25268W        W38682   9.779   1.089   0.365  0.1192 -0.2169 -0.0101
25269W        W38683  12.938   8.308   4.763  0.1416 -0.2182 -0.1996
25270W        W38684  13.719   9.573  13.046 -0.2643  0.0060  0.2028
25271W        W38685   1.484  15.721  14.885  0.1800 -0.2054  0.3643
25272W        W38686   5.853   5.788   0.357 -0.0935 -0.3036  0.1561
25273W        W38687   9.851  10.648  10.861 -0.0379  0.0593  0.3359
25274W        W38688  15.732   4.049  14.457  0.2075 -0.0929  0.0947
25275W        W38689   8.463  14.250  14.020 -0.1770  0.1132  0.0008
25276W        W38690   6.646  11.952   4.844 -0.3972  0.2463  0.2013
25277W        W38691   3.457   1.695  11.856 -0.1101 -0.2336 -0.3008
25278W        W38692  17.304  12.672  11.627  0.1473 -0.0725 -0.2069
25279W        W38693  12.915  14.803  14.831  0.2394  0.1750 -0.1377
25280W        W38694   8.895  13.089  12.137  0.4183  0.0318 -0.0231
25281W        W38695   0.865   4.533   3.153  0.0434  0.0701  0.1842
25282W        W38696  15.120  17.125  15.146 -0.2257 -0.0058  0.0124
25283W        W38697  17.928   4.697  15.328  0.1035 -0.4448  0.3419
25284W        W38698  12.300  16.160   3.752 -0.1282 -0.1373 -0.1335
25285W        W38699   4.780   2.469  13.023  0.0794  0.1775  0.1580
25286W        W38700   4.064   6.601   2.248 -0.0162  0.2619 -0.1263
25287W        W38701   1.617   0.655  11.462  0.1908  0.1378 -0.0826
25288W        W38702   0.497   4.807  12.145 -0.0706  0.0316  0.1721
25289W        W38703  14.357  15.019  16.516 -0.1144 -0.0643 -0.1803
25290W        W38704   7.321  12.281  15.438  0.1551  0.3342  0.1316
25291W        W38705   3.719  10.095   1.949 -0.2177  0.0824 -0.0803
25292W        W38706   4.745  16.679  11.843 -0.1373 -0.1135  0.1811
25293W        W38707  12.929  11.344   5.917  0.0300 -0.2866  0.1292
25294W        W38708  10.583  17.598  11.805  0.3147  0.1217  0.0859
25295W        W38709  13.643  14.475  14.623 -0.0454  0.6521 -0.1978
25296W        W38710   3.606  11.192   5.717 -0.0134  0.1556 -0.3021
25297W        W38711   3.813  16.680   0.392 -0.0905 -0.1257 -0.3034
25298W        W38712   0.254   0.171   5.123 -0.0413  0.0623  0.1613
25299W        W38713  12.867   6.288  12.822 -0.2098  0.1057  0.0685
25300W        W38714   2.975  16.590  13.512 -0.1780 -0.1147 -0.0514
25301W        W38715   4.277   9.832   5.327 -0.0078 -0.0513  0.0531
25302W        W38716  14.421   0.720  12.059 -0.0756 -0.0978 -0.2545
25303W        W38717   6.272   5.909  16.034 -0.0248  0.0152  0.2211
25304W        W38718  17.449   5.150  15.214  0.2086  0.1293 -0.0814
25305W        W38719  17.577  10.241   2.405  0.1344 -0.1893 -0.2174
25306W        W38720   7.634   6.421   6.000 -0.2097  0.2436  0.0726
25307W        W38721   4.776  16.929   9.657 -0.0464  0.0113  0.0962
25308W        W38722   3.322  14.422   3.728 -0.0146  0.3276 -0.2508
25309W        W38723   3.157  17.050  12.566 -0.4368 -0.2445 -0.4615
25310W        W38724   2.616   3.890   2.496  0.0199  0.0959 -0.3589
25311W        W38725   0.280   1.084   2.340  0.0085 -0.2516  0.1406
25312W        W38726   2.758  14.378  12.451 -0.2190  0.2412 -0.1581
25313W        W38727  17.163   6.069   3.589  0.0118 -0.1119 -0.2714
25314W        W38728   8.760   3.458   3.756  0.0493 -0.1277 -0.1370
25315W        W38729   0.994  15.054   3.447 -0.0177 -0.1194 -0.2844
25316W        W38730   9.251   5.735  10.528  0.0278 -0.3278 -0.1283
25317W        W38731   6.549   7.209   1.895 -0.2448 -0.1733  0.2359
25318W        W38732   1.659  15.278  15.067 -0.3555  0.0282  0.3375
25319W        W38733  11.792  12.333   1.975 -0.0471  0.1015  0.0896
25320W        W38734  12.274  10.943  10.917  0.2753  0.0293  0.0166
25321W        W38735   9.712   7.564   2.398  0.1232 -0.1682  0.0093
25322W        W38736   4.494  12.215  11.613 -0.1167 -0.0755  0.0262
25323W        W38737   7.878   7.888   3.429  0.0707 -0.2988 -0.1191
25324W        W38738   5.178   1.320   3.664  0.3632  0.0949  0.2029
25325W        W38739   5.647   4.245   6.118  0.2380  0.1407 -0.1142
25326W        W38740   4.366  16.895  12.069 -0.1508  0.0483  0.0104
25327W        W38741   4.685   8.649   1.874  0.0183  0.0940 -0.2278
25328W        W38742  15.481   7.441  11.684 -0.2713 -0.1142 -0.0585
25329W        W38743  10.413   8.729  15.050  0.1539 -0.0916 -0.0952
25330W        W38744  17.671  10.954   3.570 -0.0066  0.0748 -0.2218
25331W        W38745   3.419   8.324  16.496 -0.1516  0.0183  0.2960
25332W        W38746   3.216   8.045  11.951 -0.3975  0.3038  0.0445
25333W        W38747  10.818   0.371   4.793  0.0517  0.2788  0.3005
25334W        W38748   4.818   6.422   5.697 -0.0355 -0.2490  0.2382
25335W        W38749   7.728   0.049  10.972  0.1185 -0.0307  0.1718
25336W        W38750   2.596   1.799  11.598  0.0290  0.2064  0.0997
25337W        W38751   7.559   4.448  16.506  0.0486 -0.2526 -0.0189
25338W        W38752   6.927  13.321   3.983  0.2786 -0.0886 -0.0405
25339W        W38753   9.058   1.731  10.952 -0.1073  0.2894 -0.1521
25340W        W38754   8.695   4.263  15.392  0.0786  0.1845  0.2202
25341W        W38755   5.006   4.560  15.592 -0.0249 -0.0381 -0.0496
25342W        W38756  11.619   3.909   4.086  0.0638  0.1748  0.0203
25343W        W38757  12.535  10.748   4.193  0.2463 -0.0883  0.0815
25344W        W38758   4.867  10.897  15.965  0.2094 -0.2249  0.0339
25345W        W38759  17.569   2.156   3.449  0.0046 -0.1477 -0.0000
25346W        W38760   4.317   6.479  10.797 -0.0969 -0.0022  0.3228
25347W        W38761   8.268  10.282  11.197  0.3365 -0.1624 -0.1274
25348W        W38762   2.026  11.214   5.145 -0.0702  0.0409 -0.0231
25349W        W38763   9.869   6.345   5.378 -0.2391  0.0476 -0.0614
25350W        W38764   6.310   7.093   3.120 -0.2493  0.1663  0.2360
25351W        W38765  12.936   5.625   4.766 -0.1279 -0.0226 -0.0361
25352W        W38766  14.414   0.761   0.787 -0.2073 -0.0434 -0.1294
25353W        W38767  11.269  14.178  12.200  0.0397  0.1587 -0.0558
25354W        W38768  15.992   2.678   4.758  0.1212 -0.1437 -0.3850
25355W        W38769   9.614   4.855  12.588 -0.3203 -0.1621  0.1082
25356W        W38770  11.882   9.337  11.575 -0.0410 -0.1642  0.0355
25357W        W38771  10.071   4.691   2.854 -0.1764  0.0340  0.0527
25358W        W38772   6.206  11.804   4.707  0.1073 -0.2707 -0.0959
25359W        W38773   1.501  10.816   1.531 -0.0134  0.0006  0.0238
25360W        W38774   4.592  12.471  15.927 -0.1582  0.1742 -0.0674
25361W        W38775  15.815   3.833  14.917 -0.0821  0.1915 -0.1738
25362W        W38776   8.145   4.499   4.167 -0.0677 -0.2543  0.2098
25363W        W38777   0.506   5.551   4.572 -0.0016 -0.2489 -0.1101
25364W        W38778   5.022  15.180  14.037 -0.0283  0.1046 -0.2398
25365W        W38779   6.692   2.780  16.404  0.1761  0.2591 -0.0408
25366W        W38780  10.486   6.196   4.140 -0.0840 -0.3267  0.0926
25367W        W38781   5.190  14.655   3.265  0.1128  0.2021  0.0026
25368W        W38782   9.060  17.062  13.058  0.0144 -0.1009  0.1240
25369W        W38783   7.089   8.145  12.252 -0.2775 -0.0957 -0.1245
25370W        W38784   8.501   9.062  16.049 -0.0974 -0.2260 -0.0271
25371W        W38785  16.979   7.618   1.746  0.0406  0.0986  0.1298
25372W        W38786  12.529   3.995  15.591  0.0116  0.2890 -0.1251
25373W        W38787   2.242   9.466  10.871 -0.0557  0.0349 -0.2119
25374W        W38788  15.655  17.956  13.676  0.2325  0.0171  0.0707
25375W        W38789  16.472  16.737   0.788 -0.2331 -0.0595  0.0279
25376W        W38790  10.790  17.086   2.165 -0.2523  0.1440 -0.1681
25377W        W38791   6.400  14.732   1.256  0.0669  0.0553  0.0308
25378W        W38792   7.193   7.698   5.375 -0.2990  0.4395  0.0342
25379W        W38793  12.198  16.444  15.978 -0.1274 -0.0975  0.1259
25380W        W38794   3.003  13.792  14.029  0.0471  0.1311 -0.0514
25381W        W38795  12.632  15.297   1.053  0.2111  0.1110  0.0482
25382W        W38796   7.525  13.273  16.051 -0.1846  0.0543  0.0252
25383W        W38797  11.599  14.148  10.586 -0.0111  0.1853  0.2803
25384W        W38798  10.187  12.217   4.269 -0.3659  0.2011  0.0927
25385W        W38799  16.237  13.048   3.533  0.2094  0.0657  0.0962
25386W        W38800   6.515   9.261   2.621  0.0873  0.0420  0.3962
25387W        W38801   9.545   8.430   1.180  0.2326 -0.0468  0.0038
25388W        W38802   5.880  16.966  15.010  0.1486  0.1902  0.0406
25389W        W38803  13.687  17.348   2.740 -0.1476 -0.0776 -0.0165
25390W        W38804  15.318   9.670   3.091  0.0297  0.1049 -0.1044
25391W        W38805   3.486   8.113  10.541  0.3084 -0.1347  0.1471
25392W        W38806  18.122  12.568   5.385  0.1487 -0.0902  0.1129
25393W        W38807  14.432   9.303   1.566 -0.0275 -0.3562  0.3593
25394W        W38808  17.298   6.344  12.813 -0.0617 -0.1915  0.2428
25395W        W38809  11.124  10.018  11.159 -0.0649 -0.1546 -0.0645
25396W        W38810   4.050   2.603  16.332  0.2710  0.1436  0.1653
25397W        W38811   2.958  15.943  11.830  0.0441 -0.2482 -0.2635
25398W        W38812   9.126   7.746   1.671  0.0715 -0.3709 -0.0509
25399W        W38813   5.288  17.799   9.906  0.2767 -0.3747  0.2802
25400W        W38814   9.764   2.155  16.090 -0.1680  0.1253 -0.1962
25401W        W38815  17.027  14.689  15.458 -0.1281  0.1598 -0.2770
25402W        W38816   8.641   5.587  12.651 -0.1466  0.0042  0.0401
25403W        W38817  13.695   0.419   5.750 -0.1382  0.1114  0.1000
25404W        W38818   2.126   9.367   3.669  0.2864 -0.1228  0.0347
25405W        W38819   4.927   7.761  14.737  0.2439 -0.0481 -0.2404
25406W        W38820  18.070   9.584  14.475  0.3393 -0.1354 -0.0598
25407W        W38821   0.749  15.922   0.939 -0.1954  0.1711  0.1279
25408W        W38822  16.260  15.613   1.235 -0.3767  0.0088 -0.4276
25409W        W38823   3.568  10.251  13.663  0.0758  0.3099  0.0700
25410W        W38824   9.611  16.110  16.367  0.0878 -0.1689  0.0522
25411W        W38825  11.972   3.390   4.243  0.2173 -0.0769  0.0247
25412W        W38826  11.977   6.454  16.272  0.1539 -0.1006 -0.0887
25413W        W38827  10.470   5.921  16.066 -0.0513  0.0775 -0.0348
25414W        W38828   7.852   6.845   2.545 -0.0920 -0.0248  0.1026
25415W        W38829   6.309   8.484   6.434  0.1235 -0.0418  0.1286
25416W        W38830   1.239   7.485   4.933  0.3636 -0.1904  0.2045
25417W        W38831   4.219   7.633   0.999 -0.1573 -0.0672 -0.0231
25418W        W38832   8.828   1.712  13.997  0.0362  0.1525  0.1321
25419W        W38833  10.598   5.991   1.634 -0.0655 -0.2338 -0.0154
25420W        W38834  12.135   7.940  11.603  0.4510  0.0511  0.1728
25421W        W38835  14.298   9.908  16.422  0.1875  0.1406  0.1613
25422W        W38836   9.482  14.368   0.622 -0.0439 -0.0522 -0.0921
25423W        W38837   9.579   3.549   0.697 -0.1496 -0.0075  0.0600
25424W        W38838   6.193   8.928   5.070  0.0604 -0.0709  0.1487
25425W        W38839   8.408   9.254  14.756  0.1214 -0.1249  0.6317
25426W        W38840  16.564  15.644  11.295  0.0334  0.0953  0.1224
25427W        W38841   2.905   3.941  11.976  0.2854  0.0514 -0.0258
25428W        W38842   1.124   9.715   3.171  0.0364  0.0507  0.2113
25429W        W38843   0.615   3.931  14.758 -0.1155 -0.2709  0.2619
25430W        W38844   5.051   3.198   1.239  0.1906  0.0565 -0.1359
25431W        W38845   8.445  11.411   3.181 -0.0622 -0.1339  0.2114
25432W        W38846   1.957  17.922   4.603  0.0954  0.0827 -0.1899
25433W        W38847  18.003   9.700  13.967 -0.1574 -0.3071 -0.2617
25434W        W38848  14.131  12.198   1.093 -0.1257 -0.2661  0.2020
25435W        W38849   0.782  18.113  11.457 -0.2433  0.0631  0.0772
25436W        W38850   1.208   5.776   0.949  0.4536 -0.0569  0.2069
25437W        W38851   1.125   6.065   4.845  0.1422 -0.3878  0.0380
25438W        W38852  15.158  12.807  11.269  0.0811 -0.0637  0.2934
25439W        W38853  16.425  13.980   4.543 -0.0663 -0.1709 -0.1617
25440W        W38854   7.782  12.794  10.290 -0.0776  0.0730 -0.1411
25441W        W38855   4.459   2.859   4.119  0.3858 -0.2950 -0.0027
25442W        W38856   8.483   7.619  13.837 -0.0304 -0.1331  0.3178
25443W        W38857  10.457   2.423   5.991 -0.0721  0.3229  0.1508
25444W        W38858  12.059   9.747   5.890 -0.2410 -0.1223  0.1189
25445W        W38859   9.155   3.818   3.621 -0.3025 -0.1803 -0.4617
25446W        W38860   5.972   8.449  10.935  0.2183  0.3010  0.0866
25447W        W38861  12.085   4.335   4.361 -0.0669  0.0057  0.0428
25448W        W38862   1.750   7.931  12.968  0.0406  0.1696 -0.1198
25449W        W38863  12.136   6.158  13.413 -0.0215 -0.1101 -0.0565
25450W        W38864  12.437   6.663   4.230 -0.1454 -0.0132  0.3554
25451W        W38865  10.854  11.879   5.745  0.2624  0.0109  0.0605
25452W        W38866  14.570  12.092  14.892 -0.4105  0.2696  0.0087
25453W        W38867   8.346   6.564  10.602  0.1698 -0.0791  0.2942
25454W        W38868  10.887   6.504   6.058  0.0518  0.1691 -0.2070
25455W        W38869  17.235   5.148  15.665  0.0656 -0.0001 -0.1493
25456W        W38870  15.242  13.130  15.101  0.0134 -0.1975  0.0657
25457W        W38871   7.880  14.089  14.460  0.0802  0.2114  0.1658
25458W        W38872   9.996  10.427  13.901  0.3856 -0.0869 -0.2566
25459W        W38873  12.461   0.633   0.087  0.0559  0.0206  0.1535
25460W        W38874   2.061   4.359   5.678 -0.2162  0.2246 -0.1307
25461W        W38875   8.362  10.321  14.203  0.0483 -0.0304  0.2673
25462W        W38876   4.184  12.243   5.460  0.0588  0.2341  0.4542
25463W        W38877  17.819   2.721   2.783 -0.1575  0.1871  0.1519
25464W        W38878  13.232   6.586   1.631  0.0539 -0.1060 -0.0710
25465W        W38879   1.068   4.191  14.545  0.2310  0.1055 -0.1181
25466W        W38880  17.356   5.577   1.765  0.2515  0.0328 -0.1642
25467W        W38881   0.611  11.704  12.271 -0.1312 -0.1483 -0.0302
25468W        W38882  10.458   8.052  13.159 -0.3257  0.0661  0.1299
25469W        W38883   8.103  16.557  15.591 -0.1727  0.0019 -0.1974
25470W        W38884   5.890  11.166   4.336  0.1944 -0.0753  0.0398
25471W        W38885  11.046  13.109  11.876  0.0281  0.0344  0.0852
25472W        W38886   9.781  14.179  15.850  0.0459 -0.0822  0.0296
25473W        W38887   9.979  16.016   2.740  0.0689  0.1187  0.1115
25474W        W38888   4.791   4.227   5.410  0.0451 -0.1681 -0.1251
25475W        W38889   6.553  14.660  11.964  0.0650 -0.0081 -0.0296
25476W        W38890  17.037  14.913  11.610 -0.1478  0.1547  0.0927
25477W        W38891  13.846   3.554   9.951  0.0200  0.0614 -0.1289
25478W        W38892  14.022   1.503  16.248 -0.1289  0.1361  0.1961
25479W        W38893   2.336  16.766   1.395 -0.0038  0.2009  0.0718
25480W        W38894   9.229   7.683  11.619 -0.1770 -0.0809  0.1156
25481W        W38895  16.124  10.996   2.960  0.1086 -0.0510 -0.2274
25482W        W38896   2.587  13.503  11.633  0.2916  0.0092  0.2478
25483W        W38897  16.290   2.043   4.158 -0.1398  0.3078  0.0442
25484W        W38898   6.714  12.942   5.586 -0.2247  0.0297 -0.2911
25485W        W38899   3.112   9.289   0.138  0.1991 -0.0012  0.1238
25486W        W38900   9.842  11.284   6.148  0.2234  0.1340  0.0113
25487W        W38901   1.829   5.320   0.905  0.0707 -0.1450 -0.1691
25488W        W38902  18.024   6.232   5.799  0.4247  0.0203  0.1065
25489W        W38903  13.792   5.389   2.312  0.3116  0.0056  0.0717
25490W        W38904   0.556   4.208   4.928  0.0155 -0.1880  0.2714
25491W        W38905   7.721   7.131   1.352  0.2454 -0.0397  0.1785
25492W        W38906  17.375   8.790   0.935 -0.3563 -0.3056  0.2266
25493W        W38907  14.407   6.267  12.241 -0.3277  0.0184 -0.1717
25494W        W38908   5.625  12.423   2.881 -0.0904  0.2957  0.0156
25495W        W38909   1.413   5.647   0.191 -0.0882  0.1577  0.1113
25496W        W38910   6.416   7.151  12.543 -0.1904  0.1871 -0.0186
25497W        W38911  10.698  12.986   5.021 -0.0027 -0.0239  0.3078
25498W        W38912   6.658  10.636   2.075  0.0491  0.1106  0.4518
25499W        W38913   1.329  17.358   0.014 -0.0873  0.0235  0.1500
25500W        W38914   5.197   1.144  16.296  0.0719 -0.0281 -0.3844
25501W        W38915  11.638   5.615   4.030  0.0051 -0.0539 -0.0059
25502W        W38916  16.496   5.571  12.568  0.1019  0.1153 -0.1980
25503W        W38917  15.973   5.874  15.551  0.2411 -0.0929  0.2662
25504W        W38918   3.087   1.426   4.915  0.1971 -0.1256  0.0343
25505W        W38919   5.103  11.919  14.893  0.0273  0.1122  0.1325
25506W        W38920   6.980   5.960   5.779  0.2921  0.3333 -0.1097
25507W        W38921   5.853   6.748   2.250  0.0548  0.2667  0.3142
25508W        W38922   4.621   3.624  13.446 -0.2329 -0.1562 -0.1943
25509W        W38923   5.827   2.298  13.924  0.1412  0.0360 -0.2181
25510W        W38924  14.954   1.799  11.369  0.3910  0.0269  0.1794
25511W        W38925   3.092  12.847   5.205 -0.0516  0.2001 -0.1658
25512W        W38926   2.083  16.507  13.708 -0.3584  0.0582 -0.0848
25513W        W38927   9.617  16.373   0.673  0.0900 -0.1315  0.2869
25514W        W38928  13.309   4.591  12.533  0.2364 -0.1128  0.0821
25515W        W38929   7.780   9.576  15.164  0.0760 -0.0750  0.1033
25516W        W38930   2.016  14.155   5.013 -0.1414 -0.4953  0.0124
25517W        W38931  14.186   9.099  13.326  0.2642  0.1520  0.0952
25518W        W38932  10.453   7.093  11.524  0.4186 -0.0760 -0.1648
25519W        W38933   9.773  15.066   2.003 -0.0064  0.1409  0.0642
25520W        W38934   3.447   4.954   3.611  0.0365  0.0881  0.0469
25521W        W38935   3.734  13.172  13.475  0.2584 -0.1679 -0.3269
25522W        W38936  17.852   9.158   1.230 -0.0421 -0.0371  0.0390
25523W        W38937  15.512   0.496   6.127  0.6798 -0.1545  0.1717
25524W        W38938  13.916  11.165   4.743  0.1706 -0.5283  0.0466
25525W        W38939   4.225  11.191  15.102 -0.0197  0.0333  0.0276
25526W        W38940  14.086   6.208  15.691 -0.1709  0.0616 -0.1432
25527W        W38941  16.628   7.534  14.054  0.0298  0.0677  0.0111
25528W        W38942   8.026   1.143   3.719  0.0693 -0.0446  0.0370
25529W        W38943   0.917   2.291   4.257 -0.1763  0.3132 -0.3646
25530W        W38944  16.476  16.236  15.642  0.3275  0.0835 -0.2698
25531W        W38945   4.239  14.273   9.947 -0.0742  0.3288 -0.3445
25532W        W38946  14.879   1.273  15.772  0.1091  0.2981 -0.2103
25533W        W38947   0.653  16.967   4.060 -0.0918 -0.1474  0.2653
25534W        W38948   1.400   2.870   0.529 -0.2386 -0.4233 -0.1784
25535W        W38949   5.029   0.808  14.700  0.2105 -0.1959 -0.0634
25536W        W38950   3.374  17.911   4.782 -0.3202  0.2490  0.1338
25537W        W38951   2.742   0.214  16.377  0.0803  0.0284  0.1649
25538W        W38952   8.175  16.919  12.595 -0.2562 -0.2578  0.1759
25539W        W38953  10.892   0.805  13.511  0.1030 -0.0437 -0.0551
25540W        W38954  16.310  17.557   3.808  0.0644  0.0099 -0.2081
25541W        W38955   6.420  17.035   4.380 -0.2082  0.2030 -0.0509
25542W        W38956   4.495  10.175   0.789  0.1621  0.1282 -0.2522
25543W        W38957   8.048  16.165  10.008  0.3345 -0.2080  0.1361
25544W        W38958   8.310  16.350  10.575  0.1475  0.0839  0.1613
25545W        W38959  14.894  17.332   2.048  0.0393 -0.1281 -0.2249
25546W        W38960   5.340  10.275   5.210  0.1498 -0.0448 -0.2523
25547W        W38961  16.485   3.838  12.753 -0.0259  0.2447  0.3316
25548W        W38962  10.051  16.898   1.624 -0.0993  0.2093 -0.1031
25549W        W38963   9.252   3.410   4.011 -0.3301 -0.0427  0.3109
25550W        W38964   6.516   2.550   1.819  0.4065 -0.0782  0.0304
25551W        W38965   2.300   2.760  11.647  0.1154  0.0262 -0.2584
25552W        W38966   2.503  10.346  12.186  0.1484 -0.4192 -0.0337
25553W        W38967   3.853  12.852  10.988 -0.1060 -0.1230  0.2661
25554W        W38968  10.993  16.563  14.724 -0.3279  0.3615  0.0148
25555W        W38969  12.140  15.770  10.377 -0.3373 -0.2448  0.1573
25556W        W38970  14.304   7.902  13.483  0.2698 -0.3158  0.0519
25557W        W38971   6.551   5.876   3.710  0.0355  0.0161  0.1584
25558W        W38972   8.379   4.857  13.364  0.5773  0.0981  0.2463
25559W        W38973  16.805  16.107   0.769  0.4199 -0.2111 -0.1914
25560W        W38974   3.705   3.521   1.000  0.2063  0.0715 -0.1416
25561W        W38975  13.388  10.852  14.857 -0.0616 -0.0169 -0.1760
25562W        W38976   8.241  17.971   2.852  0.0687 -0.0958 -0.0364
25563W        W38977   9.137   0.514  15.522 -0.0727 -0.3936 -0.1202
25564W        W38978  10.832  11.245   0.299  0.0964  0.1161 -0.2128
25565W        W38979  11.185   4.951  13.875  0.2966  0.0701 -0.1790
25566W        W38980   0.187  15.403  10.798  0.0489 -0.1336  0.1806
25567W        W38981   2.584  16.516  12.444 -0.0059 -0.0351  0.2273
25568W        W38982  16.801  12.659  13.380  0.3224 -0.3079  0.1455
25569W        W38983   9.288   9.413  12.802 -0.0777 -0.2316 -0.1118
25570W        W38984   6.581   6.389   4.251  0.1182 -0.0292  0.1706
25571W        W38985  10.108   1.320   0.804 -0.2080 -0.3727 -0.1875
25572W        W38986  11.880  15.472  15.803  0.2695  0.4147 -0.0296
25573W        W38987   9.983  15.419  13.736 -0.0857 -0.0029 -0.0691
25574W        W38988  11.744   9.048   3.189  0.0267 -0.1985  0.1267
25575W        W38989   2.859   0.749  15.206 -0.3264 -0.3267 -0.2004
25576W        W38990   2.881  15.045  10.814  0.0285  0.0928 -0.2066
25577W        W38991   4.417  17.330  14.685 -0.1430  0.1374  0.2460
25578W        W38992   7.054   8.524  11.402  0.1280 -0.0083  0.1961
25579W        W38993  14.284  12.554   4.643 -0.1631  0.2088 -0.0681
25580W        W38994   2.766  11.580  15.484  0.3404 -0.2861 -0.3861
25581W        W38995  11.982   3.667  14.299  0.1912  0.0713  0.0639
25582W        W38996   7.910   8.686   7.050 -0.1024  0.0302 -0.0913
25583W        W38997  14.200   3.164   3.843  0.2114  0.0065  0.2007
25584W        W38998   3.033   6.143  14.768  0.2114 -0.2232  0.0622
25585W        W38999  10.964  16.084   0.671 -0.1072 -0.0159  0.1884
25586W        W39000  17.670   3.409  14.682  0.2948  0.0814  0.0840
25587W        W39001  12.685   2.232  12.597  0.0094  0.3278  0.0705
25588W        W39002   0.728  16.290  15.472  0.2839 -0.1406  0.3051
25589W        W39003  10.728  15.425  11.367 -0.0736 -0.0145 -0.0302
25590W        W39004   5.543   0.583  12.747  0.0246  0.0566 -0.1023
25591W        W39005  11.463  12.412   1.613  0.1644 -0.0697  0.1806
25592W        W39006  14.795   3.060   3.165  0.1708 -0.1614 -0.0300
25593W        W39007  14.522  13.034  12.802  0.0025 -0.2012 -0.1121
25594W        W39008   2.750  17.107   4.437  0.1860 -0.0572  0.0073
25595W        W39009  10.016  10.388   0.685 -0.0907  0.0661 -0.2405
25596W        W39010   5.267   6.280  16.342 -0.0744 -0.1491  0.0825
25597W        W39011  11.246  15.013  14.758 -0.0288  0.2527 -0.1731
25598W        W39012  14.641   3.154  13.933 -0.1737  0.0021 -0.0753
25599W        W39013  16.602   9.576  10.939 -0.1506  0.0516  0.3777
25600W        W39014   9.245  16.333  10.919 -0.2946  0.0350 -0.0509
25601W        W39015  14.832  14.609   2.791 -0.0122 -0.0862  0.2144
25602W        W39016  16.078  13.560   0.514 -0.0303 -0.1142  0.0419
25603W        W39017   0.423   5.012  16.000  0.3319  0.1236 -0.0668
25604W        W39018  16.084  13.708   0.020  0.0956 -0.1929  0.3196
25605W        W39019   1.059   4.670   5.706  0.1545  0.0819 -0.1905
25606W        W39020  10.694   1.584  10.571  0.0024 -0.0145 -0.1658
25607W        W39021   2.280  16.988   4.535 -0.3242  0.2004  0.2056
25608W        W39022  10.418   2.428  13.666  0.3730  0.0430  0.0212
25609W        W39023   8.408  17.563   1.385  0.1040 -0.0982 -0.1206
25610W        W39024  18.013   1.820  11.472 -0.1118 -0.2118 -0.0243
25611W        W39025   2.248   3.221   3.708 -0.2208  0.3688  0.1282
25612W        W39026  16.525  16.969   5.629 -0.0556 -0.0280  0.3408
25613W        W39027   3.744   2.560  13.039 -0.0914  0.2634  0.1487
25614W        W39028   7.888   3.309   2.382  0.3204  0.1593 -0.0261
25615W        W39029   3.553  15.101  12.715  0.0021  0.1745 -0.4482
25616W        W39030   9.061  17.730  11.724  0.1520  0.2721 -0.2896
25617W        W39031   8.381   6.424  13.167  0.2462  0.4201  0.3906
25618W        W39032   8.678   3.464   4.904  0.1276 -0.0109  0.0475
25619W        W39033  17.167  17.836  12.356 -0.1159  0.0390  0.1728
25620W        W39034  12.543  10.027  14.228  0.3464 -0.1270  0.1085
25621W        W39035   1.438   8.411   1.772 -0.2032  0.0800 -0.2605
25622W        W39036   9.343  12.119  16.109 -0.2023  0.2863  0.0206
25623W        W39037  15.668   0.832  10.912  0.0478 -0.1682 -0.1009
25624W        W39038  13.721  12.737  14.715  0.0218 -0.0891 -0.0368
25625W        W39039  11.664  15.251   0.083  0.1092 -0.2061 -0.2175
25626W        W39040  13.088   1.285  16.007  0.2364  0.1359  0.1616
25627W        W39041   4.215  16.409  11.895  0.3186  0.1560 -0.1737
25628W        W39042   4.422   0.660   4.076  0.0388 -0.1066  0.0591
25629W        W39043  13.642   7.963  16.015 -0.0557  0.0427 -0.2041
25630W        W39044  15.511   7.637  11.222 -0.0809 -0.1064 -0.1132
25631W        W39045   4.838  14.942   2.591 -0.0257 -0.2565  0.0224
25632W        W39046  11.215   9.201   6.246 -0.1891 -0.0870  0.1192
25633W        W39047  11.769   2.620   1.943  0.0128 -0.1307 -0.2523
25634W        W39048  14.036   1.273   2.184  0.0141 -0.2320  0.1174
25635W        W39049  12.631  17.367  16.152 -0.0701  0.2661 -0.1688
25636W        W39050  12.189  15.878  11.409  0.0741  0.0787  0.1382
25637W        W39051   5.164  12.930  11.611 -0.0502  0.3811 -0.1705
25638W        W39052  13.417  10.086  13.670 -0.1045 -0.1562 -0.2176
25639W        W39053  16.307   8.446   2.471 -0.2958 -0.3185 -0.1790
25640W        W39054   2.984   5.600   0.515  0.0504 -0.0528 -0.0940
25641W        W39055   9.338  15.790   3.458  0.1529  0.0543  0.1465
25642W        W39056  14.661  12.508   2.920 -0.1041  0.0657  0.1399
25643W        W39057  14.444   9.044   2.031  0.0783  0.1624 -0.2245
25644W        W39058   3.085   1.058   2.957  0.2667 -0.1164 -0.0780
25645W        W39059  16.371  15.393   3.718 -0.3742  0.1798  0.1653
25646W        W39060  10.424   6.397   2.276 -0.1471 -0.3024  0.0631
25647W        W39061   0.565  16.476   4.290  0.0805  0.1089  0.4613
25648W        W39062  10.903   2.420  10.982 -0.1152  0.0497  0.0472
25649W        W39063  11.292   5.666  13.997 -0.2921  0.0646  0.0444
25650W        W39064   3.534   1.737   1.602  0.0024  0.1557 -0.0516
25651W        W39065   4.097  15.493   1.692  0.1808  0.3296  0.2094
25652W        W39066  17.883   3.121   2.183 -0.1630 -0.1690  0.1753
25653W        W39067  10.751  13.281  14.226 -0.0085 -0.2541 -0.1397
25654W        W39068   9.143   4.347  15.626 -0.2415 -0.0876  0.1884
25655W        W39069  13.441   0.271  15.868  0.1201  0.0432 -0.0275
25656W        W39070  11.888   6.899   5.326  0.2010  0.0475 -0.4362
25657W        W39071  11.662  11.656   2.239 -0.1651  0.0988 -0.0540
25658W        W39072   7.662   9.429  14.597 -0.1786 -0.0223  0.0075
25659W        W39073  16.830   0.301  14.235 -0.0682 -0.3801  0.0212
25660W        W39074  15.253   1.896   1.415  0.0615  0.0279 -0.0274
25661W        W39075  10.700   9.128   2.445 -0.0017 -0.2446  0.2173
25662W        W39076   4.338   6.667  12.255  0.1632 -0.1187  0.4371
25663W        W39077   8.225  16.639   9.781  0.0487  0.0288  0.3693
25664W        W39078  10.659   8.160   3.081  0.0042 -0.2184  0.0911
25665W        W39079   4.516  12.203   1.938 -0.1052 -0.1892  0.0398
25666W        W39080   7.071   6.002   2.207  0.1563 -0.0234  0.0498
25667W        W39081   5.362  13.118   2.335  0.1892 -0.1540 -0.1961
25668W        W39082   6.264   5.841   0.686  0.0301  0.1666  0.0219
25669W        W39083  17.241  17.318  16.059  0.1161  0.1306 -0.0953
25670W        W39084  12.407  15.793  15.633  0.0579 -0.2186  0.0433
25671W        W39085   2.523   7.132   0.249  0.1609  0.1673 -0.2449
25672W        W39086   7.758  16.178  12.182  0.1266 -0.0681  0.0712
25673W        W39087  17.589   6.340  15.074 -0.0262  0.1955  0.1145
25674W        W39088  13.765   7.041  11.302 -0.3639 -0.1455 -0.2474
25675W        W39089   8.552  18.084   3.539 -0.2041  0.1708 -0.0814
25676W        W39090   7.958   9.501   1.763 -0.0119  0.1273  0.0596
25677W        W39091   7.901  13.029   1.764 -0.0637 -0.0384  0.1293
25678W        W39092   7.306   3.773   4.894 -0.1022 -0.4472 -0.1378
25679W        W39093   8.719   5.987   0.328  0.0753  0.0644 -0.0779
25680W        W39094   5.428  17.108   2.477  0.0133  0.1036 -0.0021
25681W        W39095  18.220   3.478  12.199 -0.0341  0.0297 -0.5729
25682W        W39096   6.463   4.632   5.616 -0.0226 -0.0791  0.1178
25683W        W39097  13.744   1.402  15.824 -0.2816 -0.2817  0.3394
25684W        W39098   5.681   2.109   3.717  0.0436 -0.0710  0.3858
25685W        W39099   2.401  15.332   2.410  0.1369 -0.1599  0.1525
25686W        W39100   7.318   3.083   0.435  0.1866 -0.2125  0.0778
25687W        W39101  12.237   2.300   4.039  0.1483 -0.0140 -0.2870
25688W        W39102  16.088   3.702  14.514 -0.0123 -0.2886  0.2293
25689W        W39103   9.741   8.495   1.625  0.1633  0.0407 -0.0271
25690W        W39104   2.551   8.677   1.751 -0.1188  0.2820 -0.0685
25691W        W39105   2.330   4.382  15.054  0.0213 -0.1813 -0.2217
25692W        W39106  10.629  13.095   2.381  0.1009 -0.0901  0.0847
25693W        W39107  13.683  12.713   3.343 -0.1016 -0.0906 -0.0753
25694W        W39108   9.409  10.769  14.428  0.0695  0.0980  0.0635
25695W        W39109  14.609  13.942   2.705 -0.2847  0.0087  0.1403
25696W        W39110   2.753  14.993   2.236  0.1153  0.1406 -0.0707
25697W        W39111   0.188   8.805  11.958 -0.0401 -0.0468  0.3874
25698W        W39112   7.269   0.193  13.357 -0.0431 -0.0719 -0.2848
25699W        W39113  10.383  17.594  11.339 -0.0228 -0.1000  0.0206
25700W        W39114   2.425   1.369  16.409  0.4640  0.0268  0.1659
25701W        W39115  12.905   2.246   0.503  0.0790  0.4613  0.0341
25702W        W39116   8.452  12.910   3.763 -0.2591 -0.3132 -0.0227
25703W        W39117  13.895  12.372  16.127  0.1894  0.1087  0.0996
25704W        W39118   6.356   1.852  16.473  0.0181 -0.1810  0.1518
25705W        W39119   4.279   5.250  11.593  0.0568  0.0518  0.1949
25706W        W39120   8.098   8.171   1.811  0.2839 -0.0109  0.4090
25707W        W39121   2.279  17.062   0.077  0.0600 -0.1303  0.2416
25708W        W39122  11.048  10.988   3.256  0.1342  0.3704  0.0005
25709W        W39123   0.475   9.955   3.862 -0.0630  0.2792 -0.1094
25710W        W39124   5.443   6.220  12.535 -0.0097  0.0054  0.0252
25711W        W39125  12.511   4.180   1.041  0.2046 -0.2114 -0.0341
25712W        W39126   2.377  15.137  10.893  0.0035  0.1265 -0.0265
25713W        W39127   1.102  13.183   1.655 -0.3227 -0.1492  0.1598
25714W        W39128   0.865  13.565   5.444  0.0871  0.0702 -0.0282
25715W        W39129  13.842   2.574  15.866 -0.1748 -0.0172  0.0280
25716W        W39130  15.237   1.951   0.883  0.2848 -0.2179 -0.2035
25717W        W39131  15.166   8.428  15.812 -0.0972 -0.2233 -0.0383
25718W        W39132  16.364   1.887  12.571 -0.0626  0.1786  0.1179
25719W        W39133  17.023   6.282   1.859  0.0823 -0.1293 -0.0581
25720W        W39134  16.332   9.424   2.156  0.0992 -0.0959 -0.0024
25721W        W39135  16.007   4.677  11.106  0.0728  0.1365  0.0780
25722W        W39136  16.359  10.009  14.754 -0.0846  0.2171 -0.0766
25723W        W39137   7.434  13.252   1.717 -0.2238  0.1963  0.0687
25724W        W39138  13.645   8.158   3.061 -0.0329  0.0474 -0.1793
25725W        W39139   9.737  10.127   6.477 -0.0845  0.5553 -0.0070
25726W        W39140  15.949  13.651  13.685  0.0886 -0.0031  0.3632
25727W        W39141   4.900   2.678   1.282  0.0747 -0.2513 -0.1917
25728W        W39142   9.395   5.106   4.621  0.2322 -0.3355 -0.1446
25729W        W39143   0.232   9.635   5.875 -0.3278  0.0362 -0.0006
25730W        W39144   7.985   9.657  11.615  0.1214  0.1077 -0.0771
25731W        W39145  11.233   8.421   2.325  0.3174 -0.2562 -0.1803
25732W        W39146   1.308  14.820  11.566  0.1777  0.0924  0.1242
25733W        W39147  11.100  12.525  10.339 -0.1058  0.2242 -0.3821
25734W        W39148  13.780  14.623   2.430  0.0050 -0.1334  0.0729
25735W        W39149   8.977   8.118   4.814  0.2620  0.1693  0.0685
25736W        W39150  10.107  14.604  11.295  0.1886  0.1129  0.2224
25737W        W39151   9.778   2.724  11.129 -0.1036  0.4095 -0.1135
25738W        W39152   1.387  14.787  11.022 -0.0095 -0.0467 -0.0480
25739W        W39153  13.397  10.727   5.122 -0.2273 -0.0356 -0.1061
25740W        W39154  13.768   2.945  11.372  0.0893  0.2817  0.0899
25741W        W39155   1.605  11.617  13.744 -0.2146  0.0134 -0.0786
25742W        W39156   6.599  12.870  11.012 -0.2189 -0.1068 -0.2459
25743W        W39157   0.717  13.896  12.923  0.3036  0.0825 -0.1622
25744W        W39158   6.533  11.616  14.645 -0.2267  0.0467  0.0347
25745W        W39159  10.415  15.558   1.355  0.1121 -0.0070 -0.0875
25746W        W39160   7.967  11.079  16.517  0.1450 -0.3148  0.0363
25747W        W39161   9.549   2.867   0.030 -0.2796  0.2541 -0.3875
25748W        W39162  16.219   6.083  12.515 -0.0146  0.0466  0.0094
25749W        W39163   5.973  14.577  12.718  0.1262 -0.2427 -0.3838
25750W        W39164   2.113   7.338   1.247  0.1658 -0.0927 -0.1860
25751W        W39165   9.781   2.142   2.506 -0.1676  0.2269 -0.1385
25752W        W39166   8.565   0.587   3.253  0.1483  0.1472 -0.2262
25753W        W39167  15.457  11.527  12.146  0.1218  0.0213  0.1057
25754W        W39168   3.888  11.304  16.435 -0.3243 -0.0402 -0.1346
25755W        W39169  18.033   9.372   5.839  0.0510 -0.1084  0.0347
25756W        W39170   8.085  18.169  16.308 -0.2257 -0.1033 -0.1046
25757W        W39171  17.840   2.351  13.965  0.0459 -0.0142 -0.3310
25758W        W39172   3.915   2.102   4.314  0.0713 -0.2425 -0.2801
25759W        W39173  12.949   4.418  12.832 -0.0361 -0.0368  0.0337
25760W        W39174   7.485   2.321   0.092  0.0050  0.0137  0.1857
25761W        W39175  11.099   8.309  12.839  0.4459  0.2521  0.2995
25762W        W39176   7.850  13.133   5.188  0.1207  0.0813 -0.1638
25763W        W39177  11.986   8.507   5.267 -0.1033  0.1387 -0.1184
25764W        W39178  17.883  13.694   4.654 -0.1314  0.1287  0.1907
25765W        W39179  13.455  18.028  16.097 -0.1837  0.1570  0.0066
25766W        W39180   8.988   2.419  11.722 -0.0787 -0.1506  0.0256
25767W        W39181   6.350   5.407   1.598 -0.1337  0.1944 -0.4065
25768W        W39182  10.933   8.756   6.078 -0.0593 -0.1876  0.1745
25769W        W39183   6.208   0.214   1.007 -0.0700 -0.3928 -0.1603
25770W        W39184   4.278  15.574  12.592  0.1114  0.1230  0.1414
25771W        W39185  11.749   8.999  14.974  0.0527  0.1097 -0.0365
25772W        W39186   0.075   7.114   1.542 -0.1916  0.0238 -0.2590
25773W        W39187   7.851   7.535   5.560 -0.0139 -0.3158  0.0725
25774W        W39188   0.470   3.021   5.762 -0.1353 -0.3742  0.2595
25775W        W39189  15.367  14.739   3.068  0.0295  0.0972  0.1268
25776W        W39190   9.451   3.363   3.051  0.2409 -0.0781  0.0232
25777W        W39191  15.560   9.525  15.692 -0.1611 -0.0577 -0.1769
25778W        W39192  14.671   4.360  12.348  0.0033 -0.0127  0.0438
25779W        W39193  13.739  18.152  11.278  0.1822  0.3682  0.1958
25780W        W39194  15.990   5.953   1.678  0.1043  0.2064  0.0508
25781W        W39195   0.108  12.255   0.217  0.1459  0.0882  0.0458
25782W        W39196   2.671   8.543  10.767  0.0110  0.0567  0.0536
25783W        W39197  16.435  16.302  14.732  0.2053 -0.0869  0.0369
25784W        W39198   8.707   7.145   4.907  0.1737  0.3450 -0.2580
25785W        W39199  10.231   6.847  14.974 -0.3207  0.1122  0.1130
25786W        W39200  10.690   0.734   0.573  0.0434  0.0755  0.1867
25787W        W39201   3.176  17.024  15.157  0.4072  0.1699  0.1759
25788W        W39202  11.831  12.786  13.528 -0.2808  0.0717  0.1633
25789W        W39203  13.928  10.462  10.923 -0.0967  0.1730  0.1583
25790W        W39204  15.507  11.016  14.094  0.1416  0.0416 -0.2380
25791W        W39205   5.763  14.812  14.165  0.3123  0.0383  0.3801
25792W        W39206  10.991   9.595   1.539  0.0325  0.2290  0.0015
25793W        W39207  14.894   9.524   5.359 -0.1124  0.1681  0.0900
25794W        W39208  14.353  11.390   4.855  0.0545 -0.0710  0.0230
25795W        W39209   3.204  11.752  15.778 -0.2294 -0.1469 -0.1837
25796W        W39210  14.427   1.672   0.167 -0.1433  0.2210  0.2433
25797W        W39211   0.375   1.989   1.484  0.1045  0.0527  0.0752
25798W        W39212  11.486   8.137   4.457 -0.0747 -0.0453  0.1354
25799W        W39213   4.328  18.089   3.840 -0.1519  0.0853  0.0758
25800W        W39214   8.366  15.686  13.297  0.1877 -0.2243 -0.1244
25801W        W39215   2.611   5.145   2.172  0.0781 -0.1019  0.3618
25802W        W39216   1.774   8.572  15.809  0.1059  0.1017 -0.2334
25803W        W39217   9.572   9.485   3.369 -0.0888 -0.1897  0.3244
25804W        W39218   2.776   0.868   2.511  0.0169 -0.3405 -0.0622
25805W        W39219  15.467   9.332  12.448 -0.0075 -0.1732 -0.2240
25806W        W39220   5.281  18.207  10.307  0.0175  0.1844  0.0107
25807W        W39221   9.121  14.463   3.000  0.0524  0.0315 -0.0557
25808W        W39222  17.274   4.417  13.052  0.2608  0.0883  0.1288
25809W        W39223  10.734   2.323  12.348 -0.1301 -0.1453 -0.1507
25810W        W39224   2.779   8.207  15.400 -0.0514  0.0460 -0.1371
25811W        W39225   9.734  10.671   2.731  0.1445 -0.1460 -0.2989
25812W        W39226   6.768   5.234  15.916 -0.0583  0.1646  0.0122
25813W        W39227   5.804   5.673   4.260 -0.1594 -0.0345  0.1614
25814W        W39228   8.295   3.552   5.211 -0.1462  0.1813 -0.2529
25815W        W39229   3.216  14.140   4.639 -0.1124  0.2694 -0.0393
25816W        W39230  11.617   6.200   3.307 -0.0277 -0.0739  0.0837
25817W        W39231  10.772   4.599   3.564  0.0002  0.0910 -0.1281
25818W        W39232  13.376  15.143   1.100  0.1774  0.0580  0.1328
25819W        W39233  10.713   8.317  14.313  0.1656 -0.2270 -0.1729
25820W        W39234   4.542  17.603   3.134  0.0092 -0.3392 -0.0864
25821W        W39235   3.517   1.429   0.162 -0.2959 -0.2569  0.2292
25822W        W39236   5.231   1.375   2.365 -0.0862 -0.0318  0.4943
25823W        W39237  15.844   4.256   1.951  0.1441  0.0980  0.2013
25824W        W39238   7.564  14.656  11.083  0.1528 -0.1670 -0.1225
25825W        W39239   4.476   1.266  11.699 -0.5917  0.0816  0.1112
25826W        W39240   8.867  15.778   3.593  0.2743  0.1057 -0.1956
25827W        W39241  11.116   7.128  13.956 -0.1720  0.2406 -0.1374
25828W        W39242   6.645   4.975   1.651 -0.0502 -0.0851 -0.3970
25829W        W39243   0.837  14.162  16.288 -0.0974  0.1044 -0.1049
25830W        W39244   8.462   4.737  12.579 -0.0263  0.1444 -0.0422
25831W        W39245  12.872   4.345  12.195  0.1008  0.2493 -0.0456
25832W        W39246   6.225  17.234   1.346  0.5630  0.1391 -0.0133
25833W        W39247   6.534  10.975  14.199 -0.0413 -0.1497 -0.0235
25834W        W39248   5.809  14.455  10.826  0.0001  0.0747 -0.1193
25835W        W39249  11.591  11.018  15.902 -0.0893  0.1443  0.0881
25836W        W39250  14.149   7.817   4.941 -0.0373 -0.0701  0.0938
25837W        W39251  10.879  10.339   4.274  0.1105 -0.1682 -0.0801
25838W        W39252   6.598   5.896  14.342  0.0688  0.2479 -0.1882
25839W        W39253  17.280   2.018  14.474  0.0236  0.0062  0.2920
25840W        W39254   8.135  15.522   0.079 -0.1976 -0.0330 -0.0247
25841W        W39255   6.846   3.399  13.001 -0.1309 -0.1770 -0.0838
25842W        W39256   3.464  14.052   0.662 -0.1162  0.0776  0.1543
25843W        W39257   4.433  15.637   5.385  0.0844  0.1601 -0.3421
25844W        W39258   2.288  15.064  11.490  0.0351  0.2046 -0.1169
25845W        W39259   6.221  17.043  10.792 -0.2107 -0.2044  0.3395
25846W        W39260   1.296   3.556   2.925  0.1244 -0.0703  0.4956
25847W        W39261   0.023  11.783   3.599  0.2025 -0.1128  0.0714
25848W        W39262   9.572   8.283  14.321 -0.2473 -0.1257 -0.0386
25849W        W39263   2.795   6.261   5.521  0.0478  0.5412 -0.0382
25850W        W39264   2.364   6.045   1.256 -0.1817 -0.0857  0.0637
25851W        W39265  12.020   5.661  13.344 -0.1103 -0.2241 -0.0660
25852W        W39266  15.571  13.080   1.077 -0.1871  0.0252  0.0508
25853W        W39267   8.375   5.503  10.775  0.1759  0.3580  0.0305
25854W        W39268  13.962   1.250  12.711 -0.1616  0.2039 -0.2669
25855W        W39269   0.462   5.885   1.410 -0.1294 -0.0680 -0.0366
25856W        W39270   2.064   4.036   2.511  0.1064  0.0631  0.2387
25857W        W39271  11.707   8.575  13.546 -0.1024  0.0089 -0.1017
25858W        W39272   2.570  17.856   5.423  0.0405 -0.0364  0.0014
25859W        W39273  10.803  14.209  15.097 -0.1762  0.2315  0.0409
25860W        W39274   3.633  10.613   0.673 -0.2247  0.2222 -0.0287
25861W        W39275  10.487  14.811   4.512 -0.2667 -0.0397  0.1767
25862W        W39276   7.709   0.671  12.110 -0.2837  0.0170  0.2340
25863W        W39277   0.480  12.615   4.763  0.1797  0.2672  0.0084
25864W        W39278  10.197   3.702  14.985 -0.0367  0.1740  0.1864
25865W        W39279   8.396   0.215   9.702 -0.1024  0.1829 -0.0533
25866W        W39280  12.983  17.370  12.772  0.1153  0.0733  0.2565
25867W        W39281  18.223   7.532  14.128  0.0118  0.2367  0.0855
25868W        W39282   3.419  16.977  12.169  0.0980 -0.0996 -0.2089
25869W        W39283   2.385   2.937   6.292  0.0532 -0.1195  0.3047
25870W        W39284   0.526   1.595   4.631  0.2042 -0.4202  0.0308
25871W        W39285  13.105   6.070  15.054 -0.1298  0.1127 -0.1326
25872W        W39286   9.263  15.871  12.092 -0.0765 -0.2982  0.0373
25873W        W39287  14.178   8.786  11.316  0.0445  0.0423 -0.0388
25874W        W39288  12.609  11.340  12.268  0.2129  0.0785 -0.0650
25875W        W39289   7.849   0.016  15.193 -0.1413 -0.1688  0.0814
25876W        W39290  11.966   3.086  10.432  0.1946 -0.2319 -0.2682
25877W        W39291  16.333   7.951  11.937 -0.2955 -0.0563  0.1139
25878W        W39292   4.364  14.421  14.243 -0.4393  0.0781 -0.2414
25879W        W39293   3.930   3.942  13.455  0.1219  0.0807 -0.1477
25880W        W39294  13.241   6.762   2.509  0.1565 -0.1267  0.1601
25881W        W39295  10.433   6.531   5.371  0.0255 -0.3051  0.1024
25882W        W39296   5.657  12.489  11.359  0.0064 -0.0668  0.0137
25883W        W39297  12.297  16.013  14.917  0.0071  0.0694  0.0520
25884W        W39298  15.214  14.789  14.270 -0.1423 -0.0455  0.1604
25885W        W39299   8.056  15.903  13.642  0.0529 -0.1432 -0.2288
25886W        W39300  10.462   7.103  12.175  0.4642  0.0967 -0.1246
25887W        W39301   3.702  12.238   4.160 -0.0027 -0.1264 -0.0923
25888W        W39302  13.923  11.781   2.294  0.0335 -0.0734  0.0733
25889W        W39303   8.023  12.310  14.669 -0.0769  0.0011 -0.1750
25890W        W39304   1.796  15.570   1.961  0.0402 -0.4025 -0.3189
25891W        W39305   1.129   2.783   0.971 -0.1691  0.4237 -0.3675
25892W        W39306   5.335   7.941  14.452  0.0553  0.0028 -0.2981
25893W        W39307   9.065  15.399  14.856 -0.2339 -0.1006 -0.2396
25894W        W39308  18.014   7.762   2.322 -0.3172 -0.0722  0.1771
25895W        W39309   3.586  16.339   3.640 -0.1555 -0.0318  0.1212
25896W        W39310   9.279  17.627  16.164 -0.2488  0.3778  0.3638
25897W        W39311   7.608  12.007   3.100  0.0836  0.3041 -0.1112
25898W        W39312  10.181  13.131   4.299 -0.0275 -0.2006 -0.1417
25899W        W39313   6.129  10.793   4.611  0.3020 -0.0406 -0.1787
25900W        W39314  17.692   1.022   2.029 -0.2725  0.1657  0.3266
25901W        W39315  15.366  10.398   1.894 -0.0280  0.0842  0.1579
25902W        W39316   4.627  11.951   5.308 -0.0310  0.1518 -0.1871
25903W        W39317   2.083   9.843  11.333  0.3059 -0.0343  0.0502
25904W        W39318   8.563   8.347  15.710  0.2715 -0.3112  0.0270
25905W        W39319   1.116  15.074  15.005 -0.1162 -0.0045 -0.1448
25906W        W39320   5.176   9.659  15.442 -0.0860 -0.1036  0.1873
25907W        W39321   8.748  14.745   1.243  0.1322  0.4414 -0.0756
25908W        W39322  14.260   5.756   3.307 -0.1678 -0.1242  0.1018
25909W        W39323  17.262  16.183   2.439 -0.0114  0.1498 -0.1972
25910W        W39324  16.608   2.800   2.785  0.0428  0.0231 -0.0123
25911W        W39325  16.211   7.654   3.842 -0.2629 -0.1992  0.4016
25912W        W39326  18.187   4.731  14.185  0.0562 -0.3327  0.0863
25913W        W39327  15.879   9.186   4.448  0.1575 -0.0827 -0.2189
25914W        W39328   9.305   5.533   4.436  0.0840 -0.0758 -0.2026
25915W        W39329   2.127   9.707   0.620 -0.2766 -0.3095  0.2207
25916W        W39330   1.118   1.104   0.638 -0.1917  0.1677  0.3954
25917W        W39331  14.756   8.736  16.445 -0.2820 -0.2278 -0.1322
25918W        W39332  16.955   2.998   2.525 -0.0858  0.2390  0.2235
25919W        W39333   1.839  15.410  16.376  0.1977  0.3012 -0.1691
25920W        W39334   9.966   5.064   4.718 -0.2824 -0.0898 -0.2325
25921W        W39335  14.124   3.821  14.902 -0.0272  0.2235 -0.0399
25922W        W39336   5.903   7.706   5.081  0.0520  0.3265 -0.0065
25923W        W39337   0.983  14.190   1.314  0.1246  0.1458  0.0024
25924W        W39338   6.708  14.126   4.366 -0.2357 -0.2784 -0.2457
25925W        W39339  13.323   3.725  13.250 -0.1234 -0.1127 -0.0818
25926W        W39340   2.729   3.492  11.681 -0.1043  0.2017 -0.4115
25927W        W39341  11.931   6.046   1.641 -0.2751  0.0685 -0.1090
25928W        W39342  17.138   6.294   4.370  0.2377 -0.0589  0.1120
25929W        W39343   5.379  12.173  15.350  0.2794  0.0138 -0.1609
25930W        W39344  16.396   5.786   3.022  0.1205  0.1441 -0.1109
25931W        W39345   6.789   8.290   3.926 -0.0278  0.2403  0.0976
25932W        W39346   9.431   7.912  15.091  0.0349  0.1613 -0.0114
25933W        W39347  14.631  17.053   1.248 -0.0747  0.1515  0.0476
25934W        W39348   5.806   3.620  11.990  0.3403  0.0600 -0.1130
25935W        W39349   2.046   9.737   5.085 -0.4030 -0.0287  0.0959
25936W        W39350   2.663   2.885  10.878  0.1742 -0.0257 -0.0218
25937W        W39351  10.214   2.213  10.312  0.2426  0.0390 -0.1281
25938W        W39352   1.329   4.903  11.540 -0.1120 -0.1238 -0.1144
25939W        W39353   7.375  13.100   5.215  0.1287 -0.1127 -0.2292
25940W        W39354   2.822   8.971   2.037  0.0490  0.0693  0.1830
25941W        W39355  14.761   7.965   5.893 -0.2460  0.1661  0.0791
25942W        W39356   9.617   2.103   1.612 -0.1402  0.0555  0.0205
25943W        W39357   3.361   0.306   5.968  0.2954  0.1122  0.1743
25944W        W39358  13.281  16.151  10.781 -0.1088 -0.0050  0.1561
25945W        W39359   7.479   4.670  11.599 -0.0190  0.0048 -0.0009
25946W        W39360   5.140   6.274  11.471  0.1767 -0.3600  0.0242
25947W        W39361  12.533   3.055   6.181  0.0012  0.1347 -0.0359
25948W        W39362   6.709   1.657  14.882  0.0057 -0.0082  0.1015
25949W        W39363   2.575   6.637   0.197  0.0326  0.2000 -0.2933
25950W        W39364  15.417  16.564   5.245 -0.3082  0.0210  0.2889
25951W        W39365  12.700   8.854   4.572  0.1917 -0.0842  0.0697
25952W        W39366   1.289   7.343   5.401 -0.0756  0.1766  0.0338
25953W        W39367   9.634   5.571  14.114  0.0699 -0.0023 -0.1924
25954W        W39368   3.955  10.566   3.415 -0.1012  0.0203  0.0503
25955W        W39369   3.027   2.259   5.318  0.1317  0.2439 -0.0691
25956W        W39370   9.674   3.861  12.969  0.0485 -0.2529 -0.0603
25957W        W39371  12.916   4.564   1.221 -0.0511 -0.0740  0.2970
25958W        W39372  17.893   9.772   4.185  0.1982  0.2468  0.3026
25959W        W39373  15.447  13.988   4.968  0.0323  0.1842 -0.0832
25960W        W39374   4.983   2.144  14.205 -0.0988  0.0785  0.2009
25961W        W39375   7.078   5.777   0.024 -0.0103 -0.3050  0.0370
25962W        W39376   8.450  16.407  11.475 -0.2367  0.1084 -0.0463
25963W        W39377  17.356  11.660   4.052 -0.0856  0.4285 -0.2544
25964W        W39378   5.154   1.046   5.102 -0.1441 -0.0898  0.0186
25965W        W39379   4.601  16.749   0.019  0.1997 -0.1321 -0.0212
25966W        W39380  11.804   6.445   4.996  0.1314  0.0522 -0.2012
25967W        W39381   2.981   5.576   2.970 -0.1856 -0.1501  0.0713
25968W        W39382   0.916   5.443   1.187  0.0746 -0.2131 -0.0181
25969W        W39383   0.293  11.164   1.789 -0.1950  0.0416  0.0677
25970W        W39384   6.908   0.455  14.601 -0.0541  0.2597 -0.1099
25971W        W39385   2.812  15.915   4.938  0.0586 -0.0102  0.0210
25972W        W39386   7.961   6.738   4.503  0.2835  0.1047  0.1794
25973W        W39387   9.549   2.600  16.141  0.1071 -0.0090  0.0792
25974W        W39388   2.198  10.740  12.309  0.1925  0.0342  0.2540
25975W        W39389   5.422   6.676   4.629 -0.0853 -0.1369  0.4260
25976W        W39390   6.160   4.884   0.423 -0.0736  0.3552 -0.2535
25977W        W39391   0.295  13.423   0.428  0.1274  0.0196 -0.0445
25978W        W39392  12.357  10.867   6.517  0.0628  0.3040  0.0447
25979W        W39393   9.099  16.081   2.987  0.2024  0.0664 -0.0686
25980W        W39394  18.032   7.995   5.509 -0.1796  0.1146 -0.0401
25981W        W39395   3.487  14.922   2.269  0.0451 -0.1291 -0.1612
25982W        W39396   5.232  12.064  14.462  0.1715 -0.2773 -0.1686
25983W        W39397  16.939   4.053   6.195 -0.0444  0.0935 -0.0589
25984W        W39398  17.805   3.758   1.653 -0.6128  0.4390  0.1353
25985W        W39399  17.434  14.298   0.339 -0.1862  0.0836  0.1803
25986W        W39400  17.258  15.009  14.970  0.1786 -0.0219 -0.0920
25987W        W39401   1.990  17.169  13.271  0.1302  0.0286 -0.1651
25988W        W39402  14.146   1.291   0.179  0.0505  0.2078 -0.1686
25989W        W39403  13.165  14.557  12.343  0.1946 -0.1605 -0.0315
25990W        W39404   4.130  16.189  15.059  0.1241 -0.0247 -0.1835
25991W        W39405   8.365   1.071  14.444 -0.1229  0.1113 -0.1861
25992W        W39406   4.501  13.421   1.257 -0.3877  0.1303  0.0850
25993W        W39407  16.722  18.021   3.686  0.1640 -0.0711  0.0228
25994W        W39408   0.019  10.941   2.596  0.0023 -0.0623 -0.1985
25995W        W39409   3.630   2.011   1.990  0.3111 -0.1457  0.1288
25996W        W39410   7.298  17.636  15.145  0.1826 -0.0067 -0.1710
25997W        W39411   9.594   0.455   0.880 -0.0152 -0.2115  0.0795
25998W        W39412  16.967  10.695   1.344  0.0188 -0.2736  0.3547
25999W        W39413   1.548  15.206  16.001  0.0942 -0.1271 -0.0204
26000W        W39414   1.509  18.151   3.267 -0.1597 -0.1958  0.0820
26001W        W39415  10.667   4.512  16.113 -0.0090  0.0607 -0.3055
26002W        W39416  15.933   7.449  13.422  0.0528  0.1711 -0.0682
26003W        W39417   8.705   2.806  14.240  0.0768  0.1863 -0.1192
26004W        W39418  15.085   2.976  13.941 -0.0369 -0.0521  0.0433
26005W        W39419  12.180  14.698   4.355  0.0772  0.1663 -0.0474
26006W        W39420  14.311  12.795   6.178 -0.0395  0.0403  0.3893
26007W        W39421   8.241   3.316   0.646 -0.2767 -0.2689  0.1887
26008W        W39422   3.713   1.495  12.307 -0.1642  0.1230  0.1407
26009W        W39423  10.574   6.094   5.121  0.0349  0.0574  0.1461
26010W        W39424   1.776  15.440  13.687 -0.3311 -0.0831  0.0630
26011W        W39425   1.588   5.721  11.439  0.0988 -0.1926 -0.2304
26012W        W39426  18.039   5.572   1.138  0.0581  0.0017 -0.3371
26013W        W39427  11.860   2.112  14.404  0.2045  0.3156  0.0502
26014W        W39428  12.733   9.834   6.067  0.0540 -0.1362 -0.5413
26015W        W39429  11.575   0.500  14.263  0.1442  0.1083  0.1326
26016W        W39430   7.193  14.574   5.067 -0.1872  0.2092 -0.1847
26017W        W39431  11.248  13.734   6.127 -0.1422  0.0553 -0.1378
26018W        W39432   9.792   0.848   3.178  0.0654 -0.2794 -0.0699
26019W        W39433  15.040   0.668  11.415  0.1533 -0.1575  0.2354
26020W        W39434  17.597   7.201  11.009 -0.0304 -0.2115  0.0734
26021W        W39435   0.999  17.787   4.081  0.1996  0.2307  0.1715
26022W        W39436   6.392   3.672   1.229  0.0881 -0.2075  0.1314
26023W        W39437   9.397   3.330  12.874  0.0197 -0.2982  0.0333
26024W        W39438  14.550  11.077   2.576 -0.1388 -0.0586  0.1851
26025W        W39439   2.278  15.656   3.521 -0.1596  0.0225 -0.4123
26026W        W39440  12.334  17.343  12.297  0.1258 -0.2498 -0.0653
26027W        W39441  10.970  17.087  10.870  0.0229  0.1656  0.1914
26028W        W39442   1.294   3.713   5.638  0.4792  0.3415 -0.2846
26029W        W39443   1.821  15.790  15.213  0.1429 -0.1116 -0.2151
26030W        W39444   0.213  11.320   4.692  0.1171 -0.0260  0.0276
26031W        W39445  18.157   8.188  16.156 -0.1271 -0.1865 -0.0169
26032W        W39446   5.131   6.675   5.372 -0.0666  0.1815 -0.1701
26033W        W39447  13.681   4.053   4.450 -0.4641  0.0419 -0.1700
26034W        W39448  12.055  15.308   4.917  0.0466 -0.1301  0.1022
26035W        W39449   0.364  10.505   3.145 -0.2983 -0.2144 -0.1348
26036W        W39450   4.842   0.281  13.241  0.0616  0.0835 -0.0492
26037W        W39451   9.967  16.326   5.078  0.0819  0.0966 -0.0424
26038W        W39452  14.932  12.820  12.113 -0.0683  0.0828  0.0972
26039W        W39453   5.202   3.087   5.996  0.1333 -0.0793 -0.2034
26040W        W39454   6.432   2.341  13.208  0.0809  0.0894 -0.0002
26041W        W39455  14.801  10.700   5.614 -0.0497  0.0642 -0.2511
26042W        W39456   6.350   4.592  13.191 -0.0149 -0.0812  0.1911
26043W        W39457  11.152  12.758   5.060 -0.1477 -0.1574 -0.0264
26044W        W39458   1.903  14.953   0.559 -0.1376  0.0300 -0.4160
26045W        W39459   4.650   0.116   4.819 -0.0895 -0.1680  0.2815
26046W        W39460   9.503  16.114  15.075  0.2237 -0.0512 -0.3944
26047W        W39461  17.225  18.156   0.742 -0.2851  0.0158 -0.1919
26048W        W39462   8.841   3.694   4.454  0.1116 -0.0838 -0.0539
26049W        W39463   6.121   4.002  16.527 -0.1549  0.0968 -0.0973
26050W        W39464   0.294   7.303   4.974 -0.1214  0.0923 -0.1593
26051W        W39465   3.993  15.425   3.785 -0.1239  0.2711 -0.0727
26052W        W39466   7.187  14.752  15.422  0.1973  0.0673  0.1195
26053W        W39467   5.494  15.201   1.477  0.0277 -0.0774 -0.0770
26054W        W39468   3.167   4.860   2.713 -0.3052  0.0825 -0.1660
26055W        W39469  10.682  13.158   1.892  0.0035 -0.3160  0.1106
26056W        W39470   2.358   5.342  13.696 -0.0284 -0.1345  0.1518
26057W        W39471   6.690   7.177   4.811 -0.1646  0.1341 -0.0259
26058W        W39472  15.779   3.935   2.356  0.1021  0.1035 -0.0319
26059W        W39473   9.919  18.124  10.219  0.0157 -0.1656  0.1548
26060W        W39474  16.368  15.577   5.258 -0.2231 -0.0118  0.0639
26061W        W39475  11.983  15.600   0.280 -0.5720  0.0720  0.0057
26062W        W39476  11.316   3.911   0.304 -0.1832  0.0571  0.1777
26063W        W39477  10.480  10.919   1.839  0.1134  0.3641  0.0352
26064W        W39478  11.012   1.967  10.323 -0.0150  0.0163  0.0495
26065W        W39479   0.224  13.444  13.762  0.0739  0.0528 -0.0122
26066W        W39480  11.482  17.247  12.565  0.1352  0.0804 -0.0219
26067W        W39481   6.637  11.171  14.683  0.0156 -0.3412  0.1207
26068W        W39482  13.302   4.736  10.594  0.1022 -0.1900  0.0619
26069W        W39483   6.592   1.685  13.743  0.2181  0.1479 -0.1284
26070W        W39484  17.212  17.519   1.920  0.0942  0.0304  0.0265
26071W        W39485   5.147  13.433  15.256  0.2700 -0.2317 -0.0988
26072W        W39486  16.529   3.164  13.213  0.0891 -0.2839  0.1202
26073W        W39487  17.067   6.344   2.860 -0.3526  0.1142  0.1510
26074W        W39488   5.234  17.210   3.701  0.1143 -0.1272  0.0465
26075W        W39489  11.074   6.266  13.377  0.2419  0.1239  0.0605
26076W        W39490   7.382   4.108   0.325 -0.1214 -0.3199  0.0766
26077W        W39491   3.434  14.970  11.957  0.0062  0.1101 -0.1544
26078W        W39492  17.936   0.689  15.485  0.1606  0.2466 -0.2021
26079W        W39493  15.589   6.441  13.169 -0.0395 -0.1485 -0.3494
26080W        W39494   8.825  15.624   1.649 -0.1972 -0.1674  0.2710
26081W        W39495  14.811  10.766  13.298  0.1225  0.0051 -0.2264
26082W        W39496  12.033   9.983   1.567  0.2727 -0.1952 -0.0275
26083W        W39497   9.407  11.238  12.650  0.0088 -0.0960  0.0876
26084W        W39498   9.102  10.364  11.603  0.0620  0.1673  0.1644
26085W        W39499   3.495   0.694  16.163  0.2151  0.1904  0.2322
26086W        W39500  16.542   3.404  11.453 -0.0778 -0.3265  0.0251
26087W        W39501  11.192  11.697   1.112  0.1355  0.0417 -0.2128
26088W        W39502  12.201  13.125   2.073  0.0123  0.0332  0.3494
26089W        W39503  14.481   2.445  14.422 -0.2156 -0.0169  0.2433
26090W        W39504   9.725   5.902  13.233  0.1670 -0.1487  0.1674
26091W        W39505   4.082   6.670   3.493 -0.3770  0.0098 -0.2567
26092W        W39506   5.086  12.172  10.317  0.0990 -0.1342  0.2012
26093W        W39507  11.117   7.822  11.422  0.2509 -0.0592 -0.0102
26094W        W39508  16.327   8.344  12.204 -0.0686  0.3922  0.0650
26095W        W39509   6.418   1.847   5.463 -0.2427 -0.2101 -0.0134
26096W        W39510   6.886   8.761   3.838 -0.1900  0.0880  0.0597
26097W        W39511   7.584   2.578  15.409 -0.1322 -0.1353 -0.1836
26098W        W39512   9.943   0.029  16.497  0.0925  0.2414  0.2556
26099W        W39513  10.922   5.182   4.946  0.1994 -0.0738  0.1272
26100W        W39514   6.269   4.345   2.013  0.2929  0.0618  0.2173
26101W        W39515  10.827  17.339   5.196  0.3361 -0.2815 -0.3209
26102W        W39516   6.893   4.084   0.433  0.4268  0.1689  0.1268
26103W        W39517  13.364   0.983  13.243  0.1009  0.0636 -0.1001
26104W        W39518   7.175  17.763   1.391 -0.0116  0.0571  0.2312
26105W        W39519   5.053  10.442  15.136  0.0721  0.1595 -0.0580
26106W        W39520   9.673   4.191   4.462  0.2155  0.0709  0.1537
26107W        W39521  18.021  10.053   6.559 -0.1546  0.3190 -0.1587
26108W        W39522   4.696   3.369   1.862 -0.0936 -0.1923 -0.1834
26109W        W39523   4.500   5.999   0.536 -0.1916  0.1228 -0.1427
26110W        W39524  10.152   6.473  13.453 -0.6683 -0.0019 -0.0744
26111W        W39525   4.529   1.853   0.095  0.0273  0.1251  0.2761
26112W        W39526  13.584  16.746  13.279 -0.2229 -0.0087 -0.0798
26113W        W39527  10.187  17.377  12.270  0.2118 -0.0818 -0.1153
26114W        W39528   8.999  17.392   3.134  0.0554 -0.0995 -0.0589
26115W        W39529   8.636   0.538   1.021 -0.1096  0.0504  0.3454
26116W        W39530  13.795   6.096  13.385  0.0202  0.2630 -0.2094
26117W        W39531  13.922  11.552  14.587  0.0212  0.1635  0.1008
26118W        W39532  13.678  15.960   1.557  0.0531 -0.1581  0.3208
26119W        W39533   7.487   6.463   4.689  0.1289 -0.0348 -0.0677
26120W        W39534   2.399   1.972  12.781 -0.1259  0.3975 -0.0540
26121W        W39535  10.225  13.067  12.251  0.0100 -0.2256 -0.3792
26122W        W39536  14.743   5.198  14.970  0.2525 -0.2770  0.1582
26123W        W39537  12.757  11.979  12.883  0.3029  0.1085 -0.1929
26124W        W39538  14.554   7.905   5.448  0.1105 -0.1032  0.1335
26125W        W39539  10.240  11.053  15.437 -0.0899  0.0102  0.1882
26126W        W39540  11.494  16.655  11.027  0.1499 -0.1095  0.0201
26127W        W39541   5.422   9.189   5.723  0.1711 -0.0533 -0.0031
26128W        W39542  13.554  17.380   3.217 -0.0971 -0.2289  0.3029
26129W        W39543   9.114  11.426  14.119  0.0547  0.2033 -0.0410
26130W        W39544  14.141   4.560  14.774 -0.1921 -0.1071 -0.2149
26131W        W39545  14.783   1.196   4.028  0.1404 -0.0658 -0.0112
26132W        W39546  16.453   2.704   6.335 -0.0986  0.0074  0.0498
26133W        W39547  11.436   3.280   1.388  0.1452 -0.1310 -0.0660
26134W        W39548   7.149   1.059   3.243  0.2195 -0.2014 -0.1371
26135W        W39549   6.281  10.345   0.553  0.1207  0.2132  0.0447
26136W        W39550   9.014  13.537   1.713  0.0325 -0.0395 -0.1010
26137W        W39551   0.747   7.104  13.713 -0.0068  0.3483  0.1663
26138W        W39552   4.553   1.784   0.864  0.1579 -0.2539  0.1499
26139W        W39553   7.144  14.481  11.392 -0.1208  0.0647  0.1735
26140W        W39554   0.243   2.232  16.282 -0.1334 -0.0141  0.2756
26141W        W39555  16.720  11.949   2.902 -0.1753 -0.2240 -0.1532
26142W        W39556   5.727  17.670   4.424  0.0871  0.1148 -0.0763
26143W        W39557  13.496   9.885  11.654 -0.1245 -0.0672 -0.1036
26144W        W39558  16.725  13.686   6.003  0.1906 -0.1447 -0.0593
26145W        W39559  16.406  10.742   4.227  0.0067 -0.4329  0.0649
26146W        W39560   9.990   7.749   4.347 -0.0204  0.1648 -0.1505
26147W        W39561  16.499  13.251   0.673 -0.0192 -0.2859 -0.1226
26148W        W39562  16.469  16.795   6.119  0.0290 -0.1900  0.1693
26149W        W39563  12.420   9.360   3.791  0.3615 -0.3340  0.2114
26150W        W39564  11.949  13.875   0.632  0.2271  0.1500 -0.0874
26151W        W39565  13.370   5.821  14.732  0.2157 -0.2589 -0.0672
26152W        W39566   1.661   1.307   0.132  0.0672  0.0041  0.0225
26153W        W39567   1.761  17.132   3.252 -0.2049  0.1790  0.2385
26154W        W39568  17.278  16.857  11.980  0.0079 -0.0880  0.1113
26155W        W39569   7.075   3.423  10.577  0.1322  0.2684 -0.0844
26156W        W39570   8.364  14.765  10.082  0.0647 -0.1978 -0.0270
26157W        W39571  12.622   3.224  10.424  0.1449  0.0792 -0.0029
26158W        W39572  17.143   8.397   1.306 -0.0319 -0.0698 -0.1447
26159W        W39573   1.087   7.640  11.903  0.1981 -0.1667 -0.0161
26160W        W39574  14.034  11.968  11.246 -0.2641  0.4150  0.1095
26161W        W39575  15.711   4.763  13.579 -0.2870 -0.0162  0.0605
26162W        W39576   8.696  12.380  11.261 -0.1737  0.2139 -0.0549
26163W        W39577   3.462   9.658  14.809  0.0833  0.1069 -0.0506
26164W        W39578  14.425   9.248   5.601  0.2064 -0.2522 -0.1817
26165W        W39579  15.272   1.651  10.931  0.0427  0.1632 -0.0437
26166W        W39580   6.931   6.482  11.218 -0.1352  0.0691  0.0542
26167W        W39581   0.570  16.388   0.905  0.1611 -0.0872 -0.1364
26168W        W39582   1.471   2.254   3.601  0.1616 -0.0976  0.0213
26169W        W39583   9.400   1.096  16.296 -0.0365 -0.1539 -0.0941
26170W        W39584   1.185  14.808   2.096 -0.0308  0.4064  0.1240
26171W        W39585   9.794  16.983   3.868  0.0268 -0.0191  0.0406
26172W        W39586   4.653   3.627   5.640  0.2978  0.1499  0.0700
26173W        W39587   3.384   9.340   5.638 -0.0028 -0.1367 -0.1784
26174W        W39588   6.460   0.762  13.566 -0.4948  0.0791  0.1869
26175W        W39589  13.479   1.563  16.394 -0.1708  0.1008  0.1171
26176W        W39590   8.057  10.216   4.300  0.0098 -0.0903 -0.2961
26177W        W39591  12.714  13.305   6.050 -0.2103 -0.0658  0.1912
26178W        W39592  17.866   7.070  12.710  0.1097 -0.0605  0.0734
26179W        W39593  15.829   6.060  16.334 -0.1707 -0.1701  0.1098
26180W        W39594   5.956   2.182   2.351 -0.0456 -0.1814 -0.0143
26181W        W39595  16.046  11.008  12.022  0.2042 -0.2446 -0.0289
26182W        W39596   2.228   5.478   1.270  0.1969  0.1186  0.3240
26183W        W39597  15.789  14.393   1.334 -0.0169 -0.1122 -0.4383
26184W        W39598   5.092  10.234   5.703 -0.1129  0.1680 -0.0245
26185W        W39599   7.399   7.436   0.544 -0.2255  0.1791 -0.0125
26186W        W39600   3.662   0.037  15.323  0.1193  0.3092  0.1373
26187W        W39601  18.058   0.195  12.983  0.4594  0.0974  0.1164
26188W        W39602   8.915  15.814  14.658 -0.3626  0.1520 -0.0725
26189W        W39603   8.150  14.695   4.161  0.3616 -0.2056  0.2475
26190W        W39604   9.323   4.220  12.867 -0.3158  0.0679 -0.0377
26191W        W39605  16.610   9.767   0.683 -0.0009 -0.1660  0.0336
26192W        W39606  12.220  12.338  12.881 -0.0242 -0.1188 -0.0382
26193W        W39607   3.962   4.932  11.871  0.0792  0.1014  0.1337
26194W        W39608  16.723   5.354  13.978 -0.0732 -0.1961  0.2506
26195W        W39609   7.228  17.858  11.801 -0.1895  0.2811 -0.0935
26196W        W39610  14.026   9.885  15.388  0.1559  0.4064 -0.0702
26197W        W39611   7.533  16.806   0.648  0.0179 -0.1155  0.0062
26198W        W39612  15.660  17.467  13.408  0.0175  0.0407  0.1142
26199W        W39613  14.681   0.662  10.583 -0.1884  0.0907  0.0707
26200W        W39614  11.504  11.115  13.014 -0.1378  0.2182 -0.0011
26201W        W39615   6.028   8.455  16.295  0.0264  0.0697 -0.0492
26202W        W39616  12.388  14.227   4.572  0.2173  0.0501 -0.0464
26203W        W39617   3.461  17.689   1.387 -0.1080  0.0442 -0.1711
26204W        W39618   6.922  13.719   4.987 -0.1376  0.1889  0.0229
26205W        W39619  14.657  15.858   2.744 -0.1349  0.1622  0.0913
26206W        W39620   7.230  16.689  11.654 -0.0466  0.1606 -0.0523
26207W        W39621  17.113   1.523  15.726  0.2357 -0.4303  0.0359
26208W        W39622   9.426  10.980   2.350 -0.1406  0.0148 -0.1613
26209W        W39623   5.658  17.123   1.145 -0.2524 -0.0642  0.1473
26210W        W39624   1.186   8.573   6.048  0.2083  0.1675  0.2466
26211W        W39625  15.349  13.679  11.858  0.0620 -0.0390  0.0942
26212W        W39626   1.813   3.384   3.671  0.1707  0.2090 -0.1005
26213W        W39627   3.614   8.573   1.607 -0.0705 -0.2045 -0.0623
26214W        W39628  15.728   8.866  16.144 -0.0585  0.1714 -0.0138
26215W        W39629   5.846  15.385   4.127  0.0284  0.3677  0.3599
26216W        W39630  16.054   1.633   1.789  0.1491 -0.2808  0.1614
26217W        W39631   3.341  15.852  12.144 -0.1069  0.2876  0.1458
26218W        W39632   7.309  17.488  10.483  0.0027  0.0324  0.0712
26219W        W39633   1.648   9.748   4.844 -0.1778  0.3462 -0.1305
26220W        W39634  11.473   0.627  15.052 -0.2434  0.0257  0.2294
26221W        W39635   8.497  18.119   0.175  0.1470  0.0727  0.1939
26222W        W39636   7.058  11.388   0.210  0.0995 -0.0357  0.0057
26223W        W39637   9.306   7.617   3.861  0.1455 -0.2682 -0.0718
26224W        W39638   3.278   4.627   4.987  0.2277  0.0610  0.0509
26225W        W39639   6.445  12.388   1.583  0.0165  0.5467  0.0363
26226W        W39640   6.919   2.053  13.997  0.2019  0.2250 -0.2406
26227W        W39641   1.802  12.650  12.667 -0.0652  0.1871 -0.0094
26228W        W39642   4.925   7.135  15.961 -0.1344  0.0348 -0.0259
26229W        W39643   3.975  17.511   1.129  0.0839 -0.1222 -0.1020
26230W        W39644  12.985   5.646   0.889 -0.2799 -0.0672  0.0908
26231W        W39645  11.824  14.295  15.251  0.0811  0.0718 -0.0986
26232W        W39646   6.040   2.531  13.416  0.1735 -0.1174  0.1588
26233W        W39647  17.021  13.921   0.740  0.2150 -0.1329  0.0932
26234W        W39648   8.210   3.671  15.838  0.0896 -0.1974  0.1633
26235W        W39649  12.459   0.507   4.264 -0.1726 -0.0481  0.1226
26236W        W39650   7.908  11.809   3.601 -0.0545  0.1139 -0.0845
26237W        W39651   8.616  17.956   9.790 -0.0070 -0.0126 -0.1219
26238W        W39652   7.836  10.527   3.944  0.2172 -0.1908 -0.1177
26239W        W39653  17.618  15.455  12.022  0.1246 -0.2695 -0.1455
26240W        W39654   9.550   1.076  10.388 -0.0461  0.1136  0.1350
26241W        W39655  16.245  11.312   5.744 -0.1945  0.2864  0.0794
26242W        W39656  11.836  16.384  14.831 -0.2125 -0.4770 -0.0649
26243W        W39657   4.886   5.188   0.624  0.1891  0.2447 -0.0343
26244W        W39658   0.027   0.089  12.012  0.0353 -0.1177  0.0299
26245W        W39659   9.787  17.252   1.315  0.2356  0.0969 -0.1401
26246W        W39660  18.204   0.942   4.976 -0.0027 -0.1241  0.1429
26247W        W39661   8.020   5.015   5.055  0.2626 -0.1547  0.2066
26248W        W39662  15.250   6.274   3.240 -0.3033  0.0470 -0.0833
26249W        W39663   4.705  10.211   6.084  0.0262 -0.2016  0.0639
26250W        W39664  14.126   8.399  14.613  0.2392  0.2584  0.1229
26251W        W39665  13.210   1.236  15.502 -0.0757  0.1374  0.1457
26252W        W39666   1.456  11.684  13.286  0.2038  0.1739  0.1707
26253W        W39667   0.357  16.833   3.639 -0.0168  0.3524 -0.2194
26254W        W39668   1.617   5.911   0.591 -0.2865 -0.0181  0.0151
26255W        W39669   9.414  14.130  12.947 -0.1547  0.2514 -0.4566
26256W        W39670  12.159   4.368  16.286 -0.1648  0.2585 -0.1609
26257W        W39671   4.833   9.804  12.280  0.0129 -0.1119  0.2218
26258W        W39672   5.980   7.362  12.532 -0.1782  0.1633 -0.1430
26259W        W39673  11.782   8.764   3.978  0.1223  0.3390 -0.3258
26260W        W39674   2.395   9.736  10.477 -0.1435  0.2163 -0.0279
26261W        W39675  12.414   7.968  14.248  0.3066 -0.2554 -0.1282
26262W        W39676   6.260   4.723   2.369  0.2980 -0.2106 -0.0026
26263W        W39677   4.352   4.645  12.179 -0.0368  0.0299  0.1470
26264W        W39678  11.429   6.041   6.260 -0.0968 -0.0442 -0.1946
26265W        W39679  12.947  13.347   0.784 -0.2207 -0.2125 -0.1240
26266W        W39680   6.905   3.202   5.884  0.2419  0.1260 -0.3262
26267W        W39681  13.460   5.727  16.427  0.2630 -0.1791  0.4286
26268W        W39682   2.230   3.460  11.704 -0.1986  0.0850  0.0076
26269W        W39683   6.302   0.559   5.706  0.0704  0.0777 -0.1183
26270W        W39684  10.794   0.952   3.300  0.1426  0.1166 -0.1845
26271W        W39685   9.947   2.133   1.965 -0.1173 -0.0765  0.1663
26272W        W39686   0.976  12.801   4.685 -0.0729 -0.0070  0.0248
26273W        W39687   1.122   6.451  13.244 -0.1295 -0.3500 -0.0104
26274W        W39688   1.665  16.757   5.273  0.0855  0.1091  0.2761
26275W        W39689  11.023  17.517  12.752 -0.0244 -0.0830 -0.0495
26276W        W39690  10.253   7.646  13.603 -0.0641 -0.1761 -0.1334
26277W        W39691   9.453   0.830  15.697  0.2690 -0.1460  0.3311
26278W        W39692   9.073   9.660   4.298 -0.2909  0.0058 -0.1901
26279W        W39693  14.149   1.679  15.312 -0.0228  0.0652  0.0691
26280W        W39694   8.545   9.964   4.222 -0.1746 -0.0299 -0.0825
26281W        W39695  17.862   4.711   5.862 -0.1586 -0.3212  0.4386
26282W        W39696  15.094   2.449  10.757  0.3262 -0.1237  0.1098
26283W        W39697  16.082  13.042  10.860 -0.0099  0.0438 -0.2397
26284W        W39698   3.759   9.090  13.404 -0.1233  0.1616 -0.2089
26285W        W39699   4.028  16.514  13.699  0.0022  0.1528  0.3389
26286W        W39700  16.417  16.945  15.081 -0.1495 -0.0620  0.4358
26287W        W39701   6.223   5.182   3.376  0.0879 -0.0695 -0.1677
26288W        W39702   6.892   8.722  14.900  0.0269  0.1861  0.3413
26289W        W39703  17.535   1.626  13.670 -0.0472 -0.0048 -0.1836
26290W        W39704   2.800  11.378   3.293  0.1396  0.3367 -0.1368
26291W        W39705  14.109  12.133  13.156 -0.0580  0.3561 -0.2171
26292W        W39706  10.316   8.897  15.565 -0.1768 -0.0432  0.1173
26293W        W39707   3.434  12.810  15.797  0.1122 -0.0908 -0.3979
26294W        W39708   5.480  14.474  15.065  0.3377 -0.0003  0.0452
26295W        W39709  11.883   6.993  10.548  0.1972  0.0935 -0.3770
26296W        W39710   0.104   5.305  14.886  0.0289 -0.2968 -0.0303
26297W        W39711   1.466   8.133   5.880 -0.2617 -0.0581  0.0143
26298W        W39712  16.780   4.731   0.755 -0.0600 -0.1430 -0.2192
26299W        W39713  17.415  14.472   2.734 -0.0254  0.1412  0.1640
26300W        W39714  13.058  18.047  12.963 -0.4531 -0.2951  0.0130
26301W        W39715  13.634   7.872  16.509  0.4006 -0.2624 -0.1228
26302W        W39716   4.793   4.395   0.939  0.2577 -0.1992 -0.0337
26303W        W39717   2.505   2.210  15.627 -0.1416 -0.2069  0.3363
26304W        W39718   2.523  10.675   3.546 -0.2686  0.0872 -0.0138
26305W        W39719   8.323  11.621   6.817  0.0639  0.1833 -0.1923
26306W        W39720  14.897  14.972  13.925 -0.2601  0.0752  0.1177
26307W        W39721   4.808  15.015  15.846 -0.1146  0.0850 -0.0180
26308W        W39722   2.248  13.273  10.951 -0.0115  0.1388  0.1103
26309W        W39723   0.859  14.721  11.778  0.4258  0.0067  0.4104
26310W        W39724  14.965   7.397  13.713 -0.1746 -0.1277  0.1316
26311W        W39725  13.572  13.323  11.000 -0.3542  0.1660  0.2259
26312W        W39726   0.566  10.154   6.411 -0.0546 -0.0551  0.1123
26313W        W39727   8.976  12.794  11.186  0.1225  0.0738  0.2259
26314W        W39728   2.337  14.582  16.299 -0.0305 -0.1274  0.1910
26315W        W39729   7.917  10.024   1.880  0.0524 -0.2949  0.3572
26316W        W39730  14.365  13.864  14.539  0.0757 -0.2109  0.1580
26317W        W39731  15.396   8.357  12.359 -0.0939 -0.3033 -0.3698
26318W        W39732   8.753   7.586  14.535  0.1356  0.4207  0.3225
26319W        W39733  14.365  12.751   0.966 -0.1399 -0.1752  0.0726
26320W        W39734  10.647  10.525  13.603  0.1053  0.1917  0.1569
26321W        W39735   9.890   8.510  12.251  0.0380 -0.1022 -0.0957
26322W        W39736  12.962  14.275   1.852  0.2300  0.1924 -0.2634
26323W        W39737  15.062  15.652   4.848  0.0984  0.1664 -0.0067
26324W        W39738  17.750  11.835   4.894 -0.0987 -0.1470  0.1023
26325W        W39739   3.294  13.878  10.195 -0.0433  0.0507  0.0293
26326W        W39740   6.146  10.790  16.424 -0.3020  0.2869 -0.0472
26327W        W39741  15.322  17.191  10.463 -0.0504  0.3815  0.1853
26328W        W39742   8.134  10.535  14.607 -0.0540  0.3359  0.1616
26329W        W39743  16.172  14.964  12.549 -0.1406  0.1196 -0.0476
26330W        W39744   3.515   1.737   2.966  0.1164  0.5395 -0.1446
26331W        W39745   1.533   4.786  13.646 -0.0181  0.2165  0.0049
26332W        W39746  14.878   7.253   0.053 -0.3414  0.0053  0.0783
26333W        W39747   4.696   4.538   2.826  0.0997  0.0792  0.2111
26334W        W39748   9.984   6.954  12.299  0.0335 -0.0093  0.2437
26335W        W39749  12.480   1.143  16.438 -0.1006  0.1921 -0.1662
26336W        W39750   1.492   5.599  12.008  0.0392 -0.0704 -0.2591
26337W        W39751  15.424   3.721  12.794  0.0977  0.2168  0.0517
26338W        W39752  10.688  10.197  11.448  0.2586  0.1004  0.0807
26339W        W39753  14.120  16.258  14.561 -0.2343  0.1367  0.3179
26340W        W39754   6.850   6.808  14.111 -0.0086  0.1682 -0.0990
26341W        W39755  15.971   9.243  15.766  0.0587 -0.1970 -0.1376
26342W        W39756   4.876  13.686   0.490  0.1926  0.0798 -0.0369
26343W        W39757   9.245   7.884  14.565 -0.0479 -0.2325  0.0553
26344W        W39758   1.966  14.357   0.021 -0.0245  0.3794  0.0635
26345W        W39759   9.772  12.449   0.779 -0.0450 -0.1934 -0.1801
26346W        W39760   4.661   8.574  10.274  0.0970  0.0949 -0.1916
26347W        W39761   8.894  13.343   5.807  0.0897 -0.0362  0.3176
26348W        W39762   7.745  15.407   2.972  0.1016 -0.1128 -0.0427
26349W        W39763  16.896   7.041   5.551  0.1114 -0.1262 -0.0231
26350W        W39764  11.861  10.343  14.734  0.0536 -0.1475 -0.0754
26351W        W39765  11.466  15.088  12.443 -0.1032  0.3385 -0.0772
26352W        W39766   4.980  17.869  12.663 -0.0889  0.2989 -0.0028
26353W        W39767   8.156   7.292  14.913  0.2268 -0.1495 -0.4553
26354W        W39768   9.486   3.121  13.329 -0.0852  0.3369 -0.1048
26355W        W39769   9.823   4.386  12.913 -0.0563  0.0423  0.1962
26356W        W39770   5.435   0.612  15.595  0.3930 -0.4706  0.0237
26357W        W39771   0.165  17.553   6.649  0.0435 -0.0324 -0.1174
26358W        W39772  10.922   9.895  13.943 -0.2320  0.2259  0.1876
26359W        W39773   1.915   1.904   0.972  0.3658 -0.0287  0.1030
26360W        W39774   0.971   1.084  13.256 -0.1598  0.0858  0.4499
26361W        W39775  17.280  11.118   5.216 -0.0395 -0.1073  0.1989
26362W        W39776   3.231   2.313   6.247  0.0737 -0.0468 -0.2052
26363W        W39777   0.379   2.851   5.028  0.1365 -0.3229  0.3625
26364W        W39778  14.650   3.247   6.118  0.0064 -0.1369 -0.1535
26365W        W39779  13.821   3.587   1.581 -0.0397  0.1467 -0.4382
26366W        W39780  11.059  16.781  14.198  0.1021 -0.0521 -0.3569
26367W        W39781   8.011   5.741  11.482  0.0873  0.0026 -0.3313
26368W        W39782  13.065  16.534   0.169 -0.0138 -0.0119  0.0336
26369W        W39783   2.627   2.097   0.184  0.1285 -0.1014  0.0386
26370W        W39784  13.048   7.215   6.059 -0.1905  0.3336 -0.1761
26371W        W39785   0.793   5.231   2.483  0.2752  0.1313  0.1036
26372W        W39786   2.786   1.042  12.075  0.0675  0.2345  0.0982
26373W        W39787  10.341   4.543   2.150 -0.1417  0.0325 -0.2796
26374W        W39788   9.161   9.746   3.551 -0.2346  0.1894 -0.0620
26375W        W39789   7.305  11.593   3.291 -0.0591 -0.1961  0.0610
26376W        W39790  10.293   5.140  13.750  0.3020  0.3468 -0.1281
26377W        W39791  14.085  15.854  16.120  0.0946  0.1846 -0.0743
26378W        W39792   5.215   8.411   1.877  0.1457 -0.0343  0.1364
26379W        W39793  14.104   7.318   5.016  0.2956  0.2561 -0.0985
26380W        W39794   4.595  11.848   3.511 -0.0111  0.1415 -0.1846
26381W        W39795   6.343   9.614  15.260 -0.3419 -0.1324 -0.0201
26382W        W39796   3.459   2.236   0.505  0.0653  0.3371  0.0741
26383W        W39797   9.749  17.568  14.648 -0.0431  0.0207  0.1403
26384W        W39798   2.603   9.554   0.682 -0.0713  0.2249  0.0835
26385W        W39799   0.973  10.633  15.571  0.3023  0.3095 -0.2830
26386W        W39800  11.208   4.318  11.605 -0.0616 -0.0480 -0.1107
26387W        W39801  17.153  16.846  13.558  0.0878  0.3531 -0.1038
26388W        W39802   0.233   0.314  13.633 -0.1739  0.0803 -0.2425
26389W        W39803  15.451   0.235   4.913 -0.1341  0.0467  0.2958
26390W        W39804  15.622   2.708   5.296 -0.4350  0.1157  0.1158
26391W        W39805  15.846   5.444   0.789 -0.1343 -0.2442 -0.0347
26392W        W39806  15.322  10.952  13.218  0.1050 -0.2509  0.1101
26393W        W39807  16.033   4.309  10.697 -0.1900  0.0568 -0.1027
26394W        W39808   2.221   9.334  11.378  0.1701 -0.3189  0.0100
26395W        W39809   7.378   5.929  13.794 -0.1782  0.3305 -0.0368
26396W        W39810  17.768  17.349   5.270 -0.0259 -0.1202  0.0833
26397W        W39811   5.559  17.298   4.067 -0.1096 -0.0920 -0.2298
26398W        W39812  17.917  15.408   1.431  0.2086 -0.0842  0.1468
26399W        W39813   0.702   4.787   3.614  0.1195 -0.0441  0.0558
26400W        W39814  12.331  12.071  13.802  0.2211  0.3736  0.5021
26401W        W39815   4.790  12.126  13.443  0.3723  0.0788 -0.0677
26402W        W39816   5.047   1.298  14.710  0.0084 -0.1485  0.2627
26403W        W39817   7.199  16.207   1.936  0.0920 -0.1054 -0.0922
26404W        W39818  11.893  12.381   2.876 -0.1980  0.0281  0.1839
26405W        W39819   3.477   0.784   1.109 -0.2799  0.1327 -0.0796
26406W        W39820   9.966   3.446  16.390 -0.0071  0.0752  0.1347
26407W        W39821   4.547   7.119   2.773  0.0871  0.0473  0.1273
26408W        W39822   4.880   6.498  11.054 -0.0505  0.0029  0.0522
26409W        W39823   3.252   6.228   6.247  0.0873  0.0196  0.0188
26410W        W39824  15.221  11.046  11.448  0.0379 -0.0022 -0.0160
26411W        W39825   9.960  12.590   1.651 -0.1731  0.0358 -0.1559
26412W        W39826  16.049   2.193  15.643 -0.0921 -0.0299  0.0900
26413W        W39827  17.041  11.287  14.432  0.2378 -0.2067 -0.4075
26414W        W39828   0.093  17.516   3.567  0.0331  0.0227  0.1047
26415W        W39829   5.788   3.635   0.779 -0.2616  0.3342  0.1188
26416W        W39830  13.026   5.001  14.731  0.3345 -0.1740  0.3354
26417W        W39831  17.603  10.155   1.914 -0.3636 -0.0564  0.1639
26418W        W39832   1.974  10.708   3.385  0.2394  0.3002  0.0993
26419W        W39833   7.285  10.469   5.605  0.0075  0.0556  0.0869
26420W        W39834  13.241   0.121   0.746  0.2934  0.2070 -0.0552
26421W        W39835   0.108  15.877  10.793  0.1102 -0.0697 -0.2718
26422W        W39836  14.866   7.436   2.097  0.1588 -0.1013 -0.3171
26423W        W39837   0.757   1.538  11.293 -0.2475  0.2454  0.3207
26424W        W39838   2.945  18.079  11.524 -0.1010 -0.0816 -0.1142
26425W        W39839   9.965  15.543   2.193 -0.1617  0.4405 -0.0148
26426W        W39840  15.194  16.569  11.142  0.1483  0.0413 -0.2882
26427W        W39841  16.096   1.127  11.936  0.3134  0.2827 -0.2277
26428W        W39842   1.823   0.840   5.469 -0.0280  0.0721  0.0296
26429W        W39843   9.546   0.520  10.841 -0.0378  0.0884  0.2925
26430W        W39844  17.230  13.722   0.233  0.0797  0.2318  0.0420
26431W        W39845  10.498   5.725  12.003 -0.2546 -0.0314  0.0201
26432W        W39846  17.606  13.822  13.657 -0.3237  0.1719 -0.0203
26433W        W39847   0.686  11.370  11.800  0.0664 -0.1230  0.2823
26434W        W39848  14.851   8.292   0.206  0.0336  0.0052  0.0337
26435W        W39849   2.970  16.146   4.469  0.3175 -0.3204 -0.2298
26436W        W39850  11.930   0.754  15.878  0.3063 -0.1702 -0.1463
26437W        W39851  11.353  14.102   3.289 -0.1283 -0.1618 -0.2546
26438W        W39852   1.236   5.758  10.502  0.0427 -0.4226  0.1164
26439W        W39853  12.102   6.868  11.427 -0.1600  0.3181 -0.3557
26440W        W39854   7.099  11.687   4.169 -0.1640  0.0647 -0.0186
26441W        W39855  15.815  16.377  11.964 -0.0958  0.0972  0.0494
26442W        W39856   0.816  12.788  13.815 -0.1132  0.0176  0.1571
26443W        W39857  11.836  11.214  11.047 -0.1604  0.2749  0.2456
26444W        W39858   5.901  12.651   3.602  0.2339  0.0695  0.2297
26445W        W39859   0.141   9.960  14.467 -0.2096  0.1032 -0.0873
26446W        W39860   3.340  11.182  13.360  0.1881 -0.3518  0.2929
26447W        W39861   8.037  15.407  11.602 -0.5039 -0.2794 -0.1842
26448W        W39862  11.708  17.960  11.005 -0.1761 -0.3077 -0.0892
26449W        W39863   6.952  10.776  13.906  0.2144  0.1788 -0.1859
26450W        W39864  10.422   4.476  14.408  0.0517  0.3271 -0.2372
26451W        W39865   0.654  10.766   3.985  0.1127 -0.3554  0.1094
26452W        W39866  11.851   7.846  13.377  0.0608  0.0065  0.0886
26453W        W39867  15.000  12.204   0.252 -0.0592 -0.2314  0.0292
26454W        W39868  11.535   1.053  12.046 -0.0881  0.1882 -0.0498
26455W        W39869   9.799   7.603   5.680  0.2889  0.0492 -0.2986
26456W        W39870   3.926   0.340  14.109  0.0258 -0.2421  0.1655
26457W        W39871  10.107  14.594   2.812 -0.2001  0.1921  0.0781
26458W        W39872   3.480   5.454  11.150 -0.1190 -0.3094 -0.0901
26459W        W39873   8.585  10.957   5.687  0.0152 -0.2456  0.0531
26460W        W39874   7.522   2.832  11.847 -0.0259  0.0165 -0.1387
26461W        W39875   2.903   1.236  14.266 -0.3631 -0.0359  0.2052
26462W        W39876   2.327  15.589  12.438 -0.0582  0.1443 -0.1371
26463W        W39877   9.741   3.043  10.114 -0.0929  0.2342 -0.2199
26464W        W39878  11.589  12.876   3.525 -0.0028 -0.0512  0.0069
26465W        W39879   2.073  14.709   5.669 -0.1155 -0.1605  0.1104
26466W        W39880   9.776   7.681   2.909 -0.0308  0.2278  0.0931
26467W        W39881  14.943   3.994  12.942 -0.1511 -0.0590 -0.1246
26468W        W39882   8.414   6.800   0.761 -0.1521 -0.0810  0.0797
26469W        W39883   3.057   2.739  16.368  0.2899 -0.1990 -0.1179
26470W        W39884   4.004   3.574  15.441 -0.0174  0.0586 -0.0252
26471W        W39885   1.530   9.684   3.448  0.1392 -0.0633 -0.0985
26472W        W39886  17.822  13.854  11.671  0.3692 -0.0793 -0.0494
26473W        W39887   8.205  11.220  16.117 -0.0149 -0.0525  0.0982
26474W        W39888   0.843  15.614   3.861  0.2291 -0.2262 -0.1238
26475W        W39889  11.878  13.434  12.032 -0.1423 -0.0205 -0.0048
26476W        W39890  13.189  13.988  13.670  0.0253 -0.0222  0.0758
26477W        W39891   2.185  10.831  11.256  0.0255 -0.2750  0.2172
26478W        W39892   7.977  12.508  13.246 -0.3042  0.0507  0.0204
26479W        W39893  13.850  12.603   0.912 -0.3112  0.0458 -0.0936
26480W        W39894  13.380   4.816   1.062  0.0113  0.1814  0.3729
26481W        W39895   5.219  15.078   2.975 -0.3395  0.2868 -0.2039
26482W        W39896  14.283   6.363  14.271 -0.1344 -0.0385  0.0148
26483W        W39897  16.494  11.982  14.029 -0.0053  0.1325 -0.3186
26484W        W39898  11.075   0.966  15.113  0.1380  0.0723 -0.0647
26485W        W39899  17.769   7.088   1.610 -0.0429 -0.1723  0.0862
26486W        W39900  15.614   4.116   1.431 -0.0541  0.1477  0.1792
26487W        W39901   6.718   8.463   0.484  0.0792 -0.0762 -0.0295
26488W        W39902   4.508  16.223   3.835  0.1541 -0.1503  0.0713
26489W        W39903   6.740   5.412   0.777 -0.2639 -0.1659 -0.2362
26490W        W39904   2.962   4.362   1.062  0.0268  0.0022 -0.1005
26491W        W39905  13.375   5.887  14.219  0.0872  0.1567  0.1958
26492W        W39906   4.243  15.986   1.412 -0.2359 -0.3345 -0.0307
26493W        W39907   0.399  11.085   5.784 -0.1282  0.1214  0.0201
26494W        W39908   8.139   1.348   5.185  0.1706  0.0407 -0.0079
26495W        W39909   4.282   7.076   1.223 -0.1441  0.0757  0.1115
26496W        W39910   8.979   8.835  14.198  0.0581 -0.1714  0.1500
26497W        W39911   3.075  17.830   0.641 -0.1230  0.2373 -0.2855
26498W        W39912  12.997   4.678  15.486 -0.0964  0.0879  0.2757
26499W        W39913   3.842   6.941   0.444  0.5826 -0.2647  0.6823
26500W        W39914  16.727   3.167   4.232  0.5564  0.0992  0.3225
26501W        W39915   8.165   4.130   5.178 -0.3722  0.1343 -0.0724
26502W        W39916   1.995   6.442   5.897  0.1444 -0.0730 -0.1630
26503W        W39917  12.394  12.717   4.650 -0.0600 -0.0577 -0.1994
26504W        W39918   0.100   2.231   5.921 -0.1539 -0.1712 -0.1417
26505W        W39919  14.107  16.872  13.496  0.1010  0.0859  0.0878
26506W        W39920  15.706   7.548  12.675  0.0454  0.2628 -0.0460
26507W        W39921  12.975   5.697   0.107 -0.3118  0.1776 -0.1199
26508W        W39922   6.958  12.033   6.409  0.1129 -0.1026  0.1892
26509W        W39923   2.391  16.320  14.972 -0.1095 -0.1266 -0.2844
26510W        W39924  11.840   7.807  12.834 -0.2727 -0.1997  0.0477
26511W        W39925  13.403   4.848  11.598 -0.0396  0.1152 -0.0106
26512W        W39926   9.511  11.385   6.747  0.0578  0.0253 -0.0521
26513W        W39927   1.244  11.805  15.354 -0.3652 -0.2019 -0.2391
26514W        W39928   5.450   4.636   5.425 -0.2124 -0.1834  0.1116
26515W        W39929   5.507  12.045   0.500  0.1617  0.1584 -0.1297
26516W        W39930  15.742   7.871  13.188  0.1385 -0.1094  0.1306
26517W        W39931   4.265   1.033  16.473 -0.1226  0.2051 -0.1863
26518W        W39932  16.358  16.428  15.180  0.1828 -0.4362 -0.1364
26519W        W39933  14.396  17.556  11.880 -0.1819 -0.1328 -0.1199
26520W        W39934   1.164   0.208  15.227 -0.1753 -0.1751 -0.0877
26521W        W39935  10.878   1.662   3.913 -0.1756  0.4315  0.1430
26522W        W39936   2.560  13.355   1.138  0.1672  0.0677  0.0620
26523W        W39937   6.458   6.529  11.193 -0.2862  0.1443 -0.1021
26524W        W39938  15.376   7.711   3.822 -0.0295 -0.0227 -0.1788
26525W        W39939  12.240  14.067  15.738 -0.1554  0.0480 -0.0004
26526W        W39940  12.441   4.320  13.028  0.2018  0.1285 -0.1011
26527W        W39941  12.454   9.420   6.515 -0.1106 -0.1035 -0.0173
26528W        W39942   5.758   8.952  16.218 -0.1219 -0.0427  0.0758
26529W        W39943  15.552   1.686  13.123  0.0338 -0.0738 -0.3955
26530W        W39944   2.736   1.666  11.109 -0.0835 -0.0421 -0.0402
26531W        W39945  11.447   8.538   4.696 -0.2502  0.0059 -0.2729
26532W        W39946  17.267  10.141   3.211 -0.0357 -0.0535 -0.3244
26533W        W39947   4.312  11.922   0.288 -0.2231 -0.0727 -0.1453
26534W        W39948   9.710   0.432   3.470  0.0234 -0.1154  0.1888
26535W        W39949  18.093  18.198   0.907 -0.1600 -0.3968 -0.1295
26536W        W39950   5.366   5.198   1.584 -0.0720  0.1374  0.1757
26537W        W39951   5.722  13.468   3.833  0.4224 -0.0364 -0.1032
26538W        W39952  10.393   7.604  10.907 -0.0326  0.2072  0.0510
26539W        W39953  11.383   2.238   5.505  0.0884 -0.0408 -0.3658
26540W        W39954  14.323  17.113   4.041 -0.1856 -0.0139  0.2859
26541W        W39955   2.136   9.655   5.967  0.0011 -0.1141 -0.1782
26542W        W39956  11.115  16.482  13.384 -0.2762  0.0244 -0.1149
26543W        W39957  13.584   7.807   6.806  0.2147  0.2234  0.0654
26544W        W39958   8.161  14.636  13.021  0.1369  0.0457 -0.0981
26545W        W39959   2.509   1.831  13.310  0.2146 -0.1626  0.1128
26546W        W39960   7.474   1.442  14.234  0.2202  0.1089 -0.2586
26547W        W39961   6.297  12.695   3.897 -0.3701 -0.1436 -0.0970
26548W        W39962   6.010  13.242  12.160 -0.0704 -0.0422  0.1025
26549W        W39963   6.350  17.406  12.655 -0.0299 -0.0644  0.2179
26550W        W39964   7.448  13.834   4.704 -0.1036  0.1296  0.1951
26551W        W39965   3.241   0.593   4.235 -0.2206 -0.1103 -0.0973
26552W        W39966  14.917  10.622   2.200  0.2775  0.1892 -0.3341
26553W        W39967   4.544   2.036  13.340  0.1969  0.0656 -0.4331
26554W        W39968  11.304   4.779  16.321 -0.2551 -0.0419  0.0338
26555W        W39969   6.153  14.424   0.868  0.3128  0.3614 -0.0474
26556W        W39970  15.484   8.957  15.731  0.0871 -0.2158  0.1546
26557W        W39971  13.269   2.226  14.598  0.1571 -0.0297 -0.1386
26558W        W39972   1.276   7.596   0.118 -0.2067 -0.1361 -0.3090
26559W        W39973  10.953   6.569  10.531  0.0689 -0.0017 -0.4055
26560W        W39974   7.404   2.400   1.873 -0.1126 -0.3769 -0.0705
26561W        W39975  16.386   2.826  12.529  0.0222  0.0411  0.0188
26562W        W39976   0.172   5.752  10.984 -0.1535 -0.0084 -0.1404
26563W        W39977  14.238  13.410   2.723 -0.1540 -0.0149  0.1098
26564W        W39978   7.066   7.315   0.206 -0.1568  0.1010  0.1143
26565W        W39979  18.212   4.850   2.120  0.1457  0.1569  0.3855
26566W        W39980   2.259  16.726  15.374 -0.2342 -0.1686  0.0124
26567W        W39981   6.995   7.475  12.982 -0.0753  0.3358 -0.0012
26568W        W39982  11.912  14.488  15.715 -0.2695 -0.0163 -0.1709
26569W        W39983   1.598   8.854  12.741 -0.0352  0.1621 -0.3729
26570W        W39984   7.814  13.374  13.931  0.1432  0.0002  0.0383
26571W        W39985  18.022  17.194   4.336 -0.0659 -0.5064  0.3783
26572W        W39986  11.416   8.680  15.313  0.2502  0.2352 -0.0931
26573W        W39987   4.438   9.386  11.563  0.1408  0.3356 -0.3380
26574W        W39988   3.735  11.283   2.707  0.0426 -0.2873  0.0145
26575W        W39989  13.288  15.788   3.936 -0.1564 -0.4580  0.1452
26576W        W39990   2.809   1.036  11.071  0.2090  0.0129  0.3267
26577W        W39991  11.705   0.978  13.625 -0.0801  0.1306  0.2157
26578W        W39992   9.412  15.027  12.059  0.2144 -0.2411 -0.3142
26579W        W39993   6.193  16.630   4.158  0.0987  0.0430 -0.1434
26580W        W39994  12.623  10.313  13.380 -0.2024  0.2284  0.2744
26581W        W39995   1.724  11.102   2.385 -0.3649  0.1431  0.0896
26582W        W39996   8.941  14.264   3.782  0.0805 -0.0976  0.1116
26583W        W39997   5.967  12.082  16.177 -0.2512 -0.1956  0.0036
26584W        W39998  10.760  12.305  11.290  0.2641 -0.1983  0.1746
26585W        W39999  18.134  16.070   0.411 -0.0267  0.1462  0.0228
26586W        W40000   5.372   6.718  12.892 -0.2632 -0.0994 -0.0336
26587W        W40001  11.883   2.411  12.988 -0.1587 -0.2376  0.0724
26588W        W40002   7.283   7.419  11.360 -0.1675 -0.0987  0.2300
26589W        W40003   9.488  15.309   5.001  0.3346  0.2062  0.1373
26590W        W40004  17.710  15.662   3.761  0.0890 -0.1732 -0.2848
26591W        W40005   3.893  16.349  11.547 -0.0165  0.0301 -0.1470
26592W        W40006  17.587  12.652  12.170 -0.0116  0.2394  0.3981
26593W        W40007  10.615  18.062  14.505  0.0642 -0.0593  0.1108
26594W        W40008   2.537  16.390   5.218  0.0710 -0.0987  0.1194
26595W        W40009   7.318   8.029   1.201  0.2593  0.1863 -0.1089
26596W        W40010  14.455  10.441  13.018  0.2712 -0.2658 -0.1317
26597W        W40011  15.378  15.999  16.425 -0.0721 -0.0470 -0.1329
26598W        W40012  17.992  15.942   5.190  0.2710  0.2855 -0.1274
26599W        W40013  17.786   5.778  16.034 -0.0850 -0.1915 -0.0782
26600W        W40014  10.629   8.888   5.637  0.0036 -0.1051  0.0470
26601W        W40015  12.307   5.092   1.974  0.3838 -0.0641  0.0633
26602W        W40016  16.503   4.281  10.887 -0.0568 -0.0920 -0.2190
26603W        W40017  17.163  12.714   5.533  0.1952  0.4138  0.0266
26604W        W40018  10.638   6.961  14.186 -0.0012 -0.0427  0.2993
26605W        W40019  16.011  12.616  15.070 -0.1469  0.5122 -0.0387
26606W        W40020  18.078   6.796  13.394 -0.0493  0.0494 -0.3251
26607W        W40021   1.062   0.947   0.091  0.2601 -0.2758  0.0540
26608W        W40022  18.086   7.567   4.720  0.0938 -0.0457  0.1282
26609W        W40023   3.715  14.333   5.781  0.2898 -0.0008 -0.2322
26610W        W40024   2.931   9.195   3.359  0.2728  0.0374  0.0498
26611W        W40025  13.655  13.625   3.519  0.1042  0.1393  0.0918
26612W        W40026  17.949  11.347   0.958  0.0342  0.3574 -0.0458
26613W        W40027   3.137   3.378   5.143 -0.2628 -0.1954  0.0374
26614W        W40028  16.706  15.723  13.979 -0.4483 -0.1155  0.2310
26615W        W40029   7.994   0.725  15.998 -0.0937  0.1714  0.0518
26616W        W40030   1.531   1.714   5.974 -0.0811  0.2320  0.0101
26617W        W40031  10.030   5.933   1.840  0.0530  0.2098  0.0182
26618W        W40032   8.926  12.420  16.120 -0.3609 -0.0585 -0.0709
26619W        W40033   6.885  14.842  11.578  0.3217 -0.2863 -0.0768
26620W        W40034   8.837   7.817  10.369 -0.2752  0.3020 -0.0777
26621W        W40035   7.706  12.988  14.253 -0.1355  0.1743 -0.2225
26622W        W40036  13.197   8.731  13.942 -0.1225  0.0400 -0.2350
26623W        W40037  11.665  17.818   2.855 -0.1892 -0.1537 -0.1805
26624W        W40038  16.722  10.409   0.016 -0.0725  0.1774 -0.1119
26625W        W40039  12.293   1.489  15.098  0.1652  0.0726 -0.4535
26626W        W40040  13.836  15.907   4.312 -0.1435  0.5550 -0.1027
26627W        W40041  15.396   2.320   3.201 -0.2816 -0.0692 -0.1891
26628W        W40042   3.837   1.167   1.106 -0.3348 -0.1251 -0.1463
26629W        W40043   8.684   6.755   5.578 -0.1355  0.1592  0.0067
26630W        W40044   7.872  16.659   4.890  0.2084 -0.1129  0.1300
26631W        W40045  18.001   8.973   2.569  0.1236  0.1408  0.1098
26632W        W40046  14.968  17.075   0.744  0.3771  0.0728 -0.0028
26633W        W40047   3.776   4.142   0.821 -0.1668  0.4976  0.1347
26634W        W40048  10.698  16.348  14.334  0.1345 -0.0768 -0.0565
26635W        W40049   9.248   7.529   5.500  0.0955  0.0763 -0.1788
26636W        W40050   5.660  13.052   0.811 -0.1858  0.0788  0.0730
26637W        W40051   2.468   7.255  14.320  0.0713  0.3446 -0.0794
26638W        W40052   0.966   0.317   1.553  0.2580  0.1454 -0.1661
26639W        W40053   6.308  17.942  11.955  0.0644 -0.1785  0.3290
26640W        W40054  11.169  16.291  10.390 -0.1834  0.2320 -0.0583
26641W        W40055  10.689   5.220  15.467  0.0367 -0.2492 -0.0820
26642W        W40056   5.798   2.912  13.203  0.0274 -0.4580  0.1182
26643W        W40057   3.010   9.036  13.836  0.1965  0.1174  0.1767
26644W        W40058   8.442  14.235   3.973  0.2372  0.1953  0.1563
26645W        W40059   6.600   5.676  15.647 -0.0171 -0.4624 -0.0246
26646W        W40060   6.376   7.994  12.862  0.0197 -0.0670 -0.0126
26647W        W40061   7.555   3.352   0.932  0.1344 -0.0882 -0.1013
26648W        W40062  14.247  14.067  10.611 -0.0036  0.3096 -0.1151
26649W        W40063   6.992  12.527   2.401  0.1036 -0.0001  0.1422
26650W        W40064   7.946  10.465   1.962 -0.0225  0.1690 -0.0457
26651W        W40065   5.221   5.939  13.848 -0.2898 -0.0362 -0.2314
26652W        W40066   1.264  11.903  11.855  0.0032 -0.1904 -0.1071
26653W        W40067   3.394  15.663  11.309 -0.0199  0.1183  0.4467
26654W        W40068   5.147  11.095  13.867 -0.0297 -0.0275 -0.1967
26655W        W40069   3.221  13.336   5.188 -0.0071 -0.2356  0.0271
26656W        W40070   2.689   5.708   3.398 -0.1540  0.1052  0.1243
26657W        W40071  13.137  12.160  12.359  0.3085  0.2055 -0.0123
26658W        W40072  11.405   9.865   1.727  0.0208 -0.3170  0.1588
26659W        W40073  12.541  12.781   5.205  0.2524 -0.0580  0.0602
26660W        W40074  14.039   3.128  10.987  0.0747 -0.0772  0.2647
26661W        W40075   2.033   6.315   0.908 -0.0579 -0.0751  0.1739
26662W        W40076  13.055   1.883   3.572  0.0187 -0.0379 -0.0648
26663W        W40077  15.113   3.580   2.738 -0.0062 -0.2910  0.1911
26664W        W40078  15.285  11.968   5.541  0.1135 -0.2008 -0.2884
26665W        W40079  10.347   8.684  14.563 -0.0512  0.1389  0.2244
26666W        W40080   4.526  13.582   6.417 -0.0449 -0.0850  0.1612
26667W        W40081   0.259   1.477  14.029 -0.0452  0.2853 -0.1254
26668W        W40082   8.405  15.361   0.831 -0.1734  0.1751 -0.2711
26669W        W40083  13.597  11.888   0.450  0.1326  0.1191  0.0295
26670W        W40084   8.460  18.131   1.385  0.0255 -0.1087 -0.0276
26671W        W40085  15.334  14.563  15.191 -0.1089 -0.2216  0.1316
26672W        W40086  10.765   3.469   9.568  0.0045 -0.0044 -0.0654
26673W        W40087   9.569  18.197   1.825 -0.0025 -0.2668 -0.0102
26674W        W40088  15.822   5.989   5.062 -0.0971  0.1058 -0.0340
26675W        W40089   4.443   0.363  11.727  0.2257 -0.0034  0.1314
26676W        W40090  17.531  15.463  13.819 -0.0638  0.0332 -0.2540
26677W        W40091  17.605  12.722   6.281 -0.2616 -0.0709  0.1852
26678W        W40092   9.906  17.330  15.573  0.2456  0.1665 -0.2722
26679W        W40093   6.645   4.400  12.046 -0.1033  0.1352 -0.0040
26680W        W40094  11.694  14.850   0.910 -0.0410 -0.1474 -0.0829
26681W        W40095  14.475   7.144   5.469  0.1335 -0.2043 -0.0553
26682W        W40096   3.938   6.991  11.744 -0.0837 -0.1411  0.0878
26683W        W40097   7.508  11.870  12.945  0.0913 -0.1351  0.0473
26684W        W40098  13.370  11.204   2.708 -0.1605  0.0761  0.1797
26685W        W40099   6.698   3.103   4.910 -0.0546  0.0207 -0.0153
26686W        W40100  16.860   0.963  13.526 -0.0742 -0.1748  0.1067
26687W        W40101  15.301   9.319  14.878  0.2670  0.0495  0.0654
26688W        W40102   9.383   8.436  16.429 -0.1534 -0.0363 -0.0971
26689W        W40103   3.497   1.483   2.044  0.0437 -0.0832  0.1157
26690W        W40104  12.366  16.625  13.040  0.0707 -0.0038  0.1649
26691W        W40105   7.274  12.696   4.157  0.0720 -0.3496 -0.4236
26692W        W40106   0.037  14.488  12.676  0.1065 -0.1388  0.0185
26693W        W40107   9.508  11.240   1.932 -0.0492 -0.3328  0.0680
26694W        W40108   5.083   3.036   2.453 -0.0274 -0.4083  0.0072
26695W        W40109   9.473   4.923  14.858 -0.1366  0.0707 -0.0515
26696W        W40110  11.661   9.026   6.072  0.0473 -0.0639 -0.1525
26697W        W40111   2.583  15.516   3.902 -0.1643  0.2817  0.2050
26698W        W40112  16.548   5.497  11.653 -0.3140  0.0951 -0.2870
26699W        W40113   8.169  16.735   1.444  0.1871  0.3228  0.3522
26700W        W40114   8.924   4.591  12.585  0.1856  0.0277 -0.2949
26701W        W40115   7.730  14.832   4.464 -0.1846  0.0177  0.1517
26702W        W40116   3.065  17.345   0.403 -0.0819  0.0662 -0.0225
26703W        W40117  16.866  13.189   1.522 -0.0392  0.2486 -0.0334
26704W        W40118   7.554   5.460  13.724 -0.0402 -0.1613 -0.1875
26705W        W40119  14.881   9.163  16.159  0.0126  0.1659  0.0476
26706W        W40120   8.004   6.747   1.693  0.0804 -0.1184  0.3789
26707W        W40121   9.313   6.584  12.997 -0.0808 -0.0328 -0.1143
26708W        W40122  15.169  12.373  13.438  0.3647 -0.0035  0.1533
26709W        W40123  17.045   9.509   4.377 -0.0005  0.2206  0.3051
26710W        W40124  16.772   4.465   1.187 -0.1406  0.2618 -0.1289
26711W        W40125   3.862   5.090   7.040 -0.0530  0.1312 -0.1590
26712W        W40126  16.037  17.917   2.713  0.0794  0.0073  0.1291
26713W        W40127  16.189  12.741   1.925 -0.0098  0.0928 -0.0605
26714W        W40128   8.554  13.989  15.726 -0.1807  0.0208  0.2263
26715W        W40129  15.930  17.221  11.230  0.0544 -0.2010  0.0129
26716W        W40130   6.360   0.038   0.531  0.0232  0.1779  0.2047
26717W        W40131   7.862   4.121  13.452 -0.0805 -0.2066 -0.0680
26718W        W40132  13.637   8.102  12.851 -0.3168  0.2359 -0.2598
26719W        W40133  15.827   2.340  15.242 -0.0184 -0.0414  0.1579
26720W        W40134   0.121   4.035   0.280 -0.0793  0.0638  0.0538
26721W        W40135  17.421   2.978  14.930  0.2243 -0.1677 -0.0753
26722W        W40136   2.911   7.216  12.664  0.0566 -0.1888 -0.1586
26723W        W40137   1.736   4.776  11.810 -0.0450 -0.1472 -0.2530
26724W        W40138   6.244  12.769   0.696  0.2560 -0.6412  0.1681
26725W        W40139   5.618  15.271   5.112  0.0258 -0.0950  0.1899
26726W        W40140   2.439   8.972  13.710  0.1821 -0.0267  0.3222
26727W        W40141   8.920  15.898   4.852  0.0320 -0.2306  0.0310
26728W        W40142   7.818  13.951   3.063  0.2005  0.0124 -0.1024
26729W        W40143  15.490  17.376   4.430 -0.2781 -0.0089  0.0691
26730W        W40144  17.603   6.882   3.487 -0.0608  0.1531 -0.1705
26731W        W40145  17.854  12.252   4.419 -0.1602 -0.1475  0.2276
26732W        W40146  15.129  17.470  14.811  0.1081  0.0649  0.0178
26733W        W40147  13.743   4.356  16.339  0.0618 -0.0003  0.1682
26734W        W40148   5.946  15.186  14.621  0.0522 -0.0065  0.2157
26735W        W40149  16.917   2.611  15.584 -0.0670  0.2547  0.1662
26736W        W40150  11.959   0.934   0.778  0.4259  0.2243  0.0278
26737W        W40151   0.318  12.963  11.412  0.0472 -0.0323  0.1792
26738W        W40152   5.947  16.968  16.382  0.0976 -0.1739 -0.1364
26739W        W40153   7.362  13.757  14.664 -0.2096  0.0966  0.1429
26740W        W40154  14.166   7.684   0.608 -0.1903 -0.0400  0.1014
26741W        W40155   3.419  11.002  12.357 -0.0927  0.3662 -0.1582
26742W        W40156   6.468  10.390   4.029 -0.0905 -0.0617  0.1023
26743W        W40157   4.733   4.428  16.123  0.1711 -0.3509  0.3821
26744W        W40158   8.522   2.954  15.537  0.3688 -0.2422  0.1507
26745W        W40159  16.080  14.088  12.137  0.0228  0.2860 -0.3477
26746W        W40160  16.350  14.224  10.613  0.1378  0.0182  0.1179
26747W        W40161  18.218   7.789   0.390 -0.0437  0.2877  0.1036
26748W        W40162  10.334   9.377  14.452 -0.0237 -0.3373  0.0089
26749W        W40163   4.841   4.321   2.259  0.1809 -0.0723 -0.0212
26750W        W40164  16.744  13.635  12.348 -0.2746  0.1204  0.0733
26751W        W40165  17.432  15.712  11.609 -0.1379 -0.2230  0.0456
26752W        W40166  17.840  16.317   1.870 -0.1144 -0.2310 -0.1790
26753W        W40167   6.056   6.026   4.594  0.0843 -0.1892  0.0349
26754W        W40168   2.264   5.788  16.236  0.1240 -0.4287  0.2078
26755W        W40169   1.659  12.250   2.518 -0.1968 -0.1494 -0.1478
26756W        W40170  14.155  12.331   6.045  0.4169 -0.2845 -0.0570
26757W        W40171  16.374   0.753  11.228 -0.3090  0.0574  0.0357
26758W        W40172  14.634  16.372   3.028  0.0717  0.2272 -0.1023
26759W        W40173   0.702   3.295   6.110 -0.3557 -0.0489 -0.1866
26760W        W40174  17.941  17.921  12.925  0.1213  0.1343  0.0635
26761W        W40175  10.612   4.077  14.774  0.2010  0.2149  0.0837
26762W        W40176   6.557  16.512   4.582  0.4178  0.1956  0.0698
26763W        W40177   9.824   9.326  11.032  0.2643  0.2818  0.1614
26764W        W40178   1.594  17.049   1.772 -0.1385 -0.2186 -0.2795
26765W        W40179   6.546  16.905   1.597 -0.2314 -0.0285 -0.0984
26766W        W40180   1.762  14.858  12.234 -0.0146  0.1180  0.0242
26767W        W40181  16.473   2.940  15.899 -0.0321 -0.2108 -0.0749
26768W        W40182  12.831   2.705  11.276 -0.1958 -0.1538  0.1534
26769W        W40183   2.050   4.795  16.097  0.3496 -0.0329  0.1421
26770W        W40184   6.674   7.201  16.255 -0.1107 -0.0503 -0.0842
26771W        W40185   5.381   8.432   5.073  0.3270 -0.0323 -0.0201
26772W        W40186   7.802   2.074   1.892  0.0742  0.0497  0.1368
26773W        W40187  12.993  18.184  12.424 -0.3678 -0.0603  0.1099
26774W        W40188  14.483   3.351  13.062  0.1803  0.0402  0.0974
26775W        W40189   1.811   8.313  13.474  0.0427  0.2550  0.0101
26776W        W40190  13.005  13.296   0.052 -0.0625  0.0073 -0.3923
26777W        W40191  11.631   4.032   0.662 -0.2901 -0.3802 -0.2283
26778W        W40192   6.026  11.997  12.282 -0.2312 -0.1134 -0.2057
26779W        W40193  12.188   8.214   2.048  0.0280 -0.0559 -0.0730
26780W        W40194   3.069  16.859  14.594 -0.0229 -0.0444 -0.2356
26781W        W40195  11.465  15.825   5.816 -0.2374  0.0012 -0.0632
26782W        W40196   9.345   0.933   0.694  0.2108 -0.0326  0.1558
26783W        W40197  15.177  13.910  13.012  0.0348  0.1852 -0.2158
26784W        W40198   1.594   7.476   3.813 -0.1413  0.2003 -0.4406
26785W        W40199  17.982   4.293  12.231 -0.0292 -0.1172 -0.0619
26786W        W40200   6.506  17.329   3.972 -0.1161  0.1080 -0.0036
26787W        W40201   7.246  15.989   2.466  0.0759 -0.0878 -0.3100
26788W        W40202  11.269  17.648   0.066 -0.0248 -0.3404 -0.1785
26789W        W40203  15.164   0.098  15.079 -0.3028  0.0106  0.1585
26790W        W40204   8.458  13.872   2.434 -0.0384  0.2860 -0.0491
26791W        W40205  10.241   9.372   6.093  0.0475  0.0768 -0.3140
26792W        W40206  13.934  11.765  12.796 -0.3178 -0.1275 -0.0690
26793W        W40207  17.085   5.479  11.501 -0.1604  0.2725 -0.1606
26794W        W40208  14.693  14.192  14.341  0.1444  0.2654  0.1086
26795W        W40209  14.097  13.495   6.183 -0.0801  0.2149 -0.2038
26796W        W40210   9.333   2.615  15.443  0.2665  0.2575 -0.5285
26797W        W40211  15.361  15.474  16.319  0.2673 -0.1535  0.1119
26798W        W40212  18.164   8.741  14.327  0.1140 -0.1115  0.1689
26799W        W40213   0.827   4.771  10.654 -0.2211 -0.0621  0.0935
26800W        W40214   4.933  17.051  11.005  0.2128 -0.3032 -0.1917
26801W        W40215   0.430  16.594  15.844  0.1023  0.1642  0.3137
26802W        W40216  14.202   5.514   1.451 -0.0343 -0.0120  0.1739
26803W        W40217   4.259  10.535   4.188 -0.3242 -0.0743 -0.2013
26804W        W40218  16.662   1.381  14.285  0.3255 -0.1111  0.1184
26805W        W40219   0.099   9.371  11.750  0.1545  0.0827  0.2182
26806W        W40220   0.154   8.298   1.577  0.2194 -0.1112 -0.2562
26807W        W40221  11.680   5.154  11.510 -0.0778 -0.1234  0.0505
26808W        W40222  16.186   2.094   1.585  0.1185  0.0852 -0.0565
26809W        W40223  16.857   5.710   5.340  0.1926  0.0812 -0.0877
26810W        W40224  10.929  17.273   0.136  0.0003  0.1118 -0.0582
26811W        W40225  17.124   7.793  12.700 -0.0652  0.0951  0.1389
26812W        W40226  12.433   6.180   1.445 -0.0869  0.0624  0.0690
26813W        W40227  11.115  17.179   0.754 -0.2341  0.0375 -0.1193
26814W        W40228   6.907   3.693  14.242  0.3556 -0.2367 -0.0788
26815W        W40229   2.459  17.698  11.012 -0.1062 -0.1256  0.2215
26816W        W40230   9.514   2.523   3.318  0.1942  0.0310 -0.1632
26817W        W40231   4.138   8.804   1.311  0.1703  0.1269  0.0456
26818W        W40232   2.640   4.878  14.949  0.2100  0.2413  0.0361
26819W        W40233  17.660  14.865   4.295  0.3508 -0.1374  0.0813
26820W        W40234  17.223  12.007  15.149  0.1049 -0.0813 -0.0647
26821W        W40235  10.226   1.325   3.492  0.1247 -0.0533 -0.0778
26822W        W40236   7.710  15.081   0.649 -0.0444 -0.1346 -0.1553
26823W        W40237   8.664   8.456   2.966 -0.1421  0.0896 -0.0769
26824W        W40238   0.231  11.553  11.705 -0.2546  0.1393  0.0989
26825W        W40239  11.876   6.065   5.289 -0.3121 -0.0102  0.0974
26826W        W40240   7.064   4.275   4.035  0.1630  0.0955 -0.0908
26827W        W40241  17.760  17.664   4.916  0.0362  0.2196 -0.3445
26828W        W40242  13.566  15.642   2.997  0.1026 -0.2565  0.0239
26829W        W40243   8.816   9.001   6.116  0.0590 -0.1652 -0.2764
26830W        W40244   9.726  12.120   5.100  0.4709 -0.1776  0.0634
26831W        W40245  11.999   5.903  16.285  0.2995  0.2778  0.1689
26832W        W40246  16.687   1.747  15.278  0.0220  0.1371 -0.2605
26833W        W40247   1.269   2.488   4.563  0.1524  0.1166 -0.1753
26834W        W40248  13.030   9.168  16.245  0.0409  0.1227  0.0206
26835W        W40249   7.903  13.172   2.296  0.2330 -0.1066 -0.0798
26836W        W40250  13.168   1.566   1.630  0.0440  0.0194 -0.2074
26837W        W40251   1.155   4.926   0.559  0.0079  0.1354  0.0828
26838W        W40252   0.235   3.812   5.159  0.2600  0.4862  0.0228
26839W        W40253   1.402  15.230   1.175 -0.1496 -0.1895 -0.0623
26840W        W40254   7.522   6.296  12.130 -0.3578 -0.0206  0.0248
26841W        W40255  15.966  12.655  10.557 -0.1324  0.1631  0.1501
26842W        W40256  11.940   9.987  15.544 -0.0044  0.1490 -0.0329
26843W        W40257  10.640   0.413  10.219 -0.0350  0.1704 -0.2539
26844W        W40258  10.665  16.257   5.903 -0.0273  0.1559 -0.1444
26845W        W40259   1.300  18.201   1.671 -0.1672  0.0168 -0.2077
26846W        W40260   5.201  11.735   0.250  0.3172 -0.1796 -0.2323
26847W        W40261   5.467  12.541  12.653  0.0803 -0.0326  0.0287
26848W        W40262   8.200   2.919  12.786  0.2873  0.0488  0.2114
26849W        W40263   8.125   6.839   3.782  0.0588 -0.4362 -0.0749
26850W        W40264  12.179   7.699   5.806 -0.1319 -0.1044  0.1597
26851W        W40265  12.258   6.843   2.319 -0.4763  0.1102  0.1113
26852W        W40266   2.747  10.626   4.573  0.3205 -0.0145  0.0429
26853W        W40267   2.484   7.862   0.947 -0.2404  0.0662 -0.1067
26854W        W40268   0.211  17.089  14.225  0.1391 -0.1126  0.1620
26855W        W40269  16.269   6.516  13.991 -0.0327  0.0308 -0.2567
26856W        W40270  13.109   6.939   5.635  0.0594 -0.0483 -0.0363
26857W        W40271  14.213  13.689  10.292  0.0362 -0.0277 -0.0689
26858W        W40272   5.271   8.736  15.378 -0.2077  0.4518  0.4634
26859W        W40273  11.885  18.082  11.568  0.0992  0.1087 -0.2692
26860W        W40274   7.390  12.613   0.680  0.1061 -0.2396  0.3778
26861W        W40275  15.328   0.033  16.128 -0.1548  0.1039 -0.1093
26862W        W40276   9.836   0.017  14.159 -0.1581  0.2261  0.1629
26863W        W40277   5.855  17.809   0.509  0.0207  0.1648  0.1161
26864W        W40278   4.317  10.157  13.212 -0.2164  0.0549  0.2309
26865W        W40279   7.233  12.899  14.319  0.2638  0.0591  0.0893
26866W        W40280  13.017  10.443   3.321 -0.0074  0.0340  0.1670
26867W        W40281   1.590   6.447   0.594 -0.0100  0.0852 -0.0261
26868W        W40282   7.711  15.473  11.243 -0.1299  0.0544  0.1270
26869W        W40283  11.350  13.730  13.535  0.1348 -0.0381  0.0512
26870W        W40284   9.548  11.668  16.053 -0.0773  0.0946  0.3393
26871W        W40285   4.686  13.563   1.796 -0.1872 -0.0689 -0.3420
26872W        W40286   2.433   5.455   4.709  0.1398 -0.2450  0.0911
26873W        W40287   7.505  11.017   5.657 -0.0555 -0.2412 -0.0557
26874W        W40288   3.374  16.127  11.590  0.0731  0.0463 -0.0209
26875W        W40289  10.525   5.275   0.740  0.2348  0.2312 -0.1509
26876W        W40290  11.521   3.519   3.179 -0.0845  0.1109  0.1154
26877W        W40291   5.722   8.293  12.238  0.0037 -0.2188  0.1631
26878W        W40292  11.134  13.472  13.870  0.0549  0.1508 -0.0105
26879W        W40293  18.075   0.867   5.883 -0.0169  0.1369  0.0895
26880W        W40294   6.294   7.667  11.799 -0.1220 -0.1151  0.0695
26881W        W40295   7.450  11.543   5.240 -0.0079  0.0862 -0.0429
26882W        W40296   8.714   5.508   0.509 -0.0638  0.0784  0.2296
26883W        W40297   1.413   6.885   5.591  0.0702 -0.1059 -0.1553
26884W        W40298  11.623  15.439  14.731 -0.0814 -0.1947 -0.1459
26885W        W40299  16.767   9.117   4.227  0.0590  0.1416 -0.1563
26886W        W40300   8.656   1.560   3.943  0.1377 -0.1923 -0.0371
26887W        W40301  15.235  15.576  11.722  0.2381  0.1397 -0.2097
26888W        W40302  14.032  13.440   3.872 -0.0054  0.4284 -0.1996
26889W        W40303  11.192  12.657  11.187  0.0719  0.1506  0.0616
26890W        W40304   2.104  16.423  11.556  0.1467  0.2415  0.2117
26891W        W40305   3.507   4.817   5.422  0.0440  0.0850  0.1232
26892W        W40306   6.820  16.424  12.298  0.2473 -0.1309  0.0794
26893W        W40307   3.811  14.087   2.534  0.2477  0.2971  0.0192
26894W        W40308  14.762   7.995   2.904 -0.2429  0.0889 -0.0680
26895W        W40309  15.994   3.611  10.324 -0.0272  0.1561 -0.1964
26896W        W40310   7.947   9.228   0.942 -0.1148  0.2027  0.0668
26897W        W40311  10.097   6.879  16.099  0.0735  0.1588 -0.4488
26898W        W40312   4.060  13.670  11.247 -0.1476  0.3783  0.1164
26899W        W40313   3.137   7.892   4.084 -0.2053 -0.0189  0.1223
26900W        W40314  10.549  15.501  14.550  0.0628  0.0162 -0.0052
26901W        W40315   0.316  14.361   5.659 -0.0377  0.0696 -0.2357
26902W        W40316  12.235   3.429   2.548 -0.3000 -0.0476  0.1102
26903W        W40317   5.258  12.823   6.842 -0.1647 -0.0561  0.1771
26904W        W40318   7.683  12.381  11.694 -0.0412  0.2718  0.0428
26905W        W40319   4.327   7.150   0.676 -0.1656  0.1646  0.2317
26906W        W40320  17.631   8.102  14.842  0.2392  0.1751 -0.1941
26907W        W40321   6.218   7.887   5.573 -0.0801 -0.0254 -0.0607
26908W        W40322   4.397  11.766   2.489  0.0332 -0.2157 -0.0256
26909W        W40323   9.354  14.828  14.291 -0.1151  0.1078 -0.1382
26910W        W40324   8.320  18.183  15.324  0.2243  0.1385 -0.0936
26911W        W40325   0.286  10.939   0.493  0.0573  0.1250 -0.3429
26912W        W40326  13.287  14.698   4.320 -0.1055 -0.1733  0.3856
26913W        W40327  11.272   8.329  14.433  0.1513  0.1011 -0.2678
26914W        W40328  15.293   5.037  10.653  0.2028 -0.2718 -0.1045
26915W        W40329  11.905  17.229   1.037  0.0391  0.2547  0.1081
26916W        W40330  11.850  10.363  11.809  0.2607  0.2404 -0.0009
26917W        W40331  10.012  12.624  14.854  0.1522  0.2003  0.2179
26918W        W40332   6.929  12.567   6.343 -0.3218 -0.1413 -0.1953
26919W        W40333   8.676   2.072  10.994  0.1781  0.1555  0.3803
26920W        W40334   7.919   6.612  12.398 -0.1507  0.1443 -0.3053
26921W        W40335  15.879   0.508   0.384  0.0828 -0.2267 -0.1421
26922W        W40336  15.436  14.047  12.244  0.1458 -0.1860  0.1833
26923W        W40337   9.082  14.183   2.501 -0.2326 -0.2325 -0.1073
26924W        W40338  14.949   5.594  13.865 -0.0433  0.1953  0.1374
26925W        W40339   7.601   6.162  11.645  0.0946 -0.0403  0.1870
26926W        W40340   4.726   6.491   4.333  0.1440 -0.1079  0.3524
26927W        W40341   9.327  15.815   9.201  0.4253  0.0650  0.1822
26928W        W40342   7.161   1.439  10.654  0.0927 -0.0051 -0.0423
26929W        W40343   0.143  14.250  14.775 -0.0121  0.1222 -0.0323
26930W        W40344  17.985  17.684   2.960  0.1206  0.1121  0.1584
26931W        W40345  13.901   0.970  13.190 -0.2021  0.1221 -0.2149
26932W        W40346  13.889  13.000   2.961 -0.0304 -0.2166 -0.0524
26933W        W40347  16.760   2.470  11.684  0.1703 -0.1289 -0.2488
26934W        W40348  12.003  15.262  16.245 -0.2447  0.1014 -0.3184
26935W        W40349   8.711  17.289  16.475 -0.0379  0.1593 -0.0754
26936W        W40350  11.229   0.120  15.594 -0.3115 -0.1752  0.1679
26937W        W40351   8.952  15.441   3.965  0.2631  0.4023 -0.2335
26938W        W40352   6.631  17.563  14.011  0.1876 -0.0925  0.1964
26939W        W40353   5.017   0.990  10.668 -0.0096 -0.1835  0.0293
26940W        W40354   3.258   1.580  14.293  0.2223 -0.2852 -0.0784
26941W        W40355   7.085   8.536  14.281  0.0716 -0.0676 -0.0303
26942W        W40356  14.277  13.719   4.205  0.1412 -0.0150  0.1150
26943W        W40357   2.275  14.510   1.386  0.1812 -0.2772 -0.3588
26944W        W40358   7.029  11.462  14.601 -0.1341 -0.2304  0.0689
26945W        W40359   9.118   5.809   0.618  0.0588 -0.1450  0.2696
26946W        W40360  13.524  13.373   1.409 -0.2559  0.2874  0.1751
26947W        W40361   5.289  11.263   3.309  0.2394 -0.0645 -0.0632
26948W        W40362  17.267   6.074  12.388  0.1212 -0.2401 -0.0541
26949W        W40363   9.318   3.820   4.301  0.1151 -0.0339 -0.1866
26950W        W40364   8.623   9.225  11.243 -0.4234 -0.0818 -0.0192
26951W        W40365   3.065  10.935   3.303 -0.1456  0.2228  0.0022
26952W        W40366   6.875   0.409   3.718  0.0311 -0.3451  0.0347
26953W        W40367   3.251   5.141   0.164  0.2232  0.1582 -0.2732
26954W        W40368   7.034   7.255   0.979 -0.1027 -0.0632  0.2528
26955W        W40369  16.978   0.418  12.687 -0.1283 -0.0050  0.0306
26956W        W40370   2.422  15.546  11.313  0.0111  0.1467  0.2126
26957W        W40371   0.478  17.881   2.726  0.2770  0.0170  0.0517
26958W        W40372   1.807  16.871  13.941 -0.2245  0.1891  0.1815
26959W        W40373  16.986   1.824  12.979  0.0255 -0.1302  0.1045
26960W        W40374  16.948  14.357  12.535 -0.1820  0.4101 -0.2575
26961W        W40375   0.197   7.313   3.452 -0.0877  0.0802 -0.0425
26962W        W40376  10.368   1.469   5.391  0.2937 -0.0916 -0.2615
26963W        W40377  12.924  15.760  11.715  0.0347 -0.0147  0.1911
26964W        W40378   8.490  12.983  15.631  0.0656 -0.4480 -0.0206
26965W        W40379  12.976  13.104   5.257 -0.0983  0.1258 -0.2306
26966W        W40380   0.364   8.262  13.479  0.1374 -0.0095  0.4053
26967W        W40381   0.323  10.553  10.731  0.0738  0.5019 -0.1609
26968W        W40382  17.141  12.220   5.623  0.1403  0.0224  0.2232
26969W        W40383   2.666   9.333   3.870 -0.0706  0.1169 -0.0858
26970W        W40384   9.430   2.819   4.745 -0.0211  0.2680 -0.1443
26971W        W40385   8.556  11.802   4.358  0.1888 -0.2705 -0.0875
26972W        W40386  13.579  17.213   1.649 -0.2277 -0.1911 -0.0170
26973W        W40387  13.602  16.863  16.047  0.2942 -0.3393  0.0935
26974W        W40388  11.854  12.337  13.806 -0.1020  0.0781 -0.0103
26975W        W40389  16.961  12.560   2.991  0.2724  0.0259 -0.2554
26976W        W40390   3.721  10.650   4.549  0.2896 -0.1913 -0.1592
26977W        W40391  11.472  17.667  15.787 -0.0697  0.1562  0.2965
26978W        W40392   7.821   2.989  14.622  0.4112 -0.3455 -0.0349
26979W        W40393   8.366  15.929  12.759 -0.0901 -0.0073 -0.0875
26980W        W40394   4.619   4.627  13.017  0.4496 -0.2826 -0.0134
26981W        W40395   6.038   6.343  13.250 -0.0226 -0.1369  0.1612
26982W        W40396   5.923  15.778  14.818 -0.0686  0.0863  0.1079
26983W        W40397   6.327  15.963  13.048  0.2663 -0.1311  0.1164
26984W        W40398   6.474  16.721  14.546 -0.2382 -0.0664 -0.0375
26985W        W40399   3.268  15.911   3.197 -0.1832  0.1330  0.2985
26986W        W40400  10.376   2.774   4.587  0.1334 -0.0616 -0.2098
26987W        W40401   6.931  17.167  11.755  0.0137  0.0443 -0.2762
26988W        W40402  13.777  13.715   0.553 -0.0779 -0.3144  0.1904
26989W        W40403  13.590   7.103  10.379  0.1679  0.0996 -0.2681
26990W        W40404   7.941   4.921  12.938  0.0239  0.2106 -0.0508
26991W        W40405  12.014  13.838  12.307  0.0067  0.0109  0.0911
26992W        W40406   8.064  15.463   3.652 -0.0926  0.2385  0.0563
26993W        W40407   8.955   8.380  11.170  0.3273 -0.0285  0.0313
26994W        W40408  11.726   3.148  11.906 -0.2231  0.0429  0.5516
26995W        W40409   6.516  18.174   2.456 -0.0840  0.0873 -0.4216
26996W        W40410   9.578  10.047  13.998  0.0891 -0.0353  0.1253
26997W        W40411  14.808  15.429  12.937  0.0255 -0.0994  0.0914
26998W        W40412   9.406   6.411   2.143 -0.0492  0.0694 -0.0511
26999W        W40413   4.003   6.118   5.163 -0.0525 -0.3022  0.2549
27000W        W40414  13.515  10.780   2.431  0.0770  0.1801 -0.0982
27001W        W40415   2.098   1.087   0.691  0.1961 -0.2785  0.1548
27002W        W40416  17.566   7.978  16.087 -0.3651 -0.0737  0.4157
27003W        W40417   0.047   4.647   3.616  0.0543  0.2040 -0.1793
27004W        W40418  11.155  10.673  13.350  0.1294  0.0094  0.0497
27005W        W40419  13.062  15.536  12.663 -0.0638  0.1363 -0.0621
27006W        W40420   1.567  16.610   4.356  0.0525  0.0821  0.1260
27007W        W40421   6.974  10.434   1.708 -0.2850 -0.2087  0.0415
27008W        W40422  11.635   3.244  10.931 -0.2572 -0.3487 -0.1249
27009W        W40423   5.708  10.592  15.455 -0.1155 -0.1447  0.0307
27010W        W40424   5.542   2.236   1.994  0.0063 -0.3367 -0.0478
27011W        W40425  11.142   7.243   2.929  0.0172  0.0181  0.0724
27012W        W40426  16.795   7.805  12.339 -0.0372  0.0726  0.0498
27013W        W40427   8.342  16.665  10.946 -0.1415  0.1175  0.0888
27014W        W40428   6.503   3.880  12.145  0.0636  0.1547  0.2747
27015W        W40429  15.819  13.986  15.236 -0.1038 -0.0824  0.1054
27016W        W40430  13.356  15.814   9.746 -0.0952 -0.0634 -0.1012
27017W        W40431   9.425   0.635  12.489 -0.0831  0.0596  0.2701
27018W        W40432   0.915   3.242   2.914  0.1186 -0.0071  0.2271
27019W        W40433  15.372  16.250  12.341  0.0857 -0.3132  0.1470
27020W        W40434   3.785   6.620   3.012 -0.0653  0.1028 -0.0674
27021W        W40435   4.985  10.742  12.153  0.1182  0.2589  0.0683
27022W        W40436   7.242   8.170   6.241  0.2310  0.1094 -0.2083
27023W        W40437  15.240  14.877   5.054  0.0613 -0.1737  0.2455
27024W        W40438   4.387   0.486  16.481  0.0486 -0.0544  0.0925
27025W        W40439   2.724   2.975   5.947 -0.0999  0.1414  0.0717
27026W        W40440   6.697   6.058  14.816 -0.1115 -0.0892  0.0419
27027W        W40441   5.506  11.518  13.560 -0.1929 -0.1381  0.2188
27028W        W40442  12.595  10.458   3.588  0.0204 -0.1903 -0.0264
27029W        W40443  10.809   6.656   4.145 -0.0417  0.0112  0.3653
27030W        W40444  10.666  11.923  13.109 -0.1453 -0.2800  0.1937
27031W        W40445   0.629  14.824  15.162 -0.2677 -0.0758  0.3859
27032W        W40446  12.683   0.718  13.491  0.2609  0.1105  0.2641
27033W        W40447  16.745  12.709   2.243  0.2810  0.0983 -0.3025
27034W        W40448   6.823  17.947  12.679 -0.0351 -0.2022  0.0157
27035W        W40449   2.556   8.917   3.502  0.0839 -0.0170 -0.3070
27036W        W40450   9.489  17.141  15.298  0.2531  0.0082  0.1608
27037W        W40451   0.731  13.774   1.419  0.2724 -0.1966  0.2361
27038W        W40452  10.791   4.192   4.496 -0.2929 -0.2359 -0.1028
27039W        W40453   1.926   0.438   1.951  0.0153  0.2564 -0.0790
27040W        W40454   8.828   3.390   2.386  0.0180 -0.1538  0.2405
27041W        W40455   9.329   1.058  12.756 -0.1142 -0.1599 -0.0718
27042W        W40456   8.277   8.951   6.188  0.0633  0.2412  0.0407
27043W        W40457  12.468   7.458  12.111  0.2826 -0.1447 -0.1524
27044W        W40458   8.995   6.271  13.773 -0.1906  0.2990  0.0018
27045W        W40459   6.910   4.487  14.553  0.0018 -0.2185 -0.2546
27046W        W40460  16.096  11.662   5.399 -0.1560  0.1052  0.1768
27047W        W40461  15.509  12.493  12.882  0.2079 -0.1040  0.5905
27048W        W40462   3.920   5.136   5.485 -0.0419 -0.3654  0.0589
27049W        W40463   2.790  18.111  15.894 -0.2313 -0.3888  0.0424
27050W        W40464   2.694  16.003  14.696  0.0302 -0.0602 -0.2244
27051W        W40465  15.281   3.818   2.231 -0.1255  0.2809 -0.2480
27052W        W40466   8.170  17.521   4.486 -0.0693  0.1397  0.0057
27053W        W40467   0.364   9.331  16.006  0.3632  0.1115  0.1028
27054W        W40468   2.167  15.133   3.627  0.0411  0.3148  0.3649
27055W        W40469   4.917  16.626  15.149 -0.0520  0.1205  0.0058
27056W        W40470   3.985  14.951   2.449  0.1788  0.0496  0.1132
27057W        W40471  14.258  17.655   1.427 -0.1309  0.0802  0.0404
27058W        W40472  18.158  15.566  10.332 -0.0003 -0.1145 -0.1375
27059W        W40473   5.193  12.300  13.708 -0.0162  0.0125 -0.2327
27060W        W40474   2.785  13.805  12.269  0.1411 -0.1418 -0.3319
27061W        W40475   0.556   3.851  10.469  0.2054  0.0552  0.1475
27062W        W40476  10.840   9.678   0.937  0.1428  0.4184  0.1612
27063W        W40477  16.797   4.358  14.034  0.2157 -0.0012  0.5198
27064W        W40478   5.742  13.765  13.061  0.2168  0.3607 -0.3394
27065W        W40479   8.605  14.377  13.205  0.3655  0.0540 -0.1098
27066W        W40480   6.223   4.093  14.350 -0.1081 -0.0053 -0.1654
27067W        W40481  10.145  17.408   1.692 -0.1835  0.1178 -0.0531
27068W        W40482   3.034   1.281   3.413 -0.1301 -0.0710 -0.3541
27069W        W40483  12.793   2.524  15.625 -0.1914  0.0842 -0.0285
27070W        W40484  14.693   2.522   1.952 -0.0038 -0.1042  0.1305
27071W        W40485   8.456  17.367  15.954  0.4539  0.1032 -0.2571
27072W        W40486   6.050   0.436  10.708 -0.2568 -0.3191  0.0496
27073W        W40487   5.262   8.945  16.423  0.0425 -0.0330 -0.1754
27074W        W40488   6.802   7.427  11.684  0.1314  0.3037 -0.2107
27075W        W40489  15.893  12.622   4.744 -0.1407  0.0494  0.3251
27076W        W40490   0.873   8.601   5.598 -0.0683  0.1424 -0.1741
27077W        W40491   4.678   1.294  13.073 -0.0123 -0.2770 -0.1060
27078W        W40492   2.390   9.283   3.220 -0.0533 -0.0261 -0.1872
27079W        W40493  10.288  13.237   1.079 -0.0869 -0.2772  0.2722
27080W        W40494   9.682   7.730  12.748  0.0371 -0.0056 -0.2155
27081W        W40495   0.700  10.422  13.100  0.2719  0.2311  0.0338
27082W        W40496  16.931   8.304  15.828 -0.0679 -0.0426  0.1050
27083W        W40497  14.755  12.674   3.375  0.0067 -0.3794  0.0850
27084W        W40498  13.465   5.213  14.804  0.0042 -0.0024 -0.2950
27085W        W40499   8.936   8.174   1.881  0.0487 -0.1133  0.0150
27086W        W40500   7.826   9.482   6.968 -0.2060 -0.2905  0.2473
27087W        W40501  14.894  14.625   3.307  0.1839  0.0358 -0.0385
27088W        W40502  13.900  14.440   1.189  0.1591 -0.1919  0.0052
27089W        W40503   0.102  15.314  16.419 -0.0079 -0.2003 -0.1099
27090W        W40504   0.735   8.972  11.946  0.3311  0.0550  0.2399
27091W        W40505   6.515  16.202  12.632 -0.1742  0.1515  0.1082
27092W        W40506  17.862   1.603  13.267 -0.0002  0.0132 -0.1604
27093W        W40507   9.711   1.634  16.425 -0.0670  0.1071  0.0048
27094W        W40508  13.877   5.674  12.065 -0.1408  0.2282 -0.1603
27095W        W40509  14.943  15.118   3.876 -0.2973  0.3144 -0.4423
27096W        W40510  11.184   5.140  13.420 -0.0381  0.1385  0.1771
27097W        W40511   1.801   1.815   0.415  0.1991  0.0350 -0.2944
27098W        W40512   6.819  13.918   6.207 -0.0273  0.1228  0.4938
27099W        W40513  13.980   0.318  13.351 -0.2615  0.0604 -0.2242
27100W        W40514   4.609  14.846  10.970  0.1589  0.0991 -0.0201
27101W        W40515   4.721   5.489   4.185  0.4308  0.1271  0.1589
27102W        W40516   3.723  12.360  11.025 -0.1012  0.2219  0.0005
27103W        W40517  16.473   2.204  16.392  0.1971 -0.0110 -0.1008
27104W        W40518  14.784  12.584   5.302 -0.2610  0.0501  0.0982
27105W        W40519   5.685  13.561  11.197 -0.0219  0.0071 -0.0979
27106W        W40520   4.481   0.777   0.760 -0.2431 -0.2403  0.0099
27107W        W40521  12.804  10.250  11.922  0.2032  0.1415  0.1023
27108W        W40522  10.923  16.113   5.065  0.4569  0.0420 -0.0497
27109W        W40523   6.763   9.973  15.447  0.2168  0.1398  0.0116
27110W        W40524   4.967   7.514   3.628  0.2008  0.3143  0.1442
27111W        W40525  16.177   1.510   0.152 -0.4238 -0.0574  0.4317
27112W        W40526  10.579  16.357   0.984 -0.0899  0.2671  0.1498
27113W        W40527   7.081  10.458  14.300  0.1627  0.0180  0.0118
27114W        W40528   9.567   9.815   4.215 -0.1860 -0.3711 -0.0031
27115W        W40529  10.323  12.870  11.759  0.2152  0.2727 -0.0505
27116W        W40530   4.288   1.232   5.359 -0.1498  0.0011 -0.1862
27117W        W40531   0.761  17.629  11.075  0.0321  0.1574  0.0499
27118W        W40532   9.752   7.758  11.745  0.0230 -0.3550 -0.0889
27119W        W40533  15.243  17.471   0.654 -0.0104  0.1755 -0.1380
27120W        W40534   4.751   5.520   1.252  0.3079 -0.2133  0.4711
27121W        W40535  16.742  11.862   6.106  0.3415 -0.3941 -0.0960
27122W        W40536  10.255  15.611   4.067  0.0138 -0.1101  0.0658
27123W        W40537  11.326  12.298  11.942  0.0030  0.1188 -0.2955
27124W        W40538  14.176   4.448   1.726 -0.1005 -0.2800 -0.2786
27125W        W40539   6.074   2.939  13.743 -0.0483  0.2145 -0.0525
27126W        W40540   6.475   2.799  13.446  0.1181 -0.1634  0.1400
27127W        W40541  12.652   8.933   4.009 -0.0055  0.2964 -0.0218
27128W        W40542  18.215   0.295   2.353  0.1063  0.0412 -0.1119
27129W        W40543   2.474  18.115  14.841  0.0632 -0.3086 -0.1085
27130W        W40544   2.732   4.860   6.031  0.3005  0.1286  0.0812
27131W        W40545  13.033  17.589   5.534  0.1013  0.2168  0.2491
27132W        W40546  10.778  16.774  13.162 -0.1201 -0.0225 -0.3140
27133W        W40547   8.078   4.247   6.022  0.2684  0.3928 -0.0680
27134W        W40548  17.950   1.907  12.888 -0.0630 -0.3156  0.0258
27135W        W40549   9.198  12.664  14.206 -0.2418  0.1330 -0.0710
27136W        W40550  17.707   9.820   3.577 -0.0713 -0.3377 -0.1495
27137W        W40551  12.656  14.492  11.309  0.2635  0.1755 -0.1196
27138W        W40552   3.394   5.144   4.626 -0.0011  0.0502  0.0178
27139W        W40553  10.168  12.309   4.795 -0.0693  0.1743 -0.1435
27140W        W40554   3.576  14.705   1.813  0.0488  0.2073 -0.1444
27141W        W40555   0.824  17.082  13.441  0.0969 -0.2274 -0.0053
27142W        W40556  11.259   3.845  11.503  0.0904  0.1074 -0.0244
27143W        W40557  17.226  12.143   3.064 -0.0131  0.1943  0.0631
27144W        W40558  18.066   6.509  13.859 -0.1116 -0.0716 -0.0533
27145W        W40559  13.173   9.091   6.361  0.1343  0.0603  0.3255
27146W        W40560   4.225  13.474  13.483 -0.0491  0.0964 -0.2310
27147W        W40561  14.786  15.977   2.088 -0.0315  0.0136 -0.4265
27148W        W40562   4.413   6.517  15.355 -0.2981  0.3421 -0.0455
27149W        W40563  16.934  13.847   4.550  0.1861 -0.2005 -0.3360
27150W        W40564   4.707   3.616   4.124 -0.3162 -0.0437  0.0491
27151W        W40565  10.953  11.816   5.043 -0.0244 -0.0164  0.0034
27152W        W40566   4.467  17.114   4.300 -0.1780 -0.3445  0.1680
27153W        W40567   9.824   1.570   0.413  0.0218 -0.0574  0.0540
27154W        W40568  17.225  10.044  15.132  0.0600  0.2515 -0.2946
27155W        W40569  10.420  16.970   2.993 -0.2091  0.0790 -0.0565
27156W        W40570   3.653   7.368  10.877 -0.0910  0.0528  0.0256
27157W        W40571  13.040  10.097  15.545  0.1644  0.0109 -0.3066
27158W        W40572   8.426   9.220  12.973  0.0943  0.0151  0.3927
27159W        W40573  11.813   5.513   5.921 -0.2459  0.1674  0.0135
27160W        W40574   9.521   7.971   5.476 -0.2446  0.0670 -0.3652
27161W        W40575  12.578   6.420   2.315  0.0881  0.1302  0.1467
27162W        W40576   0.657   4.076  12.120  0.2088  0.0862 -0.0161
27163W        W40577   4.350  10.083  12.137 -0.1847 -0.1813  0.5498
27164W        W40578  16.061   5.348   2.737 -0.0190  0.2193  0.2529
27165W        W40579   7.859   6.022   0.852  0.2475 -0.2553  0.1329
27166W        W40580   5.404   5.751  15.497  0.2161  0.0136  0.0491
27167W        W40581  10.137  13.067   1.619 -0.1580 -0.1573  0.1954
27168W        W40582  17.779  17.318   0.153  0.0138 -0.0436 -0.0405
27169W        W40583  16.754   0.945  12.545 -0.1881 -0.1649  0.0121
27170W        W40584  15.393   8.287   5.334  0.1863 -0.2498  0.0680
27171W        W40585   8.345  10.492  12.448 -0.1376  0.2440  0.1559
27172W        W40586  14.508   0.874  10.191  0.0997 -0.1656  0.1007
27173W        W40587   7.748   1.677   5.026  0.3380 -0.0333 -0.0093
27174W        W40588  14.446   8.943   4.807  0.2489 -0.1171 -0.0439
27175W        W40589  10.171   8.018   3.953 -0.0996 -0.0581 -0.0198
27176W        W40590  17.971   3.288  14.258  0.2333 -0.4642 -0.1202
27177W        W40591   4.517  13.031   4.977  0.2140 -0.1850  0.3202
27178W        W40592  15.628  11.374   1.640 -0.1193  0.1948 -0.1550
27179W        W40593  12.272  14.106  10.615  0.1096  0.0268 -0.2216
27180W        W40594  13.059  11.439  10.484  0.0632  0.0590 -0.0298
27181W        W40595  18.027  13.081   0.477 -0.2606 -0.0509 -0.1262
27182W        W40596   6.129   1.551  11.538 -0.0542  0.1408  0.0308
27183W        W40597   4.463   4.976  14.858 -0.1919 -0.2511  0.3650
27184W        W40598  13.420   6.657  11.416  0.3947 -0.1211  0.0250
27185W        W40599   2.005   3.944   3.587  0.2936  0.3153  0.2821
27186W        W40600   5.305   9.558  11.570  0.2742 -0.3639  0.0883
27187W        W40601  17.629  10.341  11.810  0.3116 -0.2040 -0.0558
27188W        W40602   4.164  10.903   0.006 -0.0835 -0.0650  0.0173
27189W        W40603   8.720  11.098  14.902 -0.0643 -0.4511 -0.1483
27190W        W40604  10.031  17.297  10.189  0.5590  0.0756  0.0217
27191W        W40605   6.420  17.317   0.203 -0.2281  0.1908 -0.2338
27192W        W40606  13.565  14.180  15.207 -0.0634 -0.0252 -0.0379
27193W        W40607  11.640   5.166  13.812 -0.4226 -0.0381  0.1406
27194W        W40608   0.286   2.970   4.173  0.0331  0.2552 -0.3453
27195W        W40609   0.670  14.232  10.874 -0.1788 -0.3495  0.1941
27196W        W40610   0.211  13.794   1.275 -0.2422  0.1074 -0.0953
27197W        W40611  13.874   4.188  15.841  0.0189 -0.1611 -0.2369
27198W        W40612   8.626   2.520   2.104 -0.1070 -0.0271 -0.1837
27199W        W40613  12.410   8.406   4.653 -0.1960  0.1962 -0.1295
27200W        W40614  17.442  10.416  13.150 -0.1367 -0.0685 -0.1625
27201W        W40615  11.320   2.114  11.253  0.2158  0.2438 -0.1108
27202W        W40616  17.820   4.621   1.903 -0.0230  0.0195 -0.2387
27203W        W40617  13.244  11.920   3.367  0.1135  0.2766  0.0318
27204W        W40618   0.162   8.725  13.402  0.1980 -0.0594  0.1523
27205W        W40619  10.454  12.752  13.517  0.1205 -0.0770  0.0408
27206W        W40620   3.947   6.683   6.097  0.1831  0.1865 -0.1229
27207W        W40621  17.934   8.099  15.698  0.0415 -0.1735 -0.0702
27208W        W40622   6.070  16.073   0.150  0.1617 -0.1699 -0.2186
27209W        W40623   7.464   0.605  16.263  0.3158 -0.1382  0.2095
27210W        W40624   8.193  14.688  10.977  0.0039  0.1174 -0.1968
27211W        W40625   4.984  15.422   2.617 -0.0240 -0.0623  0.0428
27212W        W40626  11.814   1.890   4.892 -0.2003 -0.2133  0.0137
27213W        W40627  10.522  11.432   1.502 -0.1376  0.1855  0.0230
27214W        W40628   7.356   1.973  14.172 -0.1202 -0.0915 -0.0819
27215W        W40629   9.858   9.657   2.417 -0.0334  0.0314  0.3274
27216W        W40630  12.614  15.756  13.587  0.0700  0.0630 -0.2451
27217W        W40631   5.890   8.843  12.652 -0.1319  0.1118 -0.0625
27218W        W40632  10.270  14.134  15.127 -0.1788 -0.1508  0.0829
27219W        W40633   5.478   6.917   1.025 -0.3633  0.0731 -0.3673
27220W        W40634  14.459   3.641  14.007 -0.0982 -0.2553  0.0599
27221W        W40635   5.074  17.133  16.414  0.1843  0.2673 -0.0455
27222W        W40636   4.351  18.207   2.568 -0.1833 -0.1335  0.0390
27223W        W40637  13.275   9.500  12.403 -0.0860  0.1574  0.2194
27224W        W40638   2.603   5.413  16.181 -0.0644  0.0035  0.1311
27225W        W40639  16.940   4.174   0.833  0.0779  0.0940  0.1272
27226W        W40640   6.351  12.267   4.585  0.2128 -0.0552  0.1335
27227W        W40641   6.402   0.873  15.421  0.0650 -0.1487 -0.0068
27228W        W40642   5.667  16.904   0.322 -0.1613  0.3164 -0.3496
27229W        W40643  17.654  11.893  12.617 -0.2041 -0.1833 -0.1973
27230W        W40644   6.383  10.729  14.939 -0.4707  0.1641 -0.0766
27231W        W40645  15.260  12.274  10.716  0.2453  0.0847  0.2821
27232W        W40646  14.343   0.009   1.398  0.0889  0.1322  0.0089
27233W        W40647  15.411   2.941   3.000 -0.0638 -0.2519 -0.1027
27234W        W40648  14.295   0.291  11.872 -0.0064 -0.0287 -0.2637
27235W        W40649   7.406   2.660  11.033  0.0825 -0.2017 -0.0011
27236W        W40650   9.610   2.016   1.082 -0.1683 -0.0045 -0.0122
27237W        W40651   7.072   3.282   2.963  0.0855  0.2583  0.1711
27238W        W40652  14.567   4.006   1.240 -0.1875 -0.2252 -0.0602
27239W        W40653   7.967   6.003  13.017  0.0642  0.0855  0.1338
27240W        W40654  14.855   8.227  15.193  0.2323 -0.0634  0.0470
27241W        W40655  10.051  12.251   2.572 -0.0799 -0.2792  0.1121
27242W        W40656  15.966  15.327  14.371  0.2732  0.0068  0.2751
27243W        W40657  13.102  13.486  16.083 -0.0433  0.1519 -0.0269
27244W        W40658   8.429   3.398   5.880 -0.1003  0.0264  0.0364
27245W        W40659  10.749   6.460   0.881 -0.1479 -0.1778 -0.0739
27246W        W40660  12.168  18.161   0.791 -0.0404  0.0422 -0.1587
27247W        W40661  16.959   4.545  11.847  0.0922  0.0918  0.0995
27248W        W40662   4.183   7.404  13.570  0.1077 -0.1857  0.1940
27249W        W40663   4.091  17.306  10.262  0.1696  0.1009 -0.1143
27250W        W40664   4.689   4.352  13.814 -0.0776 -0.1766  0.2661
27251W        W40665   5.227  11.554   2.157 -0.1389 -0.1404  0.0557
27252W        W40666   5.914  16.897  11.185 -0.2706  0.3345  0.1554
27253W        W40667   8.262   2.974   5.684 -0.0217  0.4787 -0.0887
27254W        W40668   7.569   0.221   4.524 -0.0656 -0.0649  0.3124
27255W        W40669  10.231   0.834   0.692  0.1270  0.0529  0.2491
27256W        W40670  11.924   8.280  13.011 -0.1037 -0.1789  0.0655
27257W        W40671   2.756   9.080   4.747 -0.3865 -0.1104 -0.0735
27258W        W40672   5.618   3.299   4.019 -0.1347  0.2666 -0.1650
27259W        W40673  15.617   6.287   2.555 -0.2036 -0.0579 -0.0726
27260W        W40674  12.624   1.530  16.121 -0.0815 -0.2323 -0.0785
27261W        W40675   4.865   4.003   1.359  0.2754 -0.3519 -0.0102
27262W        W40676   9.312  12.993   2.342 -0.0868 -0.1220 -0.0248
27263W        W40677   2.799  14.553  10.606 -0.0553  0.1451  0.0441
27264W        W40678   6.595   5.547  10.338 -0.0446  0.4327  0.0285
27265W        W40679  13.023  17.646  15.991  0.0183  0.0491  0.2408
27266W        W40680  10.389   6.393  16.225 -0.0069 -0.0731 -0.2031
27267W        W40681   7.822  12.683   2.051 -0.2441  0.3309  0.1088
27268W        W40682  18.190  14.094  13.092 -0.1002 -0.1275 -0.4385
27269W        W40683  12.297   4.245   2.537  0.1456 -0.0098  0.0237
27270W        W40684   2.370  15.871   3.065 -0.0115 -0.0149 -0.0920
27271W        W40685   8.903   3.992   1.194  0.1749  0.2134  0.0946
27272W        W40686   1.922   6.815  14.899 -0.0975  0.1638  0.1908
27273W        W40687   6.356   3.585  15.229 -0.1780  0.0210  0.0008
27274W        W40688   3.334   7.654   5.036 -0.1635  0.1342  0.0350
27275W        W40689  12.029   4.808   4.499  0.1572  0.1069 -0.1073
27276W        W40690   9.672  11.134  16.065 -0.4040 -0.1191 -0.2481
27277W        W40691   6.120  10.186   0.084  0.0105 -0.5640  0.3892
27278W        W40692  13.327   9.692  13.936 -0.0435  0.0098  0.1485
27279W        W40693   3.713   1.652  11.392  0.0541  0.4865  0.1085
27280W        W40694   0.310  10.561  12.172  0.0083  0.0295 -0.1630
27281W        W40695   0.662  15.279   3.028  0.0941 -0.1301 -0.0335
27282W        W40696   4.794  14.642  14.053  0.1168  0.0143  0.0076
27283W        W40697  17.959   0.976   2.907  0.2542  0.0354 -0.3522
27284W        W40698  11.975   6.901  15.084  0.1357  0.0651  0.0706
27285W        W40699   3.264  16.004   5.723  0.1345  0.1776  0.1553
27286W        W40700   5.396   7.695  11.667 -0.0256  0.0069  0.0959
27287W        W40701   6.431   6.958  14.354 -0.1934  0.2433  0.3269
27288W        W40702  16.648   8.717  13.045  0.0171  0.0596  0.3791
27289W        W40703  16.556   9.771  14.363  0.1935  0.0511  0.0274
27290W        W40704  11.750   5.622   3.523  0.1675  0.0446  0.1199
27291W        W40705  14.022  15.402   4.662 -0.2275 -0.0613 -0.0482
27292W        W40706   0.354   8.368  11.566 -0.0170  0.2247 -0.0302
27293W        W40707  15.749   2.412  13.347 -0.1568  0.2558  0.0406
27294W        W40708  17.894  15.379  10.696 -0.1157 -0.0713 -0.1454
27295W        W40709  15.371  13.704   3.440  0.0309  0.3176  0.1978
27296W        W40710   7.816  15.150   4.872 -0.0164 -0.1709  0.3510
27297W        W40711   9.952   0.801   2.296  0.2414 -0.0298 -0.1611
27298W        W40712   9.165  13.957   0.856 -0.0037 -0.0843 -0.3578
27299W        W40713   1.768   4.324   1.126  0.2740  0.2415  0.1472
27300W        W40714  10.817   1.591  15.298  0.0482  0.2926  0.3901
27301W        W40715   0.917  16.323   1.263 -0.1303  0.0858  0.0569
27302W        W40716   5.421   3.516  14.751 -0.2607 -0.3077 -0.1615
27303W        W40717   3.913   4.207   0.312 -0.0173 -0.5132  0.1900
27304W        W40718  11.833   2.869   1.353 -0.2646 -0.1750 -0.2939
27305W        W40719   2.800   6.656   1.506  0.3379  0.0242  0.0026
27306W        W40720  10.273  13.347   4.868 -0.0384  0.3613  0.1986
27307W        W40721  15.441  11.006   4.043  0.0571 -0.0402 -0.0683
27308W        W40722  17.340  16.820  15.041  0.0478  0.0042  0.0079
27309W        W40723   0.017   6.136   0.067  0.0426  0.2548 -0.2451
27310W        W40724  17.593   5.778  12.796  0.1983  0.1181  0.2666
27311W        W40725   5.250  12.543  15.065 -0.3846  0.0608 -0.4296
27312W        W40726   6.027  15.158  16.182 -0.2960 -0.2162 -0.0628
27313W        W40727   0.209   3.714   2.495 -0.0148 -0.1418  0.1180
27314W        W40728   9.401  16.827  10.944  0.0198  0.1553 -0.1831
27315W        W40729  14.221   2.136  12.458 -0.1809  0.0165  0.0861
27316W        W40730   5.904   9.955   2.165  0.2436  0.0249  0.0872
27317W        W40731   4.628   2.946  12.860 -0.1963  0.1717 -0.0020
27318W        W40732  13.818  16.995  10.356  0.2390  0.3335  0.1703
27319W        W40733  10.839  13.693  13.521 -0.0873 -0.1098 -0.1544
27320W        W40734  11.670  15.491   3.172 -0.0425 -0.0335 -0.0884
27321W        W40735   9.364  16.092   0.288 -0.1834  0.1011 -0.1381
27322W        W40736  11.061  18.108   9.957 -0.1188 -0.0378  0.1021
27323W        W40737   8.075   2.480  12.295 -0.2815 -0.0249 -0.0174
27324W        W40738   5.274   3.307   2.012  0.2026  0.3186 -0.0150
27325W        W40739  11.948  12.995   0.968 -0.0101 -0.1196  0.0425
27326W        W40740  13.404   1.916   3.139  0.2387  0.0904 -0.5008
27327W        W40741   0.413  10.151   0.957  0.3313 -0.1039  0.2907
27328W        W40742  16.292   7.696   5.361  0.0486  0.2007 -0.3074
27329W        W40743   6.139  12.134   3.602  0.0906 -0.2092  0.0451
27330W        W40744   3.397   4.619   1.028  0.0728  0.0589 -0.0736
27331W        W40745   8.490   8.899   2.253 -0.0195  0.0410  0.1805
27332W        W40746   7.315  14.472  12.456 -0.1869  0.1169  0.2909
27333W        W40747   1.793  11.155   6.058 -0.0988 -0.3302  0.1902
27334W        W40748  15.031  10.612  10.470  0.0107  0.1670  0.2119
27335W        W40749   1.411  12.690   5.730 -0.0433  0.2276  0.0638
27336W        W40750  10.235  12.444   3.761  0.0787 -0.0615 -0.1776
27337W        W40751   3.397   0.105  15.730 -0.1025  0.0100 -0.2015
27338W        W40752   6.533  16.057   4.400 -0.2024 -0.1436 -0.1657
27339W        W40753   9.705  14.200  12.589  0.1869  0.0364 -0.1221
27340W        W40754  12.864   1.221   4.845  0.0684  0.4334  0.1084
27341W        W40755   1.344  17.856   0.847 -0.2400 -0.0081  0.1084
27342W        W40756  10.088   2.716  13.892  0.0416  0.1092 -0.1500
27343W        W40757  13.154   9.747  14.858 -0.0592 -0.0197  0.2418
27344W        W40758  17.609   3.537  13.384 -0.0427 -0.0180  0.1682
27345W        W40759   8.608   5.027  15.862 -0.1700 -0.1891  0.0509
27346W        W40760  14.876   1.434  14.249 -0.1769  0.0688  0.1168
27347W        W40761  15.422   7.311  13.074 -0.0896 -0.2106  0.0615
27348W        W40762  11.871   0.945   3.775  0.0188  0.2839 -0.1521
27349W        W40763   9.854   5.734  15.505 -0.0111  0.1508 -0.3988
27350W        W40764  14.409   2.990  15.261 -0.0235  0.3563 -0.2659
27351W        W40765  12.120  14.773  13.891  0.0325 -0.1698 -0.2346
27352W        W40766  15.927   7.246   5.712  0.1541 -0.1712  0.2052
27353W        W40767   4.616  17.888  14.580  0.2235 -0.0744  0.0388
27354W        W40768   7.292  15.114  12.124 -0.0575  0.0828 -0.2715
27355W        W40769   0.999  11.928   3.219  0.0886  0.0403  0.0574
27356W        W40770   0.913   4.574   1.360  0.4491 -0.1264  0.0080
27357W        W40771   5.088  18.183   4.125 -0.4191 -0.0920  0.1349
27358W        W40772   6.052   8.646  15.047  0.0644  0.0062  0.1547
27359W        W40773   9.063  17.931  14.041 -0.0338 -0.4460 -0.1193
27360W        W40774   0.214  15.759   2.461 -0.2172  0.0373  0.3096
27361W        W40775  10.161   0.300  10.460  0.0751  0.1426  0.0269
27362W        W40776   7.991  17.191  11.189 -0.2062 -0.1755  0.3617
27363W        W40777  12.338  12.835   4.076 -0.1136 -0.0774 -0.0684
27364W        W40778  15.848   1.842   2.409  0.0221  0.3488  0.0465
27365W        W40779  17.586  12.296   5.392  0.0135 -0.1651 -0.1392
27366W        W40780  14.541  17.877   5.214  0.2271 -0.3847 -0.1511
27367W        W40781  14.988  13.837  15.658  0.2356 -0.0848 -0.2931
27368W        W40782   5.289   7.529   2.993 -0.0691  0.0087 -0.1030
27369W        W40783  17.066   5.632   0.770 -0.0192  0.0736 -0.0346
27370W        W40784  16.452   2.083   3.334  0.4508 -0.0382 -0.0327
27371W        W40785   8.039  17.409   1.146 -0.0677 -0.1155  0.0329
27372W        W40786  10.383  10.531   5.808 -0.2223  0.0085  0.1273
27373W        W40787   5.868  15.799  11.158 -0.1139 -0.3270  0.0050
27374W        W40788   7.919  13.247  10.498 -0.1887 -0.0431 -0.1430
27375W        W40789   1.624   7.880  13.569 -0.3015  0.1364  0.1293
27376W        W40790  16.917  10.522  13.984  0.3083 -0.2175 -0.0109
27377W        W40791  10.653   7.021  14.678  0.2862 -0.0032  0.0683
27378W        W40792  10.588   1.370   2.005  0.2206  0.4800  0.0272
27379W        W40793   5.728   6.742   6.185  0.0286 -0.0941 -0.0767
27380W        W40794   8.775   3.111  10.800  0.1489  0.0851 -0.2139
27381W        W40795  12.455   0.911  15.254  0.1031 -0.0566 -0.1277
27382W        W40796   4.118   0.868  14.227  0.0866 -0.0485 -0.0518
27383W        W40797   6.646   7.515  15.067  0.0781  0.3019  0.0370
27384W        W40798   0.154   5.480  15.342  0.0780 -0.2045  0.0081
27385W        W40799   1.404  11.811  12.839 -0.1719 -0.1665 -0.1753
27386W        W40800   8.074  16.313  15.032  0.2206 -0.0338 -0.4040
27387W        W40801   3.978   0.420  11.997 -0.2031  0.3076  0.2180
27388W        W40802  12.192  15.272   2.090 -0.0947  0.0193 -0.2001
27389W        W40803   8.681  13.323  16.365  0.2742  0.3061 -0.2451
27390W        W40804  17.426   1.868  13.255  0.0054 -0.0237 -0.0433
27391W        W40805  10.967   8.494   3.404 -0.0012  0.0722  0.0525
27392W        W40806   0.394   1.999  14.540 -0.3306 -0.1840  0.0473
27393W        W40807   4.367  10.488   2.636 -0.2327  0.1547 -0.0006
27394W        W40808   1.886   2.258  14.149 -0.1977 -0.1219 -0.2541
27395W        W40809   8.052   9.684   4.386 -0.1615 -0.1723 -0.0401
27396W        W40810   9.015   4.629   9.886  0.1422  0.0567 -0.0550
27397W        W40811   7.293   8.042  12.679 -0.0392  0.0980  0.1412
27398W        W40812   6.810   4.661  11.112 -0.4243  0.0539  0.0943
27399W        W40813   5.275  17.425  13.273  0.1834 -0.1961  0.1386
27400W        W40814   0.881  12.318   4.964  0.1863  0.4034 -0.1703
27401W        W40815   6.368   4.855  16.131  0.2358  0.0456  0.1931
27402W        W40816   1.351   0.805   0.913 -0.1348  0.1887  0.2053
27403W        W40817  15.175  12.546  15.460 -0.1063 -0.1789  0.0263
27404W        W40818   4.365   0.867   2.572  0.1814 -0.2533  0.1188
27405W        W40819   1.346   0.662   0.393  0.1352 -0.0749 -0.1858
27406W        W40820  11.891  16.920  10.879 -0.2726  0.0752  0.2500
27407W        W40821  16.885  13.280  15.943 -0.3164 -0.1212 -0.0312
27408W        W40822  10.223   3.591   1.968  0.1438 -0.3386 -0.2021
27409W        W40823   7.471  12.292  13.274  0.0135 -0.0077  0.0385
27410W        W40824   2.490   6.946  12.657 -0.0863  0.0617 -0.1663
27411W        W40825   4.858  15.408  10.114 -0.0749 -0.2390  0.2219
27412W        W40826  15.981   5.455   3.604  0.4053 -0.1278 -0.2961
27413W        W40827  17.794   2.133  15.245  0.5574  0.0251 -0.1595
27414W        W40828   9.771  15.104  14.269  0.1077  0.1239  0.2335
27415W        W40829  13.496  12.276  12.016  0.0899  0.0622  0.1407
27416W        W40830  12.521   2.983  14.313 -0.1115  0.1665  0.1400
27417W        W40831   9.499  10.068   2.271 -0.0166  0.0098 -0.1661
27418W        W40832   3.867  10.082   0.879  0.4331  0.2808 -0.1807
27419W        W40833  10.650  16.533  10.598  0.0942 -0.3191  0.3743
27420W        W40834   9.085   6.437   5.569 -0.1393  0.1250  0.0966
27421W        W40835  11.720   3.323   5.059 -0.2015  0.0911 -0.3675
27422W        W40836   4.148   7.964  14.329 -0.0337 -0.0583 -0.1718
27423W        W40837   2.581   5.565   2.448 -0.1605  0.2325 -0.2611
27424W        W40838  14.487   6.467  14.757  0.0987 -0.3875  0.1051
27425W        W40839   9.576  15.863  10.914  0.0609  0.1734  0.0055
27426W        W40840  12.913   5.361  12.501  0.0966  0.0040 -0.1639
27427W        W40841  18.076   7.236  15.103  0.0131 -0.0238 -0.2853
27428W        W40842   4.893   3.045   4.218  0.0684 -0.0247 -0.0708
27429W        W40843   1.458   8.648   4.286  0.0826 -0.2037 -0.2134
27430W        W40844  16.492   2.388  15.559 -0.1165  0.1406 -0.1934
27431W        W40845  17.814   0.573  12.810 -0.3705  0.1093  0.0087
27432W        W40846  12.662   3.083   5.403 -0.0519 -0.1598 -0.0401
27433W        W40847   9.040   2.621   1.748  0.1960  0.1264 -0.0130
27434W        W40848  14.732   4.767   4.785 -0.4636 -0.0861  0.2388
27435W        W40849  14.971  15.206   0.709 -0.0908  0.0107 -0.2380
27436W        W40850  12.186   7.982   0.595  0.0965  0.2354  0.1033
27437W        W40851  18.210  17.071   0.196  0.1537 -0.1368  0.4242
27438W        W40852   2.723  17.370  13.910 -0.4563 -0.1860 -0.2015
27439W        W40853   6.095   9.113  16.519 -0.0557  0.0744 -0.0814
27440W        W40854  12.576  11.922   3.825  0.1135 -0.0889 -0.0162
27441W        W40855  13.780   8.365   0.822  0.2360 -0.0803 -0.0101
27442W        W40856  16.608  11.693   3.364 -0.2370  0.4273  0.3415
27443W        W40857   9.170   3.783  10.930  0.0495  0.2999 -0.1000
27444W        W40858  14.461   2.482   9.785  0.0495 -0.2668 -0.1878
27445W        W40859   7.434  11.102   3.350 -0.2136  0.1010 -0.0970
27446W        W40860   6.680  11.501  14.163  0.0123  0.1537 -0.1025
27447W        W40861   0.249   5.315   2.255 -0.0913 -0.0735 -0.0624
27448W        W40862  11.446   2.595  12.811  0.1019  0.2088  0.0788
27449W        W40863  12.319  11.091  14.208 -0.0762  0.0992 -0.0316
27450W        W40864   8.889   4.383   5.344 -0.0231  0.1962 -0.0355
27451W        W40865   8.544  11.904   0.305  0.0482 -0.2225  0.1023
27452W        W40866  12.824  12.295  13.742  0.0335  0.0486  0.1891
27453W        W40867  16.050  11.325  13.662 -0.3216  0.1096 -0.0251
27454W        W40868  16.625  11.481  13.918  0.0424 -0.4731  0.0366
27455W        W40869  16.124  14.904   0.829  0.1617  0.1056  0.1698
27456W        W40870  12.589  11.010  15.200  0.0795 -0.1746  0.1660
27457W        W40871   8.726  16.535   3.623  0.0035  0.2931 -0.2618
27458W        W40872   8.844   9.247   2.381  0.3191  0.0451 -0.0459
27459W        W40873  14.306   0.847   0.306 -0.2135 -0.0839  0.2259
27460W        W40874   5.063   0.289  14.637 -0.2830  0.1360  0.0385
27461W        W40875   1.430  13.200  12.656  0.1817  0.0612 -0.1007
27462W        W40876   5.993   3.712   3.769 -0.0127  0.0927  0.0569
27463W        W40877   0.137  12.481  14.207 -0.1025 -0.1099  0.0746
27464W        W40878  12.373   4.787  11.476 -0.0087 -0.2279  0.2427
27465W        W40879  16.895  14.669  12.130 -0.0961 -0.3428 -0.5684
27466W        W40880   4.979  17.090   4.348 -0.1021 -0.1842 -0.2884
27467W        W40881   2.025   7.845   4.405  0.2518  0.3419  0.0020
27468W        W40882  13.812   5.515   0.677 -0.2024 -0.0061  0.0369
27469W        W40883   4.468   4.155  13.399  0.0242 -0.0075  0.0084
27470W        W40884   3.809   3.476   3.972  0.1942 -0.2325 -0.1428
27471W        W40885   3.945  11.321  11.440 -0.0537  0.0290 -0.0528
27472W        W40886  10.605  16.330  11.115  0.2481  0.0554 -0.2131
27473W        W40887   1.012  14.274  12.641 -0.2070 -0.4936  0.1813
27474W        W40888   8.201   6.847   2.187 -0.3541 -0.1542  0.1583
27475W        W40889  18.161   6.724   1.827 -0.0469  0.1345 -0.4562
27476W        W40890   3.813   1.104   3.901 -0.0817  0.0301  0.4454
27477W        W40891  15.445   5.626  16.342  0.0394 -0.1644 -0.0002
27478W        W40892   6.738  17.273  16.081 -0.1622 -0.0070 -0.2177
27479W        W40893   7.424   3.783  12.188 -0.3883 -0.1212  0.1422
27480W        W40894   4.866  13.941   6.647 -0.0585 -0.1518 -0.1093
27481W        W40895   4.971   9.323  10.928 -0.2709  0.1389 -0.2768
27482W        W40896   6.106   3.406  10.246 -0.1005 -0.2620  0.0303
27483W        W40897   1.709   1.485   2.104 -0.2610 -0.1795 -0.3698
27484W        W40898   8.804  10.059   3.727  0.1357  0.0318  0.1578
27485W        W40899  11.432  12.658   5.552  0.1405  0.0217  0.3054
27486W        W40900  13.560  11.537   1.349 -0.0288  0.1383  0.1135
27487W        W40901  17.390  14.442   4.250 -0.1862  0.1771  0.3836
27488W        W40902   1.072  10.425  13.907  0.2909 -0.1331  0.0598
27489W        W40903   7.944  17.196  11.686  0.1690 -0.1860 -0.0422
27490W        W40904   7.012  16.385   4.725 -0.3242 -0.0335  0.1828
27491W        W40905   2.242   6.791  10.733 -0.0401  0.1044 -0.0575
27492W        W40906   6.601   3.386  13.459 -0.1048  0.0793 -0.0283
27493W        W40907   9.834   5.149  12.114 -0.1099  0.2591  0.1013
27494W        W40908  12.427   1.543  13.243  0.1293 -0.2413 -0.0368
27495W        W40909   8.270   6.432   4.071  0.0277  0.0284 -0.1287
27496W        W40910   7.457  10.820  14.130 -0.1256 -0.1844 -0.0324
27497W        W40911   2.911  15.644  11.448  0.2073 -0.3005  0.0348
27498W        W40912  12.091  17.894  13.522 -0.0878 -0.2295 -0.1951
27499W        W40913   7.126  12.385   3.387 -0.2922  0.0801  0.2557
27500W        W40914   4.152   5.950   0.198  0.3265 -0.5037  0.0449
27501W        W40915   0.561   6.842   4.765  0.1073  0.1920  0.1588
27502W        W40916  10.876   2.635   2.996 -0.1296 -0.1429 -0.0665
27503W        W40917   0.516   1.251  15.909 -0.0658  0.0915 -0.1273
27504W        W40918   6.170   9.938   4.124 -0.0472 -0.2161  0.1335
27505W        W40919  14.623  12.030  15.877 -0.1389  0.0124 -0.0182
27506W        W40920   4.581   4.763   0.558 -0.1573 -0.0352 -0.4186
27507W        W40921   7.585   9.186   1.791  0.0364 -0.1365  0.1560
27508W        W40922  15.332  11.827  14.116  0.2109 -0.1341  0.1635
27509W        W40923  14.846  10.606  12.851 -0.0489 -0.1879 -0.2370
27510W        W40924  10.375   1.493  12.436  0.1184 -0.1669  0.1765
27511W        W40925  15.678  17.764  15.433 -0.0134  0.0157 -0.1624
27512W        W40926  16.493  14.804  15.568  0.1538 -0.1575  0.1788
27513W        W40927   4.031   9.252   0.946  0.2281 -0.0154 -0.1980
27514W        W40928  17.436   2.868   5.501  0.0446 -0.0332 -0.0688
27515W        W40929   5.924   3.544  14.992 -0.0352  0.0977  0.1688
27516W        W40930   3.507   9.620   3.747  0.4435  0.0455  0.1097
27517W        W40931  10.228  12.280  16.041 -0.2936 -0.0931  0.0186
27518W        W40932   1.560   3.191   1.727 -0.1245 -0.0201 -0.1144
27519W        W40933   5.001   1.140   0.310  0.1027  0.2204  0.0810
27520W        W40934   4.727   9.992   0.165 -0.4546  0.0912 -0.1332
27521W        W40935   9.406  11.594  15.090  0.1188 -0.2696 -0.0899
27522W        W40936   0.550   8.347   2.016 -0.1341 -0.1193  0.1584
27523W        W40937  11.817  10.997  13.464 -0.1480  0.1163  0.2549
27524W        W40938   1.899   2.341   3.327  0.0721  0.0671  0.1670
27525W        W40939  10.534  11.990  16.281  0.0149 -0.0744  0.0312
27526W        W40940  12.381  13.746  10.219  0.2030  0.2052  0.1584
27527W        W40941  16.418   8.428  14.696 -0.1916 -0.2626 -0.1759
27528W        W40942  14.223   8.801   2.552 -0.0483 -0.0371 -0.1336
27529W        W40943  16.544  17.831   5.116 -0.3916 -0.0662 -0.1728
27530W        W40944   4.729  14.901  11.514  0.4218  0.0942  0.1498
27531W        W40945  14.174  16.114  12.707 -0.0403 -0.4347 -0.0153
27532W        W40946  11.427  15.370   3.638 -0.1943 -0.1905  0.3991
27533W        W40947   8.583  11.431  12.261  0.1033  0.0852 -0.0854
27534W        W40948   4.041   5.922   0.676 -0.2427  0.5958  0.1745
27535W        W40949  11.824  17.298  14.245 -0.1892 -0.4547 -0.0685
27536W        W40950   6.671   1.239   0.901 -0.2407  0.1420  0.1919
27537W        W40951   0.296   7.834  16.413  0.0756 -0.1247  0.1177
27538W        W40952  10.586   7.875  16.057  0.2055  0.0488 -0.2865
27539W        W40953  10.211   4.325  11.691  0.1111 -0.1355 -0.3608
27540W        W40954  14.730  15.297  13.428  0.1259  0.0280  0.3088
27541W        W40955   6.767  18.194  11.815  0.0563  0.0881 -0.1244
27542W        W40956  10.862  11.119   4.503  0.2556  0.6348  0.3488
27543W        W40957   3.836   7.093   2.224 -0.0227 -0.0180 -0.1148
27544W        W40958   5.628  17.662  12.071  0.0563 -0.1722 -0.3391
27545W        W40959   1.916   2.150   2.292 -0.1003  0.2761 -0.1156
27546W        W40960  10.890  13.254  15.790  0.1865  0.4824 -0.0370
27547W        W40961   7.607  17.706  15.828  0.0133  0.0504 -0.0657
27548W        W40962  12.259  10.025   5.414 -0.0306 -0.0599  0.0459
27549W        W40963   2.578  12.516  13.219 -0.3824 -0.3397  0.0884
27550W        W40964  16.729  12.302  15.063  0.0518 -0.2005  0.2761
27551W        W40965  11.750  12.580  13.033  0.1993  0.1132 -0.1086
27552W        W40966  12.934  17.700   5.070 -0.1314  0.0896  0.3803
27553W        W40967   9.911  12.132  13.763  0.0672 -0.2002 -0.4696
27554W        W40968   9.321  11.428   2.873 -0.1745 -0.2938  0.0656
27555W        W40969   1.991  12.628   3.721 -0.1769 -0.5249 -0.1314
27556W        W40970  14.055  12.783  11.079 -0.0505  0.0772 -0.1842
27557W        W40971  10.649   2.655   0.799 -0.0543  0.3304 -0.1765
27558W        W40972  17.499   0.339   0.856 -0.0886  0.0004 -0.2687
27559W        W40973  16.732  14.916  14.644 -0.0104  0.1273  0.1336
27560W        W40974   0.499  16.788  11.493  0.0818  0.0185 -0.2189
27561W        W40975  15.080   4.693  12.447  0.2967  0.0327 -0.0356
27562W        W40976   1.742   4.957   4.067  0.1079 -0.1236  0.1131
27563W        W40977   1.985  17.888   4.092 -0.2033  0.0109 -0.0377
27564W        W40978  10.213  14.415   6.269  0.1964  0.0047 -0.1309
27565W        W40979  14.366   9.335   2.472 -0.2201 -0.0708 -0.0235
27566W        W40980   2.055  13.302   2.076 -0.1532 -0.1288  0.2260
27567W        W40981  14.550  13.118  16.311 -0.4854  0.0171  0.3008
27568W        W40982  12.256  10.758  15.522 -0.3624 -0.2703  0.0491
27569W        W40983   4.326  11.211   6.342  0.2584 -0.0673  0.0104
27570W        W40984  14.790   2.690   0.313  0.0913  0.3388  0.0362
27571W        W40985   0.970   7.965  14.852 -0.0130  0.2053  0.1683
27572W        W40986  11.085   6.848  14.453  0.1222 -0.1123  0.0098
27573W        W40987  16.526  16.900  12.414 -0.2979 -0.1534 -0.0077
27574W        W40988   7.158   1.441   1.168 -0.2143 -0.0009 -0.1011
27575W        W40989  10.241  10.333  11.054 -0.5051  0.0332  0.2730
27576W        W40990   2.010   8.865   0.352  0.1550  0.4742  0.0011
27577W        W40991   1.864   8.869   5.404  0.0727 -0.0409 -0.0510
27578W        W40992   6.297  15.015   1.980  0.0707 -0.0070 -0.2938
27579W        W40993   3.967   3.491  11.059 -0.0221 -0.1239  0.1892
27580W        W40994   3.769  15.153  16.418  0.3414  0.1436 -0.1900
27581W        W40995   4.263  12.117  16.042 -0.4113 -0.2428 -0.1045
27582W        W40996  18.205  13.300   4.834 -0.1207 -0.0346 -0.1290
27583W        W40997  10.423   1.851   3.593 -0.1891  0.0479 -0.0512
27584W        W40998   0.180  10.489   3.890 -0.1954  0.0706 -0.1925
27585W        W40999   2.472   3.985   1.713 -0.5079 -0.0680 -0.1320
27586W        W41000   5.871   6.058  12.261 -0.2283 -0.0706  0.1730
27587W        W41001   5.183  13.038   1.905 -0.3992  0.1217 -0.1789
27588W        W41002  16.508   6.166  15.804  0.1841 -0.0994  0.5543
27589W        W41003  14.993   7.802  16.045 -0.1273  0.2322 -0.3306
27590W        W41004   0.000   0.222   1.819 -0.0469  0.2224 -0.2412
27591W        W41005   3.769   6.486  13.172  0.0902  0.4103 -0.0595
27592W        W41006   1.680  12.401   5.432  0.3351 -0.2801  0.1495
27593W        W41007   3.397   4.058   0.146 -0.0988 -0.0287 -0.0598
27594W        W41008  11.627   9.694   1.335 -0.0921  0.1665 -0.1902
27595W        W41009   7.416   0.003   1.487 -0.2101 -0.0419  0.0429
27596W        W41010  14.309   2.807   0.306  0.0737  0.2628  0.1673
27597W        W41011   8.494  15.836   0.841  0.0375 -0.1685 -0.0757
27598W        W41012   0.412   1.954   6.474 -0.0336 -0.1253 -0.1073
27599W        W41013   1.292  10.423  12.389 -0.0557 -0.0147 -0.1099
27600W        W41014   3.415  12.982  14.013  0.3840 -0.0826 -0.2694
27601W        W41015   1.141   6.097  14.192 -0.2648 -0.0873  0.0792
27602W        W41016  10.545  15.803  11.773  0.0521  0.0805 -0.0175
27603W        W41017  15.719   0.080  12.038 -0.3935  0.2791 -0.1731
27604W        W41018   7.808  13.643  15.430  0.4064  0.2873  0.0915
27605W        W41019   0.093  15.232   1.219 -0.0499 -0.1843 -0.1440
27606W        W41020   6.157  11.707  13.140  0.2462 -0.4021  0.4310
27607W        W41021   1.012  10.499   4.295  0.0598 -0.3247  0.2217
27608W        W41022   6.547   8.016  14.341 -0.0477  0.2150  0.2668
27609W        W41023   0.472  15.377  11.242 -0.2870  0.0613 -0.0081
27610W        W41024   8.132  14.244   3.316  0.1546 -0.0508  0.0240
27611W        W41025   1.139  13.349   3.030  0.1424 -0.2134  0.0597
27612W        W41026  11.953   4.161  13.035 -0.1560 -0.0331 -0.2519
27613W        W41027  13.003  12.880   2.063 -0.0423  0.0906 -0.0008
27614W        W41028   7.921   1.185  11.428  0.0330  0.2323  0.2100
27615W        W41029   5.546  13.676  15.610 -0.1605  0.0143 -0.0997
27616W        W41030   8.315   9.663   4.797  0.1354  0.2577 -0.1100
27617W        W41031  13.024   8.805  14.461  0.3920 -0.1180  0.4297
27618W        W41032   2.864  10.709   1.294 -0.1770  0.1865  0.4957
27619W        W41033   9.388  10.381   3.049 -0.1080  0.2499 -0.3843
27620W        W41034  16.488  11.806  10.907 -0.4276 -0.2115 -0.0589
27621W        W41035   6.534   9.773  14.044 -0.0499 -0.1351  0.0594
27622W        W41036  17.319   8.014   0.672  0.0703  0.2299 -0.0446
27623W        W41037   6.859  10.671   4.085 -0.1971  0.0215  0.1816
27624W        W41038   2.993  17.914   4.146 -0.0412 -0.1288  0.2341
27625W        W41039   3.321  16.785   2.806  0.0147  0.1356  0.2172
27626W        W41040   3.408   8.658  14.994 -0.0588 -0.2982 -0.1651
27627W        W41041  14.000  17.577  12.879  0.4170  0.1786  0.0905
27628W        W41042   7.201   0.246  11.932  0.0023 -0.1131 -0.0835
27629W        W41043   0.162   8.185  15.408 -0.1997 -0.2757 -0.2566
27630W        W41044   6.107   8.324  15.408  0.0639 -0.1341  0.0208
27631W        W41045   8.756   2.075  12.012  0.0242  0.2783  0.5362
27632W        W41046  17.624  11.190   2.183  0.1469  0.1515  0.3333
27633W        W41047   6.461  18.012  13.914 -0.2348  0.2150 -0.2115
27634W        W41048  15.603   6.644  14.562  0.0260 -0.1239  0.0206
27635W        W41049  13.536  18.142  14.170  0.1129  0.0254 -0.0237
27636W        W41050  17.690   0.759   4.141  0.0261  0.0273 -0.1592
27637W        W41051  16.039  11.213   2.400  0.2939 -0.1692  0.0501
27638W        W41052   6.208  17.489   1.878  0.3084  0.3175  0.1398
27639W        W41053   1.170   3.554  13.991  0.0250 -0.2566  0.0259
27640W        W41054  15.475   1.600  12.379 -0.1135  0.1428 -0.1799
27641W        W41055  10.218   5.223   0.294  0.1613  0.1654 -0.1016
27642W        W41056  15.906  12.007   0.853 -0.3092 -0.2070 -0.0230
27643W        W41057   0.537   2.335   0.269  0.3508  0.1627 -0.0771
27644W        W41058  14.305  16.284   9.916 -0.1325 -0.1405  0.1458
27645W        W41059  12.315  10.496  15.937 -0.0099  0.2346 -0.3246
27646W        W41060   8.769  14.444  15.726  0.1938  0.1429 -0.2220
27647W        W41061  15.921  11.512  10.384 -0.0686 -0.0910 -0.0391
27648W        W41062  17.370  15.324  10.671 -0.0403  0.0408 -0.0604
27649W        W41063   5.648   9.126  12.987  0.2576  0.2003  0.0764
27650W        W41064   6.254  15.168   3.052  0.0376  0.2825 -0.1916
27651W        W41065  11.835  11.784  15.401 -0.0216 -0.1313 -0.1328
27652W        W41066   2.264  11.676   3.819 -0.0517 -0.3009  0.2443
27653W        W41067   5.270   1.207  14.159 -0.0274 -0.2326 -0.0257
27654W        W41068   4.402   2.760   6.075  0.0870 -0.2961 -0.0047
27655W        W41069   4.098   5.359   4.988 -0.1103  0.1336 -0.2435
27656W        W41070  16.571  14.379   0.694  0.1056  0.3091 -0.0808
27657W        W41071  10.693   4.808  13.622  0.1522  0.4611 -0.2250
27658W        W41072   0.542   1.736  15.940  0.0747 -0.2709 -0.1739
27659W        W41073  11.104  14.723  14.411  0.0369 -0.2039 -0.3316
27660W        W41074  13.317  13.223  12.797 -0.2393 -0.2298  0.3336
27661W        W41075   6.615  16.777  11.784  0.1064  0.0534 -0.0951
27662W        W41076   1.919  16.483  13.073 -0.0374  0.0703  0.0195
27663W        W41077   1.071  17.313  11.879  0.1498  0.0149  0.1401
27664W        W41078  17.222   9.710   1.137  0.0488 -0.1596  0.1029
27665W        W41079   6.014   8.450  11.491  0.4466  0.0089 -0.1293
27666W        W41080   4.988   0.869   5.847 -0.0593  0.4248 -0.1466
27667W        W41081  17.715  14.904  14.759  0.0068 -0.2304  0.1976
27668W        W41082  12.882   6.048  13.833 -0.2627  0.1492  0.0994
27669W        W41083   2.350  13.084   5.619  0.1709  0.2348 -0.1598
27670W        W41084   9.461  15.131  14.724 -0.1988  0.0157  0.0495
27671W        W41085   5.656   8.450  13.570  0.0901 -0.1488 -0.0586
27672W        W41086  14.715  16.796   5.212 -0.1116 -0.1053 -0.3245
27673W        W41087   3.905  16.148  10.120 -0.2751 -0.2030  0.4161
27674W        W41088   3.258   1.075  10.765 -0.1809  0.1449 -0.0171
27675W        W41089   5.685  12.939   5.656  0.1211  0.1613  0.5297
27676W        W41090  16.966  10.286  10.978  0.0517 -0.1252 -0.0724
27677W        W41091   6.351   0.103  14.258  0.2168 -0.0305 -0.1208
27678W        W41092  10.264  13.617   4.457  0.1296  0.2222 -0.3130
27679W        W41093  10.598   1.560   4.461  0.1425 -0.0976 -0.0254
27680W        W41094   5.510   2.376   4.095 -0.3291  0.0296  0.2396
27681W        W41095   3.036  16.524   2.437 -0.0645  0.3364  0.1346
27682W        W41096  10.126   1.421  13.906  0.4212  0.0490 -0.1272
27683W        W41097   6.777   7.355  11.030  0.1361  0.2236  0.0939
27684W        W41098   4.668  11.712  13.218  0.0482 -0.1088 -0.0035
27685W        W41099   1.036  16.127   4.135 -0.0212  0.1493 -0.0366
27686W        W41100   5.088  17.977   3.099 -0.0227  0.0586  0.1479
27687W        W41101   8.010  10.651  12.050  0.1896  0.1884  0.1478
27688W        W41102  10.330  18.076   0.392 -0.1101  0.1171  0.2320
27689W        W41103   8.806  17.517  13.285  0.4220 -0.1586  0.0992
27690W        W41104   5.390   3.869   4.688  0.3747 -0.0089  0.0275
27691W        W41105  14.240  14.542   4.670  0.0634 -0.1758  0.2347
27692W        W41106   4.907   0.070   1.291  0.2726  0.0481  0.0314
27693W        W41107  13.101   7.139   1.732  0.0479 -0.0469 -0.1804
27694W        W41108  16.832  15.999  11.035 -0.1878 -0.0111  0.0094
27695W        W41109  17.567   3.924  14.785  0.0318  0.0361  0.2849
27696W        W41110  11.818   9.969   6.304  0.1210 -0.2853  0.0267
27697W        W41111   2.033  12.749   1.820 -0.0074 -0.0204  0.1386
27698W        W41112   2.052  12.424  11.220  0.2868  0.0561 -0.1413
27699W        W41113   7.751   1.717  11.831 -0.2106  0.0926 -0.0459
27700W        W41114   4.024   1.772  15.853  0.0221 -0.0828 -0.2706
27701W        W41115   3.129  14.787   1.064 -0.3492 -0.2996  0.1015
27702W        W41116   2.054   2.027   5.794 -0.2122  0.0398 -0.3617
27703W        W41117  12.294   7.027   2.753 -0.2761  0.1332  0.3269
27704W        W41118  17.708  17.120  11.267 -0.0740 -0.1784 -0.0633
27705W        W41119  15.622  15.650  11.324  0.2580  0.1278  0.3732
27706W        W41120   1.318   4.842   2.413  0.2496 -0.0762 -0.1844
27707W        W41121   5.332  17.717   3.817 -0.2123 -0.0710  0.0882
27708W        W41122   8.112   2.268  15.387  0.0831 -0.1063  0.0644
27709W        W41123   7.484   6.138   4.183 -0.0341  0.0940 -0.0911
27710W        W41124  15.588   3.028  13.977 -0.2625 -0.1088 -0.2547
27711W        W41125   1.677   4.349   0.663  0.0326  0.1810  0.0815
27712W        W41126  14.571   4.068  10.404  0.0923  0.1461 -0.0749
27713W        W41127   7.272  12.269  16.190  0.0582 -0.0369 -0.1765
27714W        W41128   0.218  14.920   3.548  0.0045  0.1022 -0.2785
27715W        W41129   3.278  12.534  12.162  0.0912  0.0290  0.0079
27716W        W41130  17.568   0.077   5.742  0.0973  0.1764 -0.1328
27717W        W41131  12.778  17.696  12.430  0.1976 -0.0844 -0.2735
27718W        W41132   7.755   4.332  16.073 -0.1150  0.1919 -0.0922
27719W        W41133   9.059  15.764   9.583  0.3136 -0.2277  0.0846
27720W        W41134  13.793  12.528  11.443 -0.0203  0.2349 -0.1008
27721W        W41135  14.391  15.290  13.818  0.2194  0.1810  0.3619
27722W        W41136  16.806   7.296  12.616 -0.2890 -0.1650 -0.3022
27723W        W41137  15.432   4.835   0.302  0.0266  0.1142 -0.0259
27724W        W41138   8.750  10.998   0.392  0.0900  0.0654  0.1901
27725W        W41139  12.544   1.175  14.762  0.1864 -0.4036  0.2235
27726W        W41140  16.545  12.213  13.493  0.3621 -0.1025  0.0263
27727W        W41141   0.219   1.983  12.744  0.0841  0.0810  0.0521
27728W        W41142  15.106   4.761  13.347  0.0325 -0.1412  0.2304
27729W        W41143  16.761  12.826  12.907 -0.2389 -0.1039  0.3695
27730W        W41144   4.855  10.428   0.454 -0.0406  0.1210 -0.0377
27731W        W41145  18.188  13.674  15.468  0.0862 -0.1863 -0.1224
27732W        W41146   8.089   8.902  14.013 -0.0533 -0.3064 -0.0084
27733W        W41147   4.734   1.811  10.460  0.0366  0.0437  0.1285
27734W        W41148  13.233   7.149   4.706 -0.2482 -0.2502  0.1513
27735W        W41149  11.316   2.297  13.154 -0.0104  0.3765  0.3565
27736W        W41150   7.757  14.790  14.397  0.0295  0.0980 -0.2618
27737W        W41151   1.043   7.850   3.719 -0.1354 -0.0565 -0.1573
27738W        W41152   6.002   5.918  13.668  0.0635 -0.0479 -0.1056
27739W        W41153   1.243  16.607   5.404  0.0165 -0.3164  0.1709
27740W        W41154  12.409  17.005  10.917  0.0312 -0.0911 -0.3761
27741W        W41155  16.064   4.331   1.462 -0.0515 -0.1973  0.2725
27742W        W41156   3.712  14.355  11.879  0.1169  0.0958  0.1691
27743W        W41157  16.271   7.868  12.441  0.1889 -0.2225  0.0983
27744W        W41158  16.304   4.657   0.612  0.0293  0.0461 -0.0815
27745W        W41159   0.187   1.510  16.386  0.0590 -0.3195  0.2159
27746W        W41160   9.693   7.174   2.832  0.2343 -0.3252  0.1215
27747W        W41161  10.706   9.944   6.668 -0.3218 -0.0126  0.1694
27748W        W41162   0.371  14.835  10.566 -0.1049 -0.0193  0.1004
27749W        W41163  15.535  13.814  12.663  0.2450  0.2632  0.1282
27750W        W41164  11.890  14.916  12.965 -0.2978 -0.0653 -0.0190
27751W        W41165   7.702  11.030   1.749 -0.2228 -0.2198  0.3664
27752W        W41166  15.724  11.844   3.069  0.1851 -0.0750 -0.1694
27753W        W41167  11.869  16.023  12.386  0.1413 -0.1096  0.2310
27754W        W41168  15.503   0.869  11.377 -0.0618 -0.1709  0.1973
27755W        W41169  17.009  16.489   4.175 -0.0823  0.1477 -0.2761
27756W        W41170   9.510  16.951   0.113  0.0583  0.1924 -0.0192
27757W        W41171  17.262  15.109   4.277 -0.4969 -0.0203  0.1407
27758W        W41172  18.075   2.011  10.600 -0.0103 -0.0085 -0.0571
27759W        W41173  14.781   0.391  10.154 -0.0809  0.2014 -0.0582
27760W        W41174   7.137  10.706  16.336  0.2494 -0.6087 -0.1628
27761W        W41175   2.747   9.217   0.988  0.3856  0.0792  0.1805
27762W        W41176  17.341  15.676   2.458  0.2312  0.2399 -0.0238
27763W        W41177   5.781   6.363   4.891 -0.0612 -0.4191 -0.0578
27764W        W41178  15.034   4.361  16.093  0.2779 -0.0050 -0.1117
27765W        W41179  10.124  17.295  10.834 -0.3860 -0.2976  0.0155
27766W        W41180  15.393   9.152   4.460 -0.1882  0.2897 -0.0905
27767W        W41181  14.177   3.820  11.447  0.0296 -0.0365  0.1632
27768W        W41182   8.922   2.492  15.678 -0.1085  0.2678 -0.2332
27769W        W41183  12.799  12.927   5.701  0.0957  0.2555  0.1311
27770W        W41184  17.400   7.220   1.959 -0.2734  0.1491  0.2206
27771W        W41185   0.465  15.813  12.048 -0.0443  0.2780 -0.2198
27772W        W41186  16.877   8.809  15.855  0.2678  0.1054  0.2350
27773W        W41187  16.582   9.760  13.787  0.2162  0.0290 -0.1815
27774W        W41188  16.614   4.841   1.985 -0.3181 -0.0172  0.0383
27775W        W41189   9.107  14.968  11.425 -0.0424  0.1304  0.1313
27776W        W41190   9.162  13.373  13.354  0.0313  0.0342  0.0517
27777W        W41191  11.922   7.636   0.854 -0.0039 -0.1894 -0.2241
27778W        W41192   5.707   4.379   0.120  0.4143  0.0078  0.3288
27779W        W41193  11.298   5.640   5.845 -0.1713 -0.1638 -0.5297
27780W        W41194   8.476  12.938   0.112  0.2233  0.1250 -0.1221
27781W        W41195   5.327  13.052  14.960 -0.0179  0.1010 -0.1715
27782W        W41196  11.591  15.441   5.493  0.1745  0.1092  0.2520
27783W        W41197  18.007  10.536   4.299  0.0729 -0.1691  0.1907
27784W        W41198  15.877  10.656  12.366 -0.2145  0.0273 -0.0443
27785W        W41199   3.489   6.513   2.114  0.2225 -0.2342 -0.4466
27786W        W41200   3.608  11.484  13.035 -0.0914 -0.1000  0.0681
27787W        W41201  11.948  11.505  16.449  0.2129 -0.1286 -0.0466
27788W        W41202  15.946  10.296   5.752  0.0634  0.2151 -0.2618
27789W        W41203  11.063  16.419  12.345  0.1237  0.0573  0.0971
27790W        W41204   4.042   7.981   0.606 -0.0685 -0.0651  0.1121
27791W        W41205  16.722  14.182  13.297  0.0205  0.0798 -0.4178
27792W        W41206   1.183   8.136  11.457 -0.0605  0.2109 -0.0312
27793W        W41207   1.416  10.248   0.247  0.1484 -0.0988 -0.1146
27794W        W41208   8.942  17.524  15.133 -0.0375  0.0803  0.1686
27795W        W41209   0.038   4.367   2.003  0.0468 -0.3487  0.2516
27796W        W41210  16.944  16.512  15.800 -0.0685 -0.0150  0.1122
27797W        W41211  14.717   3.616   0.476 -0.2639  0.1072  0.1027
27798W        W41212  11.062   3.088   1.659  0.2118 -0.1325  0.1909
27799W        W41213  13.293  16.541  11.089 -0.2838  0.3211  0.4241
27800W        W41214  14.973  11.094  15.258 -0.1753 -0.0493 -0.2162
27801W        W41215   7.710   2.177  13.307 -0.0161  0.0341 -0.2757
27802W        W41216   7.194  10.950  13.099 -0.0325  0.3184 -0.3477
27803W        W41217  10.627  16.067  15.536  0.1073 -0.0729  0.0691
27804W        W41218  15.546   8.349  16.111  0.1272 -0.0396  0.0576
27805W        W41219  14.891   6.947   1.847  0.0911 -0.0267 -0.1817
27806W        W41220  16.304  13.568   5.723  0.2252  0.2303  0.5457
27807W        W41221  15.057   0.567   3.311 -0.0388  0.0605 -0.1008
27808W        W41222  18.047   3.962   2.180 -0.1660  0.5446 -0.2173
27809W        W41223   6.105   5.218   4.317  0.2911 -0.0761 -0.0308
27810W        W41224  16.352   9.014   4.545  0.1019 -0.1478 -0.0626
27811W        W41225   4.163  12.556   0.946 -0.0631  0.0067  0.2236
27812W        W41226   4.985   4.348  13.235  0.0606  0.1007 -0.2061
27813W        W41227   5.320  15.030  10.097  0.1397  0.0417 -0.0145
27814W        W41228   1.398   7.696  15.091  0.1371  0.1317 -0.3246
27815W        W41229   4.112  13.495  14.296  0.2563 -0.0496  0.2291
27816W        W41230  13.261   7.622   1.988 -0.1259 -0.1317  0.1281
27817W        W41231   1.811  11.715   0.831  0.0230  0.2167 -0.1016
27818W        W41232   0.808  13.804  15.643 -0.1110 -0.0369 -0.0699
27819W        W41233  12.564   5.238  14.992  0.2052 -0.1228  0.1977
27820W        W41234   4.378   3.841   0.396  0.1238 -0.1366  0.3606
27821W        W41235  18.184  14.219   6.529  0.0816  0.2535 -0.0399
27822W        W41236   1.588   9.935  15.225 -0.1671  0.1262 -0.0493
27823W        W41237   5.128   5.684   3.368 -0.0766  0.0822 -0.2778
27824W        W41238   3.446   7.990  11.370 -0.3212  0.0022 -0.1753
27825W        W41239  15.292  17.671   4.878 -0.1488  0.1484 -0.2915
27826W        W41240   8.427   9.726  11.331  0.1313 -0.0755 -0.0047
27827W        W41241   9.574   1.479  10.108  0.1541  0.1865  0.0128
27828W        W41242  12.048  11.970   0.106 -0.2401  0.0110 -0.0273
27829W        W41243  16.983   1.985  15.722 -0.0149 -0.1468  0.1609
27830W        W41244   5.184   4.921   1.218  0.0852  0.0016 -0.1479
27831W        W41245   3.112  14.728  12.855  0.1953 -0.1186  0.0294
27832W        W41246  15.688  16.103   3.689 -0.0870 -0.0344 -0.1531
27833W        W41247  12.588  13.774  14.338  0.2426  0.0128 -0.1259
27834W        W41248  14.223   2.300  16.076 -0.2305  0.1978  0.2821
27835W        W41249  12.747   8.627  14.843 -0.3373 -0.1035 -0.0446
27836W        W41250  10.890   9.538   6.445  0.3677 -0.0221  0.3365
27837W        W41251  17.462  15.579   1.670  0.2501 -0.6235 -0.1386
27838W        W41252  13.729  11.544  12.403 -0.1595 -0.2921 -0.1360
27839W        W41253  10.524  12.827  15.960  0.1962  0.1811 -0.0930
27840W        W41254  17.177   3.800   3.843  0.0196 -0.0481 -0.0388
27841W        W41255   9.269  10.937   0.376  0.2830  0.0384  0.1121
27842W        W41256   4.551   1.125  16.019 -0.0519  0.0519 -0.0052
27843W        W41257  15.660   1.752   0.863  0.2181  0.4069  0.2230
27844W        W41258  13.633  10.200   0.831  0.2126 -0.1128  0.2339
27845W        W41259   3.457   8.586   2.431 -0.1610  0.1615 -0.2417
27846W        W41260  16.884  14.220   5.223  0.0142 -0.0257  0.2679
27847W        W41261   4.936   6.965   2.391 -0.1874  0.0284  0.0339
27848W        W41262   1.466  17.217   3.632 -0.1083  0.1920 -0.1274
27849W        W41263  15.865  12.466  14.615 -0.2632 -0.2065 -0.0992
27850W        W41264  10.180   8.957  11.184 -0.1842 -0.1713 -0.3692
27851W        W41265  12.691  13.600  11.375  0.0461  0.0010 -0.2407
27852W        W41266   1.174  12.263  15.499  0.0208 -0.1928  0.1899
27853W        W41267   9.763  11.182  12.253 -0.2030  0.2374 -0.0212
27854W        W41268  16.781   6.625  14.793  0.0017  0.0115  0.3045
27855W        W41269  11.091  14.264  12.697 -0.2359  0.3493 -0.0219
27856W        W41270  12.497  12.844   6.050 -0.2670 -0.2080 -0.3730
27857W        W41271   6.649   4.051  15.115  0.1600  0.0137  0.2572
27858W        W41272   2.544   0.392  15.922 -0.1477  0.0527  0.2446
27859W        W41273   6.642   8.912  12.087  0.0283  0.2751 -0.0906
27860W        W41274   8.230  14.531  12.478  0.1591 -0.0527 -0.0479
27861W        W41275  12.306  14.284  13.323  0.3465  0.3860 -0.2496
27862W        W41276   2.838   9.968  13.953 -0.0233 -0.0964  0.2592
27863W        W41277  12.622   4.493   5.147 -0.0512  0.1877 -0.1426
27864W        W41278  16.448   5.255   2.319  0.0229 -0.2051  0.1894
27865W        W41279   6.851   2.974   1.890 -0.1699  0.0587  0.1271
27866W        W41280   1.809   2.837   3.805 -0.0714  0.0276 -0.1222
27867W        W41281  10.586   7.471  16.349 -0.1544 -0.0894 -0.0572
27868W        W41282   7.044  12.235   0.714  0.2994 -0.0313 -0.0970
27869W        W41283   7.749   3.523  12.440  0.2289  0.1031 -0.0170
27870W        W41284   2.406   5.590   5.261 -0.0219  0.2701  0.0390
27871W        W41285  16.151   7.346   6.142 -0.0913 -0.1802 -0.1348
27872W        W41286   4.431  12.904   1.164  0.0660 -0.0446  0.0275
27873W        W41287  10.401   4.734   0.610 -0.1607 -0.3059 -0.2539
27874W        W41288  11.086  14.279   2.868  0.1655  0.1110  0.0765
27875W        W41289   0.030   4.074  11.500  0.2551 -0.0459  0.6175
27876W        W41290   8.756   9.185   1.816 -0.2910 -0.0078 -0.0533
27877W        W41291  17.583  17.110  13.181  0.3028  0.1283 -0.3153
27878W        W41292  16.586   3.184  12.258  0.0680  0.2702  0.2231
27879W        W41293  10.808  14.148  11.654 -0.0531  0.0131  0.1197
27880W        W41294   6.996  11.183  11.608 -0.1604 -0.1527  0.0155
27881W        W41295  17.966   5.596  11.471  0.1072 -0.1108 -0.1481
27882W        W41296   5.955  11.168   0.282  0.1769 -0.0507  0.2195
27883W        W41297   3.562   6.624  12.746 -0.1184 -0.1435 -0.0237
27884W        W41298  15.288  10.208  14.000  0.0180  0.1608 -0.1655
27885W        W41299   4.896  14.022  13.455 -0.1096  0.1656  0.0489
27886W        W41300   0.825   1.678   3.573 -0.4299 -0.1511  0.0822
27887W        W41301   4.557  15.818  11.167 -0.0827 -0.1963 -0.0391
27888W        W41302   3.419   7.619   3.817  0.0352 -0.0862 -0.3152
27889W        W41303  15.174   8.423   3.117 -0.0186 -0.1811 -0.1513
27890W        W41304  16.278  15.132  15.987 -0.1712 -0.1673  0.0218
27891W        W41305  16.171   1.729   3.753 -0.0264  0.1812 -0.1044
27892W        W41306   3.510   9.290  12.009 -0.2171  0.1673 -0.0003
27893W        W41307  15.226  13.739   1.414  0.1222 -0.0802 -0.1300
27894W        W41308  15.354  16.875  12.891  0.0479 -0.0018 -0.0440
27895W        W41309   8.940  12.610   3.758  0.3685  0.1843  0.0394
27896W        W41310   4.884   2.122  14.721 -0.2239 -0.0648 -0.0999
27897W        W41311  10.203  11.739   1.305 -0.3166 -0.3254 -0.1628
27898W        W41312  17.498   1.207  16.170  0.0568  0.0934 -0.0453
27899W        W41313   4.174   2.082  10.278 -0.1829 -0.0072 -0.1220
27900W        W41314   4.910  15.348  12.719 -0.1908 -0.0291  0.0661
27901W        W41315  10.634   9.925   1.767  0.2876 -0.0374 -0.1088
27902W        W41316   2.244  14.009   3.679  0.3247  0.2528 -0.2503
27903W        W41317   5.942  12.748  14.476 -0.0055 -0.4179  0.1899
27904W        W41318   6.234   0.921  15.886 -0.2679 -0.3532 -0.2971
27905W        W41319  17.471   0.393   2.803  0.0508  0.0245  0.0076
27906W        W41320   0.949   1.920   5.240 -0.0977 -0.0555 -0.0943
27907W        W41321  16.643  13.966   1.073 -0.1942 -0.0424 -0.2376
27908W        W41322  14.821   3.801  11.220 -0.1298 -0.1388 -0.1399
27909W        W41323  13.999   8.022  12.534 -0.1815 -0.4399 -0.0582
27910W        W41324  13.252  12.500   0.248 -0.1105 -0.0128  0.0235
27911W        W41325  13.159  14.228   5.169 -0.2109  0.2378  0.2564
27912W        W41326   1.508   8.945  15.013 -0.2630  0.0684 -0.2317
27913W        W41327   4.460   1.628  12.072  0.1302  0.0405 -0.2054
27914W        W41328  13.878  15.417   4.142 -0.0653  0.1130  0.3196
27915W        W41329   4.458  15.258   2.566  0.1223 -0.0432  0.4202
27916W        W41330   6.967   4.820   0.917  0.0371 -0.1380 -0.0116
27917W        W41331   7.305  15.737  16.407  0.2162  0.0437  0.1238
27918W        W41332  12.793   3.098   1.105 -0.1632 -0.0957 -0.2086
27919W        W41333   3.664  14.666  16.339 -0.0975 -0.0572 -0.0437
27920W        W41334   6.680  17.874   4.307  0.1956 -0.1364  0.0902
27921W        W41335  14.588   7.537   5.119 -0.0859  0.2070  0.1419
27922W        W41336   8.194  16.009  11.240 -0.2798  0.3741 -0.1348
27923W        W41337  10.641   2.819  11.768 -0.2379 -0.1167 -0.2702
27924W        W41338  17.288   7.010  11.983  0.1397  0.2924  0.0844
27925W        W41339   8.807   3.946  13.661  0.1839  0.0764  0.0291
27926W        W41340   3.002   2.652  14.873 -0.0326 -0.1527 -0.1413
27927W        W41341   4.233   1.297   2.191  0.2535 -0.0811 -0.1639
27928W        W41342  17.508   5.023  11.010  0.0615  0.1251 -0.1829
27929W        W41343  17.557  14.807   3.701 -0.0558 -0.0354 -0.1889
27930W        W41344  12.718   3.223   9.698  0.1530 -0.1040 -0.3270
27931W        W41345   2.029  14.376  13.480  0.2223 -0.1208 -0.1444
27932W        W41346   2.761   6.946   3.228 -0.0365  0.0609 -0.1471
27933W        W41347  13.103  16.187   1.419 -0.1775 -0.0515 -0.0410
27934W        W41348   1.591   6.709   4.701 -0.0145  0.0870  0.0323
27935W        W41349   7.068   6.366   4.362  0.0187 -0.1313  0.1061
27936W        W41350  16.816   0.968  11.473  0.1737 -0.3386  0.2966
27937W        W41351  11.857  10.297   5.188  0.1944  0.4264  0.3318
27938W        W41352  10.712   2.315  11.842  0.0789  0.0471 -0.2098
27939W        W41353  16.532   0.148   9.989 -0.0239  0.1336  0.0077
27940W        W41354   2.333  12.294   3.639 -0.0714 -0.0440 -0.2679
27941W        W41355   3.568   9.745  13.683  0.1392 -0.0817  0.2137
27942W        W41356  13.707   1.928   4.128 -0.1710  0.1942  0.0712
27943W        W41357  15.044   3.471  13.788  0.0328 -0.0498  0.0443
27944W        W41358   6.973   6.029   3.959  0.1568 -0.3650  0.1198
27945W        W41359   7.160  10.333   2.160  0.0468  0.1520  0.1001
27946W        W41360  16.354   7.346  12.559 -0.0091 -0.2237  0.0613
27947W        W41361   4.038   1.427  15.432  0.2814  0.0124  0.0905
27948W        W41362  13.859   5.639   3.503 -0.2203  0.0455 -0.2408
27949W        W41363  17.323  12.899   2.318 -0.0532 -0.2347 -0.0509
27950W        W41364  12.668  14.084   3.783  0.3156  0.0323 -0.1379
27951W        W41365   7.148  10.437  12.178  0.2938 -0.1710  0.0797
27952W        W41366   9.588  16.271  12.741 -0.0357  0.0549 -0.0724
27953W        W41367   0.155  13.827  10.877  0.1067 -0.0613 -0.0818
27954W        W41368  13.401   3.230   5.886  0.1185  0.1133  0.3653
27955W        W41369   0.951   7.759  15.302 -0.3114  0.2265 -0.2982
27956W        W41370   9.384  14.831   4.840  0.2548  0.0407 -0.0298
27957W        W41371  13.015   7.666   2.528  0.3126  0.1903  0.0823
27958W        W41372   4.096  17.239  14.284 -0.3174  0.2775 -0.0956
27959W        W41373   5.262   4.018  14.678 -0.0794 -0.0507 -0.0798
27960W        W41374   7.579   6.488  10.055  0.0688  0.4055 -0.1900
27961W        W41375  12.129  10.782  11.394  0.1610 -0.0526  0.1286
27962W        W41376   5.523  17.914  13.001 -0.0896  0.1404  0.0317
27963W        W41377   0.884  16.621   0.213 -0.1552  0.0032 -0.0115
27964W        W41378   1.738  14.894  13.656  0.2075 -0.1487 -0.0368
27965W        W41379  14.178   9.669  11.322 -0.1934 -0.1797 -0.2638
27966W        W41380   4.876   5.960   4.178 -0.0217 -0.0836  0.0213
27967W        W41381  15.801   9.353   0.905  0.3054 -0.0599 -0.0029
27968W        W41382   5.840   8.214  14.546  0.0333 -0.2329 -0.0650
27969W        W41383  12.218  16.918  12.628 -0.1212  0.0786  0.0465
27970W        W41384   0.882   6.184  11.887  0.0705  0.1394  0.0972
27971W        W41385  17.715  10.037  12.665 -0.2382 -0.0311  0.1329
27972W        W41386   4.758  13.734   0.972 -0.0793 -0.0753 -0.1206
27973W        W41387   6.756   1.404   5.361  0.0308  0.0746 -0.0412
27974W        W41388  12.539   4.969   4.960 -0.1024 -0.0204  0.0379
27975W        W41389   2.510  14.773   3.300  0.0404 -0.2481 -0.1435
27976W        W41390  16.111  16.723   3.942 -0.1427 -0.1668  0.1759
27977W        W41391  13.455   5.916   0.815 -0.1875 -0.4221  0.4723
27978W        W41392   6.411  15.093  13.814 -0.1678  0.0331  0.0778
27979W        W41393  11.354  18.135   3.154  0.2923  0.0290 -0.3897
27980W        W41394  15.985   6.828  14.263  0.1857 -0.1360 -0.2848
27981W        W41395   2.660   0.655  11.318 -0.0361 -0.0552 -0.1578
27982W        W41396  15.979  17.043  13.450  0.3153  0.0129  0.3475
27983W        W41397   9.858   9.600   0.798 -0.0617  0.2769 -0.2854
27984W        W41398   5.935  12.286  11.906 -0.0309  0.1952 -0.0197
27985W        W41399   5.622   5.152   4.119  0.1522  0.1151 -0.0118
27986W        W41400  11.857   2.237   3.100 -0.0261  0.2734  0.1005
27987W        W41401   8.586   7.867  13.019 -0.1743  0.3289 -0.0745
27988W        W41402   5.423   9.268  11.201  0.2380 -0.2491  0.4337
27989W        W41403   1.749  15.760   1.498 -0.0967  0.2582  0.1933
27990W        W41404  16.707   8.840  11.033 -0.0247  0.2000  0.0388
27991W        W41405  16.692  14.755   3.205 -0.1001  0.0645  0.0409
27992W        W41406   8.338   0.656   2.033 -0.1503 -0.0092 -0.0140
27993W        W41407   3.405   2.703   5.464  0.2605  0.1719  0.3472
27994W        W41408  15.879   9.196   2.094  0.1391 -0.3024 -0.0669
27995W        W41409   4.913   1.622  14.295 -0.1118 -0.3788 -0.0206
27996W        W41410   5.954  18.115   1.288 -0.0339  0.0860  0.4094
27997W        W41411  14.912   4.314   2.066  0.2846 -0.0302  0.0975
27998W        W41412   4.099  17.998  14.489  0.1115 -0.2814  0.0306
27999W        W41413  11.996  14.597  12.598  0.0509 -0.1413  0.0648
28000W        W41414  17.379   7.332   3.625 -0.0874 -0.0232 -0.0873
28001W        W41415   5.668  13.885   1.686  0.3571 -0.2015  0.2171
28002W        W41416  13.383  15.807  11.558  0.1662 -0.1617  0.1222
28003W        W41417   4.474   4.799  15.987  0.0708 -0.0812 -0.2386
28004W        W41418  12.955   4.669   4.316  0.2266  0.0977  0.0215
28005W        W41419   5.745   4.677   5.904  0.0981  0.0609 -0.2898
28006W        W41420   1.550  17.264   5.272  0.0226  0.1645 -0.1340
28007W        W41421   3.814   8.722  15.339 -0.0344 -0.3374 -0.3679
28008W        W41422   0.133  12.780   0.254 -0.0611  0.2322 -0.0787
28009W        W41423  15.518   8.633   4.418 -0.0401  0.0648 -0.0959
28010W        W41424   7.971  12.809  13.680 -0.0303 -0.1019 -0.0964
28011W        W41425   9.537   5.561  16.023  0.0160  0.3598 -0.0098
28012W        W41426  11.105   2.252   4.658  0.0441  0.0017 -0.1297
28013W        W41427   7.212   1.213   3.767 -0.0841 -0.4007 -0.0305
28014W        W41428   7.780   8.820  16.180 -0.0299 -0.3053 -0.0349
28015W        W41429  14.111   3.304   1.053 -0.3158  0.0985  0.0011
28016W        W41430   3.821   4.643   2.051  0.2070  0.0578 -0.1654
28017W        W41431   2.106   5.906  11.393 -0.0270 -0.3809 -0.1748
28018W        W41432  13.009   9.693   0.927  0.2632 -0.0643 -0.1006
28019W        W41433   2.063   0.784   1.511 -0.1851  0.0505 -0.1031
28020W        W41434  10.921   3.554   0.499  0.1638  0.0854  0.2528
28021W        W41435  12.165   3.281   5.259 -0.0990 -0.2778 -0.1602
28022W        W41436  11.547  10.334  12.267  0.0961 -0.1258 -0.0599
28023W        W41437   1.825  17.106   0.346 -0.0182 -0.0863  0.0055
28024W        W41438   4.906  10.661   2.346  0.0869 -0.3948  0.0541
28025W        W41439  10.950  14.794  12.939 -0.1514  0.4989 -0.2531
28026W        W41440   2.735   3.500   0.086  0.0958 -0.1653 -0.0047
28027W        W41441   4.973   3.986  13.625 -0.3335  0.3005  0.0573
28028W        W41442   4.117   6.679   5.273  0.0198  0.3260 -0.4323
28029W        W41443   2.452  12.065   5.451 -0.1567  0.0978 -0.0739
28030W        W41444   6.627   2.632  11.829 -0.2118  0.2057  0.1611
28031W        W41445   1.313   1.440  15.402 -0.5342 -0.2851 -0.0005
28032W        W41446  14.463  16.337  13.527  0.1890 -0.1433  0.0919
28033W        W41447  11.948   7.934  15.396 -0.0489 -0.0857 -0.2268
28034W        W41448   5.415   4.690  14.078 -0.3868  0.1014  0.1337
28035W        W41449  15.119   6.706  12.513  0.0573  0.2809 -0.0068
28036W        W41450  16.653  10.367   1.492  0.0053 -0.1107 -0.0375
28037W        W41451  17.384  12.147   4.213 -0.0114 -0.3623 -0.1773
28038W        W41452   4.009  13.979   2.121 -0.0687  0.0499  0.3511
28039W        W41453   8.852  16.025   1.261  0.0365  0.1464  0.2526
28040W        W41454   5.872   3.418   5.689  0.0429  0.0076  0.1054
28041W        W41455  16.055   8.918  15.156  0.1986  0.1729  0.0228
28042W        W41456   2.715   4.453  11.865 -0.4926 -0.0451  0.1886
28043W        W41457  11.481   9.301  14.382 -0.1634  0.4007 -0.1870
28044W        W41458   8.692  14.621  12.664  0.1394  0.0866  0.1089
28045W        W41459   2.634  17.260  13.336 -0.0149  0.0321  0.1788
28046W        W41460   3.614  15.406   1.116  0.1487  0.1283  0.1352
28047W        W41461   4.588   7.015  15.320  0.1595 -0.0557  0.1015
28048W        W41462  13.402  13.375   5.350  0.1993  0.1206  0.0095
28049W        W41463  14.132  13.793   2.452  0.0930 -0.1395 -0.0080
28050W        W41464   5.168  15.881   3.996 -0.0971 -0.1211  0.2108
28051W        W41465   0.650   1.370  14.285  0.0231 -0.2826  0.0471
28052W        W41466   0.538   5.852   6.025  0.0225  0.2130  0.0922
28053W        W41467   7.326   8.550   5.682  0.1004 -0.0552 -0.1097
28054W        W41468  15.463  12.650  13.777  0.0545 -0.0514  0.2395
28055W        W41469   0.587  10.543   0.578  0.0943 -0.2150 -0.0420
28056W        W41470   3.245  17.631  12.697  0.1437 -0.1711  0.1960
28057W        W41471   6.252   5.700  14.644  0.2828  0.4144  0.2982
28058W        W41472   0.847   3.102  12.975  0.2844 -0.1588  0.0453
28059W        W41473  14.687   6.719   0.876 -0.0299  0.4223  0.1395
28060W        W41474   2.846   6.762  11.465 -0.1624  0.0268  0.2686
28061W        W41475   2.544   2.053  12.187 -0.1403  0.2228 -0.0442
28062W        W41476   4.236   6.296   5.959 -0.1572  0.0035  0.0527
28063W        W41477   4.190   4.202  13.825 -0.3153  0.2780  0.0531
28064W        W41478   3.746   8.477   0.464 -0.2222  0.0591  0.1227
28065W        W41479  16.287   0.130   5.712  0.0614  0.0181 -0.1504
28066W        W41480   9.709  16.624   3.568  0.0128 -0.1251 -0.0589
28067W        W41481  12.531   5.747  14.788  0.0171  0.0443  0.0937
28068W        W41482  10.597  10.071   5.640 -0.4075  0.2994  0.0914
28069W        W41483  15.902  11.489   2.788  0.1266  0.1777  0.1783
28070W        W41484   1.817  15.298   3.325  0.0795  0.3041  0.0784
28071W        W41485   2.977   2.852   6.401  0.2934 -0.1809 -0.0618
28072W        W41486  17.947  17.934  13.728 -0.0669  0.1549  0.2318
28073W        W41487  17.890   2.698  15.936 -0.2895 -0.3346 -0.2018
28074W        W41488  16.450  17.475  15.056  0.1104  0.3091  0.0093
28075W        W41489   7.313  12.260  12.625 -0.2084 -0.0254  0.0607
28076W        W41490  16.416  17.364   1.485  0.0568 -0.1080 -0.2792
28077W        W41491   3.978  12.512  13.216  0.0415  0.0992  0.1137
28078W        W41492   1.884  15.400   6.417  0.0267 -0.3068  0.0064
28079W        W41493   0.305   5.258   5.407 -0.0886  0.1862 -0.0037
28080W        W41494   1.927   4.189  10.910 -0.0994  0.1928 -0.0603
28081W        W41495  17.843   2.823   0.294  0.1280 -0.4171 -0.2280
28082W        W41496   5.395  15.224  15.290  0.0297 -0.2771  0.1548
28083W        W41497  12.563   4.843   1.052 -0.2036 -0.2082 -0.1804
28084W        W41498  10.001  15.234   3.635 -0.3858 -0.1980 -0.3809
28085W        W41499  13.480   3.886   5.101  0.1402  0.2561 -0.2792
28086W        W41500  16.261   3.795  16.197 -0.2851  0.1891  0.0758
28087W        W41501   4.455  13.647  10.781 -0.1142 -0.0678 -0.1454
28088W        W41502  13.416  10.112  12.345 -0.0520  0.0049  0.0514
28089W        W41503  14.724   1.809  14.502 -0.1223 -0.4636 -0.2619
28090W        W41504  17.706   8.736  10.494 -0.2072 -0.1729  0.1984
28091W        W41505   0.251  14.291   3.552  0.2054  0.1443 -0.0165
28092W        W41506  13.201   0.175  14.508 -0.0584  0.3403  0.1512
28093W        W41507  17.725   8.455  16.167  0.1630  0.0161  0.1360
28094W        W41508  14.894   9.313   2.170  0.0463  0.1121 -0.1268
28095W        W41509  16.332  10.154  15.481  0.1876 -0.2144 -0.0575
28096W        W41510   4.046   1.665   0.979  0.0650 -0.3291 -0.2224
28097W        W41511   2.201  11.155   1.634 -0.2466 -0.0439 -0.1074
28098W        W41512  12.969   7.380  13.226 -0.2797 -0.1250  0.0912
28099W        W41513   7.473  12.486   2.398 -0.1310 -0.1671 -0.0149
28100W        W41514  15.671  13.925  10.773  0.1683  0.2159  0.3462
28101W        W41515  10.045   3.817   5.259 -0.3522  0.2388  0.1043
28102W        W41516  11.909  17.615   0.156 -0.1293  0.2815  0.1774
28103W        W41517  18.025   5.110  12.350 -0.4061  0.0171  0.0780
28104W        W41518  16.148   8.207   4.656 -0.0145 -0.0725 -0.1544
28105W        W41519  13.030   0.741  12.957 -0.2475  0.0884 -0.1765
28106W        W41520  11.899   3.768   5.037 -0.0538 -0.1760 -0.1557
28107W        W41521   9.067   0.960   1.109  0.4124  0.2637 -0.1724
28108W        W41522  13.948   6.717   3.416  0.4657 -0.1021  0.0261
28109W        W41523  13.451  11.903   5.783  0.0335  0.0011  0.1147
28110W        W41524   4.289  10.584  14.213 -0.1691  0.0250 -0.0040
28111W        W41525   9.437  12.920  15.642 -0.0501  0.0055  0.1290
28112W        W41526  11.840  17.592  15.146  0.2198 -0.2297 -0.1916
28113W        W41527   5.226   4.494  12.811 -0.0515 -0.2944 -0.1381
28114W        W41528  14.441   3.706  16.295 -0.0255 -0.1624  0.3430
28115W        W41529   3.687   7.636   2.361 -0.1631  0.2200  0.3174
28116W        W41530  14.141   1.096   4.276 -0.2843 -0.1497 -0.0710
28117W        W41531  16.717   4.850   0.266  0.3009  0.1220 -0.0367
28118W        W41532  11.328  16.290  11.323  0.1827  0.0645 -0.0114
28119W        W41533  15.234   3.938   6.297  0.0121 -0.0013 -0.0952
28120W        W41534  10.840  17.430   3.708 -0.3935  0.0219  0.3504
28121W        W41535  10.805  10.622   5.576  0.2235 -0.1340  0.0380
28122W        W41536   7.497   4.399  12.429  0.0140 -0.0293  0.2297
28123W        W41537  15.459  11.490  11.338 -0.2380  0.0236 -0.1415
28124W        W41538  12.794  16.388  14.526  0.0817  0.0987  0.3862
28125W        W41539   5.830  17.817   3.539 -0.2229  0.0361 -0.1712
28126W        W41540   5.798  11.197   5.383  0.3012  0.0591  0.1411
28127W        W41541   7.924  11.331   4.157  0.3328  0.1116 -0.4454
28128W        W41542   1.608  10.347  13.422  0.2961  0.4002  0.2426
28129W        W41543  14.742  15.210  16.298 -0.3286  0.0993 -0.0754
28130W        W41544  16.142   1.946  16.168  0.0173  0.1238  0.2342
28131W        W41545  12.729  17.503   1.083 -0.0879  0.2199 -0.1220
28132W        W41546  14.704  16.385  12.503  0.4099 -0.1026  0.1651
28133W        W41547   7.179   9.621   6.443 -0.0842 -0.0514  0.0644
28134W        W41548  18.041   0.746   3.334 -0.0061  0.0246  0.0620
28135W        W41549   4.994   2.142   4.596 -0.0745 -0.2353 -0.2329
28136W        W41550  12.110   3.515  10.225 -0.1095  0.1283 -0.0760
28137W        W41551  12.705   3.990  10.907 -0.0115  0.0652 -0.3273
28138W        W41552  16.769   8.007   5.162 -0.1215  0.0128 -0.1490
28139W        W41553  14.286  14.631   0.912 -0.0479  0.1559  0.2151
28140W        W41554   7.546  16.926  13.319 -0.1645 -0.3065  0.0416
28141W        W41555  17.461  16.787   3.997 -0.1780  0.0903  0.0387
28142W        W41556   2.897   6.124  13.879 -0.0548 -0.0327 -0.0456
28143W        W41557  14.807   1.061  14.726  0.0155 -0.0003  0.3019
28144W        W41558  12.843  16.106   0.404 -0.2578 -0.1497 -0.2264
28145W        W41559  12.418  17.365   4.491  0.0481 -0.1236 -0.2265
28146W        W41560   9.570   5.069  16.106 -0.0019  0.3435 -0.3081
28147W        W41561   2.221  13.832  10.784  0.1819 -0.0702 -0.1499
28148W        W41562   7.443  18.140   0.250  0.1471 -0.0795  0.2450
28149W        W41563   8.064   4.621  11.607  0.0876  0.2028  0.0147
28150W        W41564   8.619  11.799  15.676 -0.1906  0.1960 -0.4468
28151W        W41565  10.395   2.618  11.033  0.0304  0.0310 -0.0767
28152W        W41566  15.967   9.643  16.069 -0.0324  0.4396  0.2755
28153W        W41567   0.680  14.535   1.010  0.1463 -0.2379 -0.1193
28154W        W41568   4.228  11.253   1.316 -0.0489  0.0058 -0.0677
28155W        W41569  16.704   1.748  13.884  0.1415 -0.2953  0.0522
28156W        W41570   7.066  17.760   0.377 -0.0611 -0.0199 -0.1778
28157W        W41571   2.742   2.462   6.156 -0.0453 -0.0148 -0.2305
28158W        W41572   4.039   9.789   2.248  0.0095  0.1503 -0.0372
28159W        W41573  10.779  18.055   0.831  0.3569  0.0328 -0.3919
28160W        W41574  12.289   7.624  14.564  0.0797  0.0670  0.2195
28161W        W41575  17.361   4.772   6.021 -0.1730 -0.2091 -0.0362
28162W        W41576  17.552   9.968  16.154  0.2281 -0.0331 -0.0200
28163W        W41577  10.789  11.867   3.771 -0.1122 -0.2373  0.3176
28164W        W41578   3.564  11.636   5.889  0.1758  0.1721 -0.1152
28165W        W41579   0.892   5.731  15.098 -0.0847 -0.0806  0.0776
28166W        W41580  15.315   2.347  11.207 -0.0649 -0.1674 -0.0230
28167W        W41581  17.425   7.414   2.736  0.2025  0.1443  0.0857
28168W        W41582   1.475   8.213   3.440  0.0935 -0.0073 -0.0564
28169W        W41583   7.876  11.927   2.620 -0.0207  0.1431  0.2506
28170W        W41584  14.823  11.591  11.374  0.4735  0.0815 -0.0046
28171W        W41585   4.075   8.738   3.479 -0.1295 -0.0476 -0.1590
28172W        W41586  13.793   3.992  13.167  0.1017  0.1688  0.2756
28173W        W41587   4.713   9.481   4.597 -0.1497  0.0419 -0.0247
28174W        W41588   2.893  16.229   1.411  0.1172 -0.2416  0.2653
28175W        W41589   3.794   5.606   4.687  0.0396  0.1327 -0.0665
28176W        W41590   9.785  13.101   3.118 -0.1521  0.5851 -0.2169
28177W        W41591   1.881   0.212   0.223 -0.0379 -0.0758  0.1463
28178W        W41592  17.386   7.432   1.538 -0.0993  0.1061 -0.0253
28179W        W41593   5.215   9.992   6.132  0.2068 -0.4718  0.0270
28180W        W41594   6.433   8.654   4.736  0.0615  0.2469 -0.1432
28181W        W41595  14.478  15.258   5.925 -0.0070 -0.1282  0.0185
28182W        W41596   4.266  17.699  11.960  0.1083  0.0056  0.2036
28183W        W41597   3.325   0.289   3.443 -0.2259  0.2130 -0.1598
28184W        W41598  11.232   4.400  10.724  0.2209  0.0512  0.0655
28185W        W41599  11.169  14.792  11.025  0.1843  0.1763  0.2223
28186W        W41600  10.104   6.495  11.105 -0.3177  0.1649  0.0719
28187W        W41601   5.271   2.449   0.775  0.0479  0.2541  0.0276
28188W        W41602   5.510   0.037   4.424  0.1984  0.2452 -0.0037
28189W        W41603   9.021   6.658   1.679  0.0725  0.0725 -0.0960
28190W        W41604  11.878   2.329   5.346 -0.0433 -0.2375 -0.2251
28191W        W41605   5.195   3.446   4.347  0.2169  0.0807 -0.3671
28192W        W41606   8.052  10.817   4.357  0.0195 -0.2000  0.0556
28193W        W41607  13.191   2.597  15.327  0.3692 -0.0934  0.2596
28194W        W41608  12.039  15.177   4.411  0.2180 -0.0170 -0.0508
28195W        W41609   6.931   4.359  11.571  0.2379  0.0724  0.0776
28196W        W41610  11.819   1.500  16.341  0.1354 -0.0724 -0.4005
28197W        W41611   2.532  16.322   2.558 -0.0674  0.2245  0.0064
28198W        W41612   3.996   9.745   2.766  0.2635 -0.0162  0.0086
28199W        W41613  15.683  13.997   3.739  0.0388  0.3482  0.5645
28200W        W41614   4.556   0.526   4.571  0.1659  0.0898 -0.1328
28201W        W41615   6.144  12.617  16.342 -0.2249 -0.1509 -0.0997
28202W        W41616  11.920   1.491  12.317 -0.0077  0.0478  0.1456
28203W        W41617   7.367   5.152   2.395  0.0447 -0.1747 -0.0617
28204W        W41618  16.925   8.970  13.971  0.0042  0.0812  0.0929
28205W        W41619  11.287   4.184   4.570 -0.4274 -0.0816  0.0578
28206W        W41620  17.887  18.112  14.230 -0.0657 -0.3762 -0.0082
28207W        W41621  13.993   6.248   4.800  0.1104 -0.2355  0.0931
28208W        W41622  15.117  16.787  12.425 -0.1003  0.3093 -0.0853
28209W        W41623  13.462  11.291  16.186  0.4030  0.1717  0.0263
28210W        W41624   4.526   0.471  15.954 -0.0794  0.0540  0.2271
28211W        W41625   3.090  10.627   2.398  0.2526  0.2346 -0.0478
28212W        W41626   3.669  15.496  13.398 -0.2719  0.2161 -0.0105
28213W        W41627  10.115   8.655  12.709  0.1993  0.0213 -0.0643
28214W        W41628  15.456   2.149  10.775 -0.0762  0.2454  0.0796
28215W        W41629  12.458  11.602   2.964 -0.0675  0.1741 -0.1849
28216W        W41630  16.118  10.957   3.494  0.1315 -0.2394 -0.0796
28217W        W41631   1.979  16.046  13.950  0.0420 -0.0160  0.1549
28218W        W41632   0.088   9.473   5.432 -0.2307 -0.0361  0.0385
28219W        W41633   1.254   8.436  15.922  0.0751  0.3794 -0.1370
28220W        W41634   3.124  17.974  13.574  0.0564 -0.1166  0.3173
28221W        W41635  11.384  17.895   1.974  0.0723 -0.0424  0.0648
28222W        W41636   4.118  15.552  12.099  0.3262  0.1939 -0.0071
28223W        W41637   3.677   5.251  15.663 -0.0656  0.1377  0.0050
28224W        W41638  12.589   4.332   1.508 -0.0148  0.1402 -0.1777
28225W        W41639   5.612   5.396   2.110  0.1157  0.0671  0.0817
28226W        W41640   6.161   1.062   5.128  0.3229 -0.3453  0.0705
28227W        W41641   5.493  15.177  13.804  0.1498  0.1164 -0.0046
28228W        W41642   4.407  12.190   4.757  0.0465  0.0360  0.2760
28229W        W41643  12.469  17.768   4.802 -0.0011 -0.1386  0.1542
28230W        W41644   2.758  14.015   2.695 -0.0328 -0.0781  0.1736
28231W        W41645   3.471   4.253  14.557 -0.0767  0.3503 -0.1942
28232W        W41646   5.073   2.590  11.018  0.2814 -0.2313 -0.0220
28233W        W41647   0.910   3.567   0.697 -0.0623  0.1323 -0.0305
28234W        W41648   6.924   0.002   3.475  0.3325  0.0624  0.2354
28235W        W41649  17.179   5.404   2.908 -0.3001 -0.1159  0.2039
28236W        W41650  12.924   3.514  10.106  0.1620 -0.0210  0.1461
28237W        W41651   3.261  14.505  10.197  0.2149 -0.3222 -0.1287
28238W        W41652   8.844   8.072  14.755 -0.1503 -0.0539  0.2429
28239W        W41653  13.914   7.147  12.115 -0.0976 -0.1534 -0.0670
28240W        W41654   7.023  12.694   5.852  0.2097 -0.0003  0.2359
28241W        W41655   7.070  15.691   5.141 -0.0039 -0.0337  0.0097
28242W        W41656   6.441   5.274   2.074 -0.1610 -0.0802  0.0542
28243W        W41657  14.615  16.935   3.157 -0.1447  0.2974  0.2935
28244W        W41658   0.539   6.083  12.657  0.0998 -0.2536 -0.2129
28245W        W41659   7.213  15.993  12.192 -0.1466 -0.0422  0.3200
28246W        W41660  17.564  10.484  15.921  0.1514  0.0754 -0.0911
28247W        W41661   8.524  15.456  12.874  0.1252  0.1202  0.2482
28248W        W41662   1.913   4.575  13.849 -0.1310 -0.2672 -0.1716
28249W        W41663  16.056   0.770  14.587  0.2173  0.2063  0.1361
28250W        W41664   0.855   9.008   1.449  0.1304 -0.1226  0.0957
28251W        W41665  16.110   0.665   3.295 -0.1426  0.0431 -0.0688
28252W        W41666  17.352  11.541   0.968 -0.0745  0.0906 -0.3564
28253W        W41667   7.317  11.213  14.955  0.2249 -0.0703  0.1592
28254W        W41668   7.893   1.671  14.351 -0.3382  0.0729  0.2757
28255W        W41669  11.029   0.798  11.809 -0.5054 -0.0425  0.0950
28256W        W41670  16.167  13.636   3.534 -0.2911 -0.0260  0.0630
28257W        W41671  15.744   7.653   6.106 -0.0348 -0.0027  0.2953
28258W        W41672  10.289  14.541   4.858 -0.2704 -0.0179  0.1601
28259W        W41673  16.153   3.141  10.511  0.0346  0.0973 -0.1258
28260W        W41674  13.553  15.969  15.097  0.2189 -0.3583  0.0835
28261W        W41675   7.430   7.683  12.986  0.1790  0.1138 -0.0212
28262W        W41676  15.599   4.686   4.558 -0.2355  0.3261 -0.0053
28263W        W41677   3.887  16.008  11.957 -0.1547  0.0438  0.0494
28264W        W41678   8.445   7.255  13.060  0.0600  0.0253  0.2277
28265W        W41679  11.233   3.291   0.844  0.4895 -0.2341 -0.1892
28266W        W41680  16.613  17.460  12.382 -0.0551 -0.0880  0.0634
28267W        W41681   9.435  15.111   1.029  0.0785 -0.0979 -0.2872
28268W        W41682  17.313  15.295   4.849 -0.2341 -0.1101 -0.0016
28269W        W41683   3.555   7.687  12.304  0.1595  0.1637 -0.2496
28270W        W41684   5.929   0.079  14.457 -0.2832 -0.0699 -0.0635
28271W        W41685  15.003  13.818   4.588 -0.0198  0.0973  0.2330
28272W        W41686   7.913  15.107   5.353  0.3199 -0.2008  0.1077
28273W        W41687  17.941   8.617  13.597 -0.0721 -0.3642  0.0163
28274W        W41688  14.954  13.971  14.721  0.0613 -0.0385 -0.0731
28275W        W41689  15.148  17.666   1.297 -0.1519 -0.0782  0.1505
28276W        W41690  13.289  13.028  14.607  0.1429  0.1413  0.0236
28277W        W41691   8.654   2.319   1.652  0.2989 -0.2105 -0.1479
28278W        W41692   0.779  13.497   4.451 -0.2438  0.4940  0.1638
28279W        W41693   2.584  10.941   3.047  0.1632  0.0506  0.2316
28280W        W41694  12.693  10.493  15.225  0.0685 -0.2881 -0.3301
28281W        W41695  15.775   3.881  14.000  0.0936 -0.0374  0.0626
28282W        W41696   1.085  17.269   4.076 -0.0573 -0.0198  0.1224
28283W        W41697   8.844  16.168   0.199 -0.0774  0.3148 -0.1520
28284W        W41698  12.803   2.666  10.335 -0.1650  0.0911 -0.1901
28285W        W41699   9.435   1.850   0.633 -0.1686 -0.0954  0.1058
28286W        W41700   2.763   6.218   6.231  0.0048 -0.0478 -0.2777
28287W        W41701   6.206   9.748  13.338  0.2766 -0.1430 -0.0405
28288W        W41702   9.424   6.675   5.299 -0.2363  0.0065 -0.2287
28289W        W41703   6.068  10.321   2.539 -0.0596 -0.1872  0.1520
28290W        W41704  13.570   3.616   4.653  0.3363  0.0476  0.1022
28291W        W41705  16.806  16.749   0.409 -0.2379 -0.0471 -0.0231
28292W        W41706   8.605  16.923  16.114  0.2885  0.0316  0.1851
28293W        W41707   1.920  14.625  14.365 -0.0672 -0.0407  0.1395
28294W        W41708   2.542  12.377  11.018  0.1087 -0.3112 -0.1559
28295W        W41709  16.833   9.300   5.650  0.0189  0.2555  0.1790
28296W        W41710   5.931   1.065  16.260  0.1955 -0.2071 -0.4353
28297W        W41711   7.579   3.380  11.951 -0.1349  0.2973  0.2212
28298W        W41712  14.875   3.188  13.338  0.0273 -0.2814  0.1876
28299W        W41713   7.694  16.769  12.383  0.0127  0.2967  0.1234
28300W        W41714  13.275   7.395   3.939 -0.1144  0.3013  0.0593
28301W        W41715  14.091   6.465  15.186 -0.0754  0.3083  0.0128
28302W        W41716  10.579   2.310   1.288 -0.2420  0.1859 -0.1327
28303W        W41717   5.161  18.168   5.630  0.0726 -0.1665  0.3349
28304W        W41718  10.244   3.346   4.156 -0.0209 -0.2528 -0.2104
28305W        W41719  15.394   3.407   4.437  0.0324  0.1739  0.1024
28306W        W41720   5.774   1.374  11.869 -0.2197 -0.2159  0.0302
28307W        W41721  14.550  15.525  12.545 -0.2399  0.0421 -0.0638
28308W        W41722   6.759   7.445   2.848 -0.1134  0.2174  0.5024
28309W        W41723   0.038   3.402   5.014  0.0099 -0.0039 -0.0844
28310W        W41724   5.178  12.428   4.509  0.1747 -0.1560 -0.1250
28311W        W41725   8.325   3.006  15.021 -0.1155 -0.0694 -0.2019
28312W        W41726   1.024  10.934  13.677  0.1692  0.0887  0.0812
28313W        W41727   1.282  16.833  13.816  0.2478  0.0710 -0.2120
28314W        W41728  13.780  13.639  12.678 -0.2372  0.0633 -0.2031
28315W        W41729   5.435  17.546  15.756 -0.1312  0.3981 -0.1277
28316W        W41730  14.016  16.492  12.005 -0.2023 -0.2373  0.0855
28317W        W41731  16.198  16.166  11.063 -0.3418 -0.0275 -0.2214
28318W        W41732   6.666  10.590   5.803  0.0638 -0.1162  0.0453
28319W        W41733   8.206  15.158  12.231 -0.2137 -0.0766  0.4715
28320W        W41734  12.533  18.135  13.234  0.1298  0.1478  0.1261
28321W        W41735   6.947  12.386  13.130 -0.1121  0.0092  0.2101
28322W        W41736   1.891   3.668   1.889 -0.0183 -0.0264  0.1392
28323W        W41737   1.683   8.656  11.099 -0.2212 -0.0744 -0.2911
28324W        W41738   7.188   1.111   5.364 -0.1727  0.1523 -0.0899
28325W        W41739  11.711  11.745   5.314 -0.0824 -0.1442 -0.0316
28326W        W41740  11.298   7.143   1.808 -0.0512 -0.3352 -0.0854
28327W        W41741  14.205  15.293   1.135 -0.2808 -0.0874  0.0481
28328W        W41742   0.016   8.171   3.282 -0.3037  0.1469 -0.0364
28329W        W41743  14.833   0.027  12.142 -0.1800  0.1038 -0.2462
28330W        W41744   2.774  15.759   3.307  0.3239 -0.1071 -0.0087
28331W        W41745  14.072  10.015  13.086 -0.1396  0.0200  0.0185
28332W        W41746   9.472  11.806   3.233  0.0541 -0.2580  0.1505
28333W        W41747   6.217   5.422   5.817 -0.2915 -0.1678  0.1269
28334W        W41748   0.773  16.037   3.037 -0.2315  0.0084 -0.0670
28335W        W41749   5.322   2.263  13.885 -0.1489 -0.0068 -0.0522
28336W        W41750   4.868   0.741   9.734 -0.0008  0.2044  0.1286
28337W        W41751   1.467   7.001  12.710  0.0279  0.0743  0.2302
28338W        W41752   7.550   5.349  16.257 -0.0436  0.0238  0.0794
28339W        W41753   2.120  15.672  15.588 -0.1025 -0.1858 -0.1744
28340W        W41754  13.494   9.941  15.305  0.3030  0.0600 -0.1253
28341W        W41755   6.603   8.344  10.570 -0.1420  0.2532 -0.4217
28342W        W41756   1.397   0.193  11.190  0.0125 -0.1795 -0.1446
28343W        W41757  15.548  17.887   4.226  0.3080 -0.0077  0.0627
28344W        W41758   8.274   0.094  14.342  0.1992 -0.3502 -0.2849
28345W        W41759   8.220  10.801  15.700  0.0002  0.1281  0.0287
28346W        W41760  15.533   2.138  11.608  0.1686  0.3497  0.1762
28347W        W41761   6.125   5.957   5.155  0.2243 -0.1225 -0.1867
28348W        W41762  10.061  14.542   5.266  0.1176 -0.1433  0.1359
28349W        W41763  14.674   1.104   1.082 -0.0165 -0.0189 -0.0958
28350W        W41764   2.584   1.355   2.760 -0.0470 -0.2279 -0.2126
28351W        W41765  16.691   7.006   3.985  0.2024  0.0300  0.2326
28352W        W41766   3.848  16.571   4.597  0.1730 -0.0405 -0.3333
28353W        W41767  11.445   7.659   5.252 -0.0920 -0.1663  0.3538
28354W        W41768  10.793   0.788   5.625  0.1191 -0.2015  0.1168
28355W        W41769  15.240   9.316   0.427 -0.2505 -0.0794 -0.0779
28356W        W41770   4.168   4.583  15.217  0.0104 -0.1342 -0.0519
28357W        W41771  17.054  17.858   4.260 -0.3304  0.0459 -0.1778
28358W        W41772  15.771   1.888   5.116  0.1040 -0.3325  0.0631
28359W        W41773   0.488   7.009  15.001 -0.5291  0.0522  0.2318
28360W        W41774  13.911   3.474  13.238 -0.1714  0.2344  0.4144
28361W        W41775   8.092   1.184  15.657  0.0903 -0.0743  0.0417
28362W        W41776  14.728   8.525   4.848  0.1938  0.3068 -0.2274
28363W        W41777   2.309  10.500  14.141  0.1698  0.1336 -0.3860
28364W        W41778  17.525   2.533   0.931 -0.1983  0.2216  0.0558
28365W        W41779   9.115  10.312  12.874 -0.2540  0.1004  0.2076
28366W        W41780   7.484  14.336   1.758  0.2911  0.0598  0.1367
28367W        W41781   5.928   3.756   4.714 -0.1183  0.0968  0.2890
28368W        W41782   4.937  18.155  12.250 -0.0455 -0.1498  0.0230
28369W        W41783  13.591   1.376   4.134 -0.0919  0.1305 -0.0901
28370W        W41784   5.251   3.386  11.675 -0.0153 -0.2067 -0.0175
28371W        W41785  14.240   2.363  10.227  0.1271  0.0741 -0.1789
28372W        W41786   9.252  12.278   3.237 -0.2623  0.0484  0.1080
28373W        W41787   5.265  14.282  11.590 -0.0351 -0.0439  0.0756
28374W        W41788   1.872   4.940   3.591  0.0279 -0.3166  0.0261
28375W        W41789  16.646  10.022   4.592 -0.2494  0.0213 -0.1055
28376W        W41790  17.705   3.192   4.401  0.2261 -0.2181  0.1476
28377W        W41791   6.829  13.821   0.638  0.1388  0.2034 -0.0942
28378W        W41792  12.921  13.162   3.277 -0.1054  0.1308  0.2062
28379W        W41793  15.888   1.872   5.896  0.0214 -0.2111 -0.1221
28380W        W41794  14.441   5.666   4.580  0.4821 -0.0581  0.1043
28381W        W41795  12.785  12.315   5.023  0.2656 -0.2223  0.0664
28382W        W41796  17.596  16.854   2.557 -0.0699  0.0538  0.1347
28383W        W41797  16.563   9.699  11.888  0.3535  0.0323  0.1981
28384W        W41798   3.676   5.765   5.159  0.0907 -0.0222 -0.0137
28385W        W41799   8.635   6.083   4.173 -0.2310  0.1523  0.0893
28386W        W41800  16.886  13.377   0.324 -0.0363 -0.0963 -0.1011
28387W        W41801  13.272   1.999   0.194 -0.3091  0.2880 -0.0362
28388W        W41802  14.029  15.578  15.705 -0.0348 -0.0211  0.1721
28389W        W41803   5.858  11.602  13.859 -0.2578  0.3281  0.0671
28390W        W41804  17.390   2.762   2.468  0.2604  0.0241 -0.1110
28391W        W41805  14.104   6.733   4.794 -0.2388  0.3050  0.1520
28392W        W41806  12.393  15.886  14.329  0.0878 -0.1003  0.2896
28393W        W41807   7.968   5.509   1.038 -0.3872 -0.0364  0.0328
28394W        W41808  15.057   2.129  15.659 -0.1453 -0.2136  0.0006
28395W        W41809   8.424  15.069   2.359  0.1399 -0.1602  0.1410
28396W        W41810   4.120  13.363   2.609 -0.0923  0.0891  0.1086
28397W        W41811  14.089   2.039  10.861 -0.3182 -0.1671  0.0924
28398W        W41812  12.525   6.735  15.123  0.0709  0.1860 -0.1985
28399W        W41813  13.438   4.735   4.587  0.1562  0.2252  0.0215
28400W        W41814   7.383   4.530  15.238 -0.1005  0.1125  0.1077
28401W        W41815   7.969  10.351   2.506  0.1971 -0.0173 -0.2938
28402W        W41816   5.557  18.019   0.869 -0.2838 -0.1689  0.1247
28403W        W41817   6.401   5.666   4.757  0.0341 -0.1301  0.1078
28404W        W41818  17.024   5.900  13.044  0.1373  0.0836 -0.0924
28405W        W41819   4.159   5.993   1.868  0.0415  0.0269 -0.0537
28406W        W41820   2.260  10.577  10.042  0.2539 -0.0915  0.0443
28407W        W41821  16.317   3.400   1.116  0.0714  0.1823  0.0479
28408W        W41822  12.251   7.703   2.033  0.0049 -0.0388 -0.0793
28409W        W41823   2.044   4.846   2.292  0.1798  0.2136 -0.0616
28410W        W41824  14.681  15.114  15.667 -0.2682  0.1885  0.3031
28411W        W41825   1.772  12.113  13.400  0.2242 -0.1068 -0.0527
28412W        W41826   0.807   9.949   5.281 -0.2582  0.2054 -0.2256
28413W        W41827   1.205   1.727   1.417 -0.2159  0.1895 -0.0938
28414W        W41828   8.807   5.279   3.091 -0.0550 -0.0780 -0.0320
28415W        W41829  11.953   6.052  15.453  0.0555 -0.2038  0.1287
28416W        W41830  17.616  17.743   5.567 -0.0362  0.1249 -0.0271
28417W        W41831  15.297   7.542  14.028  0.2360  0.2237 -0.0241
28418W        W41832  11.447   9.765  15.378  0.0500 -0.3152  0.0176
28419W        W41833  12.009   3.109   3.545 -0.0645  0.1204 -0.2453
28420W        W41834  16.205   1.720   9.596  0.3177  0.2377  0.0253
28421W        W41835  11.187  16.782  10.516  0.0592  0.1602  0.1482
28422W        W41836  14.790  12.514  15.193 -0.0364 -0.0311 -0.1623
28423W        W41837  10.800   3.014  14.892  0.0486 -0.1053 -0.1708
28424W        W41838  12.098   4.157  15.834  0.0356  0.2892 -0.1823
28425W        W41839  14.353  12.014   3.948 -0.2598 -0.1453  0.0024
28426W        W41840   9.806   6.551   4.184 -0.1817 -0.0494  0.1457
28427W        W41841   0.282   1.920  13.695 -0.1095 -0.0011 -0.0328
28428W        W41842   5.765  16.986   5.048 -0.1419  0.1763 -0.1647
28429W        W41843   9.526   9.537  11.975 -0.1787  0.0363 -0.2317
28430W        W41844   4.365   8.596  11.139  0.2789  0.1353 -0.0036
28431W        W41845   2.108   8.308  12.436 -0.2073 -0.0558  0.1502
28432W        W41846   9.879   7.266   1.309  0.1023 -0.0324 -0.0117
28433W        W41847  13.552   8.006   4.306 -0.1494 -0.1237  0.0482
28434W        W41848   9.854  14.965   3.225 -0.0493 -0.0536 -0.0472
28435W        W41849   3.654  15.322   2.006  0.0580  0.2876 -0.1178
28436W        W41850  17.598   5.529   5.299 -0.4001 -0.0519 -0.1548
28437W        W41851  13.976  12.549   6.557  0.0713  0.0133  0.1730
28438W        W41852   5.269  10.590   2.035  0.0311  0.1833  0.0117
28439W        W41853  12.297   2.555   5.334  0.1570  0.1642 -0.3064
28440W        W41854  12.085   2.029   4.450 -0.0335  0.3347 -0.1644
28441W        W41855  17.328   0.271  14.555  0.1028  0.0476  0.1485
28442W        W41856   8.796  13.968   5.144  0.0860  0.3884 -0.1210
28443W        W41857  10.591   0.333  11.783 -0.1985  0.2563  0.1855
28444W        W41858  12.358  12.590  13.756 -0.1275  0.0875 -0.0441
28445W        W41859   3.869   8.487   2.026 -0.2805 -0.2389  0.2646
28446W        W41860  16.936   5.316  16.047  0.2973  0.0458 -0.0689
28447W        W41861   7.939   5.094  11.068  0.1668 -0.2231 -0.2264
28448W        W41862   4.119  16.625   0.775  0.2623  0.1152 -0.2525
28449W        W41863  12.407  11.459   3.764  0.0113  0.0559 -0.1496
28450W        W41864  13.025   4.314   1.796  0.0170 -0.0782 -0.0698
28451W        W41865   2.675   6.072   1.657  0.0687 -0.3381  0.1998
28452W        W41866   7.402   1.809   2.023  0.0440 -0.0051  0.1025
28453W        W41867  17.089   5.911   0.254 -0.0932  0.2844 -0.0562
28454W        W41868  10.649   8.473  15.727 -0.0761 -0.0448 -0.3065
28455W        W41869  10.616   3.391  15.269  0.2277  0.1021  0.1637
28456W        W41870  15.231  11.054  11.982  0.0503 -0.0424  0.0484
28457W        W41871   7.310   1.925   1.029  0.1515 -0.0098 -0.2132
28458W        W41872   5.180   5.257  11.336 -0.3384 -0.2410  0.1252
28459W        W41873  16.040   5.601  10.756 -0.0952  0.1169 -0.0477
28460W        W41874   7.879  11.212   0.471 -0.1234  0.1032  0.0062
28461W        W41875   4.327  13.523  12.919  0.2564 -0.0729 -0.0230
28462W        W41876  12.031   9.457  13.138  0.0435  0.2857 -0.1830
28463W        W41877   6.012   1.492  12.788  0.0195 -0.1442 -0.3467
28464W        W41878  14.515  13.265   4.063 -0.2767  0.0036  0.3289
28465W        W41879  10.382   3.244  14.792  0.1719 -0.1896  0.0141
28466W        W41880   3.295  17.953   3.577 -0.2322 -0.0977 -0.1122
28467W        W41881   7.019   0.699  11.100 -0.1202  0.2192  0.2454
28468W        W41882  10.278   1.866   2.604  0.0098 -0.1804 -0.0448
28469W        W41883  11.151   6.342   3.967  0.2634  0.0460  0.2297
28470W        W41884   8.556   0.505  12.399  0.2689  0.0072  0.1315
28471W        W41885   9.803   7.305  13.694 -0.2127 -0.0083  0.0256
28472W        W41886  15.665  11.531  14.876  0.1670  0.1965 -0.2763
28473W        W41887  14.527   8.373   1.574  0.2283  0.0625  0.1260
28474W        W41888   4.628   9.740   1.968 -0.2614 -0.0621 -0.1921
28475W        W41889   9.186   6.397   4.968 -0.0215 -0.0336 -0.0767
28476W        W41890  12.291   8.687   0.848  0.2248  0.2663 -0.0724
28477W        W41891  14.443   6.257   4.536 -0.0684  0.0917 -0.0198
28478W        W41892   7.549  14.729  15.088  0.0211  0.1281 -0.2960
28479W        W41893   4.734   5.021   1.097  0.5278  0.1455  0.1326
28480W        W41894  17.787  14.592   5.168  0.2483  0.1615  0.0461
28481W        W41895   7.110  10.780   4.548 -0.3176 -0.0281 -0.1557
28482W        W41896   0.293  11.305  13.423  0.0119  0.1944 -0.1043
28483W        W41897  13.462   5.426   1.741 -0.2302  0.3330 -0.1737
28484W        W41898   7.912   3.803  15.412 -0.0464 -0.0812  0.2628
28485W        W41899   9.121   8.981   4.021  0.2573 -0.4979  0.0683
28486W        W41900  12.529   9.986  11.293 -0.2003  0.1424 -0.1107
28487W        W41901   9.676   2.599   1.616  0.0571  0.0886 -0.3332
28488W        W41902  14.310   8.686  12.845 -0.2359  0.1508 -0.0871
28489W        W41903   8.335  12.190   5.244 -0.0329  0.1057 -0.1983
28490W        W41904  13.176  13.939  14.347 -0.3037  0.0166  0.1398
28491W        W41905  15.999   3.663   4.211 -0.0188 -0.2419 -0.0673
28492W        W41906  16.310  12.703   1.379 -0.1284 -0.0840 -0.1814
28493W        W41907   5.924  16.375   2.728  0.0437 -0.2676 -0.1358
28494W        W41908  16.928  16.236   2.878 -0.2249 -0.2049  0.1646
28495W        W41909   1.323   9.219  13.770  0.1723  0.1613 -0.1228
28496W        W41910   2.264   5.311   3.468  0.2803 -0.1095  0.0522
28497W        W41911  10.014  15.331   5.330 -0.3510 -0.2569 -0.1467
28498W        W41912  18.139   9.100  15.762 -0.0741 -0.0326 -0.0212
28499W        W41913   9.657   6.376   1.715  0.0028 -0.2466 -0.1390
28500W        W41914  15.245  12.641   0.130 -0.0682  0.0673  0.0809
28501W        W41915   5.561   7.079  12.237  0.0529  0.0454 -0.2685
28502W        W41916  16.676  10.552   3.764 -0.0159 -0.0441 -0.3297
28503W        W41917   9.330   2.927   5.212  0.0739  0.0973 -0.0285
28504W        W41918  13.160   7.452  15.374  0.0415  0.1828 -0.0174
28505W        W41919  10.397  11.274   2.214  0.1028 -0.1106 -0.1150
28506W        W41920  16.870   2.342  12.204 -0.1985 -0.1124  0.0592
28507W        W41921   2.748  10.986   2.433 -0.3736 -0.2860 -0.1821
28508W        W41922   5.152   7.182  16.440  0.1862 -0.0754  0.3040
28509W        W41923  10.343  14.314  13.320  0.2011 -0.0985  0.0926
28510W        W41924   5.923   8.899   1.324  0.0476  0.0963 -0.1867
28511W        W41925  14.455  18.022   1.862  0.1805 -0.2528  0.1616
28512W        W41926   2.789  12.485   1.172 -0.4460  0.0383  0.0911
28513W        W41927  10.713   0.694  16.107 -0.2677 -0.0395 -0.0563
28514W        W41928   8.894   4.922   3.942  0.5780  0.1438 -0.1622
28515W        W41929  14.775   7.914  13.436  0.1289  0.0701  0.3633
28516W        W41930   1.952  16.755  10.107 -0.0323 -0.2254 -0.0351
28517W        W41931   0.739   4.077   3.404  0.1591  0.0167  0.4301
28518W        W41932  16.259  11.014  13.146 -0.1951  0.0777 -0.1811
28519W        W41933  14.187   5.061   4.226  0.0944 -0.1792 -0.3882
28520W        W41934  17.047  17.212  13.125  0.1163  0.3416 -0.0522
28521W        W41935   3.590  14.417   0.285  0.0245 -0.2085  0.1264
28522W        W41936  14.956  15.546  15.556 -0.1378 -0.0111 -0.0138
28523W        W41937   2.036  17.640  13.455  0.1803 -0.1325  0.2367
28524W        W41938   7.307   5.203   1.922  0.0910 -0.4486 -0.0301
28525W        W41939   1.804   3.771  15.354  0.1052 -0.0170  0.0466
28526W        W41940   2.554  10.473  10.925 -0.1285 -0.0518 -0.1790
28527W        W41941   4.277   8.830  14.550  0.0863  0.1715  0.3027
28528W        W41942  18.108   2.071  13.377 -0.0028 -0.0674  0.0482
28529W        W41943   4.713  17.780   3.987 -0.1001 -0.0573 -0.0785
28530W        W41944   1.935  17.551  15.231 -0.1439 -0.0075  0.4649
28531W        W41945  11.107   2.865   2.586  0.1234  0.4139 -0.1220
28532W        W41946  16.690  17.012   1.203 -0.1354  0.0615 -0.2555
28533W        W41947  11.241  17.875   0.959  0.0268 -0.1380  0.0052
28534W        W41948  13.987  15.703  12.401  0.0649  0.0465  0.0182
28535W        W41949   9.844   4.311  11.262  0.1649  0.2669 -0.0697
28536W        W41950  12.357   7.419   6.188 -0.0575  0.3038  0.4411
28537W        W41951  12.126   1.236   2.680  0.2683 -0.0780  0.1388
28538W        W41952  13.181  14.352  16.315 -0.3037 -0.0299  0.0995
28539W        W41953   8.328   5.673   2.434 -0.0108 -0.1899  0.1316
28540W        W41954   8.983   9.294  13.580 -0.0982  0.1614 -0.0414
28541W        W41955   1.520   9.970   6.090  0.1927  0.1973 -0.1821
28542W        W41956  18.060  14.990   0.606  0.0608 -0.3079 -0.3082
28543W        W41957  15.474   6.230   2.067 -0.2759  0.2048 -0.2194
28544W        W41958  11.523   1.901  14.834  0.0724 -0.0906  0.2484
28545W        W41959   9.674   4.313  12.354  0.0916 -0.0319 -0.1147
28546W        W41960  15.568   4.860  14.054  0.0141 -0.1614  0.0011
28547W        W41961   4.183  14.204  12.620 -0.3119  0.4015 -0.0143
28548W        W41962  10.979  14.796   3.219 -0.3637 -0.0992  0.3505
28549W        W41963   1.994   0.538   6.080 -0.0385  0.0805 -0.3011
28550W        W41964  12.383   9.715   0.081 -0.1541  0.1880 -0.1873
28551W        W41965  14.919   4.817   3.421  0.2411 -0.0718 -0.2649
28552W        W41966  17.053  13.663   1.318 -0.1314 -0.0898  0.0218
28553W        W41967   2.415  17.707  15.309  0.2629  0.1292  0.0415
28554W        W41968   1.078   1.242  14.471  0.1273 -0.2062  0.1920
28555W        W41969   1.110  12.155   2.799 -0.2373 -0.2323  0.2666
28556W        W41970  11.382  12.695   2.065 -0.0759  0.2815  0.0876
28557W        W41971  15.798  12.366   1.878  0.1413  0.0484  0.4621
28558W        W41972   9.133   2.686  14.001  0.3243 -0.0922 -0.0323
28559W        W41973  14.368   9.845   1.148 -0.1690 -0.3071  0.2869
28560W        W41974   6.450   2.300  16.348 -0.0858  0.2757  0.4814
28561W        W41975   7.415   6.165   1.097  0.1389 -0.3912 -0.1007
28562W        W41976  11.929   8.094  11.151  0.3368 -0.1225 -0.0909
28563W        W41977   6.120  16.091  15.154 -0.1207 -0.2871 -0.0155
28564W        W41978  13.241  16.606  14.479  0.1636  0.2637 -0.2151
28565W        W41979  11.579   7.245   4.983  0.0682  0.3366  0.2941
28566W        W41980   9.095   2.572  14.990 -0.0366 -0.1164 -0.2945
28567W        W41981   8.413   9.264  15.582 -0.1478 -0.1051 -0.0891
28568W        W41982  11.446   0.046  11.725  0.1845 -0.1425  0.2582
28569W        W41983   7.058   8.158   5.731 -0.4306  0.1507 -0.2708
28570W        W41984   1.248  17.663   3.088  0.0885  0.1457 -0.0812
28571W        W41985   5.650   7.627   2.040  0.2533  0.0213  0.0378
28572W        W41986  12.034  10.439   3.952  0.0531 -0.0385 -0.1040
28573W        W41987   1.820   0.116   4.258 -0.1767 -0.0091 -0.0495
28574W        W41988  18.034   6.596   5.032  0.3279 -0.0081  0.0850
28575W        W41989   9.794   5.147   1.215 -0.2962  0.1374  0.0405
28576W        W41990   5.841   0.246   1.743 -0.0676 -0.0416 -0.1975
28577W        W41991  15.464   0.287   2.877  0.2386  0.0706  0.2118
28578W        W41992   6.549  12.876   1.872 -0.1160 -0.1672  0.0916
28579W        W41993   2.819   7.563   5.005  0.1256 -0.4194 -0.1860
28580W        W41994   8.415  16.603   3.148  0.0420  0.1609  0.0232
28581W        W41995   0.258  13.469   4.340  0.0460  0.2676 -0.0911
28582W        W41996  12.012  12.312  13.350  0.4167 -0.2294  0.0809
28583W        W41997   6.617  12.799  16.189  0.1153  0.0139  0.0121
28584W        W41998  18.047  13.177   2.130 -0.1206 -0.4690  0.0402
28585W        W41999   5.778  17.295   2.178 -0.0855 -0.0885  0.2151
28586W        W42000   5.163   7.628   4.728  0.0698 -0.0680  0.1614
28587W        W42001   6.634  10.055   0.404 -0.0152 -0.2028 -0.0154
28588W        W42002  14.909  18.064  10.173  0.2184  0.1082 -0.1009
28589W        W42003   5.090  17.441  11.376 -0.2684 -0.2633 -0.3090
28590W        W42004  13.118  13.195  10.075 -0.0211  0.0717 -0.0114
28591W        W42005  11.023   5.059  12.707 -0.2226  0.3910  0.0803
28592W        W42006  13.738  14.934   4.134  0.0942 -0.1376  0.2636
28593W        W42007  15.569   2.276  12.102  0.2303 -0.1776 -0.1343
28594W        W42008  13.262  10.651   0.753 -0.1382 -0.2624  0.0320
28595W        W42009  14.669  14.693   2.242 -0.1363  0.2025  0.1008
28596W        W42010   7.757   6.609  15.953 -0.0423  0.2250  0.0231
28597W        W42011   8.236   8.157  16.478  0.1368 -0.2356  0.3511
28598W        W42012  17.193  16.575  16.216  0.0676  0.1060 -0.0564
28599W        W42013   9.693   9.851  13.375  0.1637  0.2568 -0.1482
28600W        W42014  13.335  17.384  14.058 -0.2329  0.3501 -0.1495
28601W        W42015   2.542   3.355  10.890 -0.0036  0.3705  0.2617
28602W        W42016  15.891   4.026  15.771  0.0700 -0.0293  0.1262
28603W        W42017  17.057  11.592   3.076  0.2572  0.0350 -0.1135
28604W        W42018  14.419  17.109  14.244 -0.0486  0.0181  0.2289
28605W        W42019  10.286   0.922   1.918  0.0471  0.1462  0.0255
28606W        W42020   2.162  15.161  13.496  0.1273  0.0373  0.1614
28607W        W42021  17.150   5.194   5.361  0.1197 -0.1378  0.0500
28608W        W42022  15.818  11.068   0.147 -0.1212  0.0333  0.1907
28609W        W42023   3.996  11.993  15.130  0.0774 -0.4756 -0.1657
28610W        W42024  10.345  10.986  11.614 -0.0995  0.0425 -0.2282
28611W        W42025  13.064   1.517   5.402 -0.2220  0.0158 -0.1220
28612W        W42026   0.592   0.488   2.446  0.1179  0.1063 -0.1623
28613W        W42027   7.934  14.230   3.957 -0.2708  0.2459  0.1852
28614W        W42028  14.361  13.592   5.307  0.1792  0.0540 -0.2493
28615W        W42029  14.307   9.403  15.739  0.3799  0.1500 -0.1282
28616W        W42030  14.080   9.636   2.152 -0.1811 -0.2501  0.1933
28617W        W42031   7.067   9.093  10.366  0.0816  0.3359 -0.1282
28618W        W42032   3.525   4.042  13.117 -0.0476 -0.2852  0.1519
28619W        W42033  16.485  15.849   2.110 -0.1115 -0.1985 -0.2138
28620W        W42034  14.761   1.420  11.064  0.0848 -0.2161  0.0274
28621W        W42035   5.511  10.268  12.875 -0.1128 -0.1456  0.1252
28622W        W42036   5.081  10.375  13.096 -0.2813 -0.2091 -0.0257
28623W        W42037   2.272   3.952  10.239  0.0230  0.1173 -0.0620
28624W        W42038   5.158   7.384  11.328  0.0674  0.2527 -0.4304
28625W        W42039   4.821   7.608   5.114 -0.0377 -0.1692  0.2961
28626W        W42040   8.579   7.658  15.444 -0.0057 -0.0192 -0.1453
28627W        W42041  16.099   8.053  14.889 -0.0926 -0.1351 -0.2734
28628W        W42042   1.215   2.837   1.448 -0.0157  0.0458 -0.1453
28629W        W42043   3.219   7.031   5.661 -0.0704 -0.0443 -0.2094
28630W        W42044  14.569   2.626  16.404 -0.1259 -0.2469  0.1625
28631W        W42045   2.514   8.734   4.385 -0.0013 -0.1048 -0.3481
28632W        W42046   2.607   0.153  13.316  0.1507  0.0499 -0.1328
28633W        W42047   0.770   0.049  14.477 -0.2455 -0.0024 -0.1807
28634W        W42048  11.798  17.319   3.092 -0.1330  0.0574  0.1007
28635W        W42049  17.802   3.260   1.679 -0.1365  0.2217  0.0164
28636W        W42050   6.937  11.884  12.740 -0.1492  0.0842  0.4095
28637W        W42051  14.740  15.941  14.173 -0.2706  0.0607  0.1498
28638W        W42052  11.980   3.154   0.593  0.0136 -0.0985 -0.0918
28639W        W42053   4.096  12.249  14.067  0.2789 -0.2103 -0.0335
28640W        W42054   2.947  16.369   5.579 -0.1413 -0.0938  0.1889
28641W        W42055  13.767   4.829  15.108  0.0557  0.0439  0.1959
28642W        W42056  16.802  12.411  13.852 -0.4103  0.2825  0.2035
28643W        W42057   3.588  15.170  10.456 -0.0381 -0.1757 -0.0068
28644W        W42058   3.851   2.731   3.206  0.2010 -0.0557  0.0491
28645W        W42059   1.129   0.734  14.413  0.0056 -0.1473  0.0696
28646W        W42060  13.425   7.797   2.777 -0.1275  0.1743 -0.0041
28647W        W42061  17.463   6.477  11.372  0.1174 -0.3479  0.0010
28648W        W42062   7.926   5.766  15.366  0.0304  0.0835  0.0566
28649W        W42063   4.269   2.569  15.461  0.1419  0.0782 -0.3103
28650W        W42064   5.110  12.451  14.189 -0.0214  0.0404 -0.0556
28651W        W42065   6.230  14.564   2.305  0.2123  0.1934 -0.0665
28652W        W42066  10.955  13.101  10.999 -0.1662 -0.0764 -0.0534
28653W        W42067  12.866   1.745  13.924  0.0888 -0.0677 -0.2397
28654W        W42068  13.981  14.776  15.933  0.1077  0.2341 -0.0460
28655W        W42069   2.173   9.841   3.156 -0.1531  0.1151  0.0119
28656W        W42070  11.987  14.335   0.656 -0.0126 -0.2494 -0.4206
28657W        W42071   0.121   1.664  13.138  0.1397 -0.1271  0.0023
28658W        W42072  12.437   3.320  13.444 -0.1004 -0.0473  0.1150
28659W        W42073   6.990   6.638  11.786  0.0999 -0.0381 -0.0354
28660W        W42074  15.262  14.055   0.549  0.0723 -0.0657 -0.0217
28661W        W42075  13.116  14.706   5.375  0.0629 -0.2867  0.1774
28662W        W42076  13.690   6.575  10.362 -0.1087 -0.1201  0.2432
28663W        W42077  13.583   9.013   5.047 -0.1520  0.0095  0.0119
28664W        W42078  11.077  12.214   4.784  0.0643 -0.1655 -0.0597
28665W        W42079   4.046  16.407  13.176  0.1795 -0.0262 -0.0096
28666W        W42080  15.299  18.102  15.541  0.2666  0.0278  0.2320
28667W        W42081   1.419   2.360   0.686  0.0722  0.0997 -0.0321
28668W        W42082   4.384   2.091  12.840 -0.0132 -0.0786  0.0482
28669W        W42083   2.490   3.349  13.738 -0.0747 -0.0851 -0.0695
28670W        W42084  16.350  12.691  13.624 -0.0500 -0.0000  0.0201
28671W        W42085   0.553  13.107   4.726  0.0462  0.2455  0.0429
28672W        W42086  17.629  13.622  12.457  0.3253  0.1295  0.2620
28673W        W42087   7.788   7.979  12.806  0.1952 -0.3431 -0.1659
28674W        W42088   1.589   9.255  11.923 -0.4646 -0.0268 -0.0218
28675W        W42089   4.664   4.836  14.430 -0.1602  0.0757 -0.3972
28676W        W42090   7.213   1.162  11.390  0.1545 -0.0675  0.0263
28677W        W42091   2.214  13.594   4.057  0.1373  0.0039 -0.5441
28678W        W42092  12.002   0.618  12.678 -0.2006  0.2606 -0.1433
28679W        W42093  15.085   5.844  14.328  0.0644  0.0789 -0.0088
28680W        W42094   5.170  17.750   5.271 -0.0218  0.1461 -0.0705
28681W        W42095  17.725   7.974   4.341  0.0217 -0.0209 -0.1054
28682W        W42096  10.911   7.648   3.120 -0.1775 -0.1606 -0.1508
28683W        W42097  12.013   4.867   0.657 -0.0026 -0.0370 -0.1562
28684W        W42098  15.647  18.004   4.783 -0.0684  0.1575 -0.6187
28685W        W42099   2.645  14.941   3.872 -0.1467  0.0549  0.0250
28686W        W42100  10.146   0.983  11.805 -0.1239 -0.1737  0.2190
28687W        W42101   2.130   6.367  15.914 -0.1300 -0.0432 -0.2173
28688W        W42102  16.141  14.792   1.331  0.0643  0.0347 -0.0779
28689W        W42103  18.208  13.035   5.579 -0.1296 -0.1168 -0.2155
28690W        W42104   1.540  11.711  11.503  0.2482  0.1285  0.0450
28691W        W42105  18.181   3.440  16.257  0.0746  0.0584 -0.1175
28692W        W42106  11.249   0.343   2.295  0.0488 -0.1285 -0.0853
28693W        W42107  15.160   7.285   4.064 -0.0319 -0.0225  0.0773
28694W        W42108  15.499   3.384   2.473  0.0949  0.1126 -0.0821
28695W        W42109  15.305   3.237  14.990 -0.0036 -0.2445 -0.0685
28696W        W42110  14.594   2.040  11.651  0.0807  0.3122 -0.2368
28697W        W42111   0.441   5.075  15.525 -0.1146  0.2426 -0.0192
28698W        W42112   6.476  11.005  15.464  0.0190  0.1485 -0.1603
28699W        W42113   2.076   4.486   1.517  0.1284  0.2569 -0.1897
28700W        W42114  13.440  17.974  11.863  0.0125  0.0222 -0.1551
28701W        W42115  11.167   9.250   3.003 -0.1989  0.0982 -0.0166
28702W        W42116   6.330  11.259   2.738  0.1449 -0.3379 -0.1768
28703W        W42117   4.804   4.071  16.473  0.1946  0.1382 -0.2077
28704W        W42118  14.430   9.550   2.920 -0.0546 -0.0065  0.0833
28705W        W42119   8.002  17.665   0.740  0.0044 -0.0713  0.1770
28706W        W42120   5.055  13.952   1.917  0.3786 -0.1021 -0.0163
28707W        W42121   5.996  17.073  12.440  0.1544 -0.0786 -0.2008
28708W        W42122  17.464  16.071   1.602 -0.1820  0.0978  0.1743
28709W        W42123   2.172  15.854   4.069  0.3069  0.2011  0.2049
28710W        W42124   9.116   6.416  15.322 -0.0672 -0.2491 -0.0353
28711W        W42125  14.707   5.308   4.947  0.1912  0.0683  0.0507
28712W        W42126   5.083  10.245  12.063 -0.0143 -0.2713 -0.2087
28713W        W42127  13.817   4.157   1.486 -0.1738  0.2235  0.1646
28714W        W42128   0.272   2.332   4.845  0.1316  0.0739  0.2420
28715W        W42129  16.939   3.105  15.687  0.1889 -0.1341 -0.4227
28716W        W42130   4.705   1.225   2.326  0.1513  0.1209  0.2039
28717W        W42131   7.996  17.007  15.355 -0.2865 -0.0862  0.4285
28718W        W42132  11.484   7.291   0.755 -0.5097 -0.2451  0.1407
28719W        W42133  15.506   4.653  13.095  0.0034 -0.1127  0.3564
28720W        W42134  11.579  13.665   0.419 -0.0511  0.0637 -0.1126
28721W        W42135  17.527  17.804   3.987  0.1987  0.0228 -0.0121
28722W        W42136  17.761   8.328  11.445 -0.0079  0.0698  0.3548
28723W        W42137   8.423  11.738  16.379  0.1584  0.1848 -0.0050
28724W        W42138   8.663  10.737   5.237 -0.0186  0.1839  0.0296
28725W        W42139   3.816   6.285  10.753  0.0949  0.1513  0.0289
28726W        W42140   6.909   0.936  12.499  0.2926  0.1080  0.3082
28727W        W42141   5.447   6.128  12.049  0.0229  0.0493 -0.0864
28728W        W42142  15.379  12.605   3.935  0.3445  0.0118  0.0583
28729W        W42143   3.355   0.704   0.595  0.1947  0.1160 -0.0861
28730W        W42144   2.503   7.184  15.677 -0.0629 -0.0323 -0.3503
28731W        W42145  16.283   8.805  12.462 -0.0779  0.1481 -0.0330
28732W        W42146   2.321   9.921  12.996  0.0524  0.1292 -0.0681
28733W        W42147  11.769   0.550  13.163 -0.2143  0.0525 -0.0348
28734W        W42148   7.289   7.119  16.251 -0.1557 -0.0581  0.1833
28735W        W42149  14.335   8.349   0.086  0.1401  0.0287 -0.1505
28736W        W42150  15.728   2.670   0.905 -0.0666 -0.0409  0.1285
28737W        W42151  17.084   9.750  12.864 -0.2500  0.0670 -0.2965
28738W        W42152  13.932   0.624  11.742  0.1536  0.1540  0.2823
28739W        W42153  13.729   9.985   2.318  0.6537 -0.1493  0.1966
28740W        W42154   2.098   9.400  12.087 -0.3605  0.0506  0.1086
28741W        W42155   0.610   3.240   5.159  0.0754  0.2429  0.0228
28742W        W42156   7.112   8.510  16.361  0.0495  0.1510  0.0821
28743W        W42157   7.490   8.766   0.165 -0.2938  0.2154  0.0448
28744W        W42158  12.048   7.842  15.887 -0.0277 -0.1208  0.2692
28745W        W42159  15.915   8.809   4.115  0.0146  0.3898 -0.0907
28746W        W42160   7.160  17.089  10.190 -0.0392 -0.1786 -0.0330
28747W        W42161  15.324   5.392   0.896 -0.1069  0.0660 -0.1234
28748W        W42162   4.777  17.418   1.242  0.1343 -0.1219 -0.2110
28749W        W42163  13.598   3.607   5.535 -0.1279 -0.2664  0.0804
28750W        W42164   4.778  11.418   3.594 -0.1317  0.1480 -0.0855
28751W        W42165   1.456   6.063  11.121 -0.4552  0.2045  0.2611
28752W        W42166  18.033   0.125   3.419 -0.1660 -0.2784 -0.0116
28753W        W42167   4.466   4.298   4.394  0.0208 -0.2542  0.0309
28754W        W42168  15.565   8.138  15.645 -0.0953  0.2011 -0.0728
28755W        W42169   8.704  13.593  10.533  0.3093  0.1831  0.0484
28756W        W42170   3.116   4.716  11.388 -0.1837  0.1301  0.1342
28757W        W42171   0.999  10.477   3.296  0.0369  0.1522  0.0258
28758W        W42172   2.341  11.317  11.237 -0.2923 -0.1108  0.0167
28759W        W42173  13.099   8.107  11.143  0.3888  0.1115  0.0685
28760W        W42174   2.629  16.469  10.848 -0.1712  0.2348 -0.0930
28761W        W42175   8.386   6.373   4.526 -0.0308  0.1980 -0.1567
28762W        W42176   2.867  12.113  15.805 -0.0237 -0.2851  0.2535
28763W        W42177   8.933   0.122   2.696  0.1382  0.1145  0.1247
28764W        W42178   2.129  16.728   4.940  0.0118  0.0587 -0.1302
28765W        W42179  16.577  10.917   5.974 -0.2605  0.3745 -0.3604
28766W        W42180  16.366   6.281   5.832  0.0506 -0.1496  0.1307
28767W        W42181  14.541  12.510   2.251  0.0813 -0.1770 -0.1293
28768W        W42182  17.181  18.138   5.419  0.0932  0.1791 -0.3432
28769W        W42183   3.048  16.062  10.209  0.0411 -0.1592 -0.0357
28770W        W42184  14.899  10.758  11.149  0.0571 -0.0021  0.0283
28771W        W42185   5.282  13.734   3.954 -0.0961 -0.1299 -0.1059
28772W        W42186   9.428  12.596   2.054  0.2205  0.0007 -0.2018
28773W        W42187  11.240   6.971   4.122 -0.0173  0.3260 -0.1113
28774W        W42188   6.188   9.264   4.652 -0.1940  0.0589  0.2014
28775W        W42189   4.371  14.708  12.382 -0.0260 -0.1074  0.1518
28776W        W42190  16.823  17.318   3.467 -0.0723  0.0327 -0.1725
28777W        W42191  15.901   2.884  13.362  0.0427 -0.0792 -0.1982
28778W        W42192   3.649  17.160   1.297  0.1198 -0.3614 -0.2600
28779W        W42193   5.156   6.354   6.031 -0.0048 -0.2594  0.0382
28780W        W42194   5.087   3.282   0.432  0.0004 -0.0191 -0.0886
28781W        W42195   4.302  12.926   0.125 -0.0579  0.0922  0.0818
28782W        W42196   8.243   7.921  13.493 -0.1046 -0.1843  0.1205
28783W        W42197   8.110   8.654   2.433 -0.0512 -0.1043 -0.1699
28784W        W42198  18.190  13.692  11.291  0.2909 -0.3324  0.2663
28785W        W42199  11.119  10.584   6.122 -0.0639 -0.0276  0.2015
28786W        W42200   2.704   6.194  13.394 -0.0383 -0.2713  0.0993
28787W        W42201   4.201   5.288  10.619 -0.0237  0.2620 -0.0461
28788W        W42202  17.309   1.476   6.624 -0.3491  0.1833 -0.0968
28789W        W42203  16.440  16.492  14.197 -0.0061  0.1395 -0.2430
28790W        W42204   9.279  16.124   5.870 -0.0741 -0.1218  0.2000
28791W        W42205   9.525  16.866  15.758  0.0828  0.0127  0.1786
28792W        W42206   4.034   9.254  12.900 -0.0138 -0.0384  0.2110
28793W        W42207   1.012   1.151   1.527  0.1763 -0.0702  0.2611
28794W        W42208   8.524  17.416  13.719 -0.3738  0.0897 -0.1891
28795W        W42209   6.341  17.059   3.401 -0.1617 -0.0359  0.1799
28796W        W42210   3.806  13.879   6.049  0.1956  0.3382  0.0830
28797W        W42211  15.262  11.803  12.695 -0.1767 -0.1168 -0.2808
28798W        W42212  11.990  10.755  12.278  0.0366 -0.1801  0.2543
28799W        W42213  10.398  11.656  14.510 -0.0621  0.2465  0.1995
28800W        W42214   2.605  15.422   2.961 -0.0416  0.0584  0.1551
28801W        W42215  18.080  18.142   4.893 -0.3336 -0.0517  0.2265
28802W        W42216   8.860  16.683   2.356  0.1911  0.0095  0.0497
28803W        W42217   1.907  13.836   4.483 -0.1410  0.0964  0.3189
28804W        W42218   0.712   9.500   4.022 -0.0188  0.0571  0.1195
28805W        W42219   1.547   5.023  12.729 -0.0243  0.1734  0.1325
28806W        W42220   8.824   7.241  16.471  0.0766  0.2499  0.0661
28807W        W42221  18.145  16.250  14.241 -0.0614  0.3945 -0.1347
28808W        W42222   6.441  15.606   3.754 -0.2139  0.3125 -0.1752
28809W        W42223   2.621   2.184   5.775  0.1690 -0.0470  0.0658
28810W        W42224   5.806   6.263   2.567 -0.0462 -0.1133 -0.0166
28811W        W42225  13.141   8.771   4.078  0.0915 -0.1175 -0.2624
28812W        W42226  17.578  10.376   2.875 -0.0701 -0.4975 -0.2548
28813W        W42227  11.014   6.858   4.680  0.1077 -0.1025  0.1621
28814W        W42228   9.304   4.096   1.768  0.0308 -0.0365  0.2203
28815W        W42229   8.139   0.329   4.354 -0.1044 -0.0616  0.2102
28816W        W42230   0.288   0.643   1.075  0.0962 -0.3044 -0.0935
28817W        W42231  14.214  15.475  10.693 -0.1493 -0.1138  0.0337
28818W        W42232  14.310   4.730   0.328  0.0081 -0.1187 -0.1527
28819W        W42233  16.665  11.407   5.948 -0.0492 -0.3646  0.1641
28820W        W42234   9.964  16.203   2.261 -0.0037  0.1769 -0.2451
28821W        W42235  14.860   8.235  14.113  0.1234  0.0141 -0.0575
28822W        W42236  17.170   1.327   5.812  0.1141 -0.0457  0.1962
28823W        W42237   0.176  14.550  15.275  0.2311 -0.0596 -0.1918
28824W        W42238   8.857  15.693  16.527  0.0052 -0.1321  0.0981
28825W        W42239  12.360   8.368  15.073 -0.0262  0.2837 -0.1905
28826W        W42240   8.694  11.077  11.259 -0.1120  0.0200 -0.3754
28827W        W42241   3.796   6.432   4.847 -0.2145  0.1985  0.0381
28828W        W42242   7.317   7.748  16.056 -0.0312 -0.0215  0.2327
28829W        W42243  16.953   8.607   3.357  0.1862 -0.0586  0.1576
28830W        W42244  16.832   3.939   1.862  0.1556  0.1987 -0.4257
28831W        W42245   3.609   9.998   3.078 -0.0860 -0.3107  0.1169
28832W        W42246  17.993  10.070   4.627 -0.2360  0.2553  0.2278
28833W        W42247  17.221  17.804   5.061 -0.0184  0.2492  0.0701
28834W        W42248   4.643   3.067  11.771 -0.0340  0.0691  0.3154
28835W        W42249   4.940   0.099  12.783  0.0726  0.0874  0.1522
28836W        W42250  12.524  16.196   1.514  0.1392  0.2522 -0.0706
28837W        W42251   4.096  10.164   5.652  0.1591 -0.1190  0.0532
28838W        W42252   4.355   1.904   2.400  0.0701 -0.1129  0.0123
28839W        W42253   5.224   5.146   2.625 -0.1277  0.2082 -0.3288
28840W        W42254   5.274  11.769   1.206 -0.3697 -0.0842  0.3076
28841W        W42255  12.038   5.872   3.816  0.3274  0.1378  0.0544
28842W        W42256   0.767   9.563   0.669  0.0551  0.1161  0.1491
28843W        W42257  15.536  10.469  13.219  0.1510 -0.1444  0.2098
28844W        W42258  15.931  13.063   2.604 -0.0711 -0.0935 -0.0330
28845W        W42259   0.450   5.546   3.254 -0.1777  0.1892  0.2131
28846W        W42260  15.794   7.363  15.393 -0.2351 -0.1614  0.0728
28847W        W42261   3.730  15.116   4.076 -0.0347  0.1899 -0.0166
28848W        W42262  14.598   6.224  10.835  0.0906 -0.1032  0.1300
28849W        W42263  14.419  11.743   0.962 -0.2731 -0.0805  0.1021
28850W        W42264  10.906   4.680   0.708  0.0696  0.1631 -0.2628
28851W        W42265   6.387   5.936   1.639 -0.0204  0.2879  0.2170
28852W        W42266  15.642   3.999   3.783 -0.1531 -0.0930  0.0548
28853W        W42267  15.914  12.715  12.093 -0.0051 -0.0526 -0.0322
28854W        W42268   0.225  13.617  12.939 -0.0691 -0.0856 -0.2205
28855W        W42269   9.972   6.643   2.121 -0.2348  0.4376 -0.0747
28856W        W42270   1.559   0.829  12.622 -0.0606  0.1757 -0.2487
28857W        W42271  10.153  16.490   3.756  0.0357  0.0502  0.0685
28858W        W42272  11.468   6.738  15.768  0.0735 -0.0258  0.3698
28859W        W42273  16.738  13.662  15.108  0.0038 -0.1037 -0.0492
28860W        W42274   7.575   7.562   1.612 -0.1482  0.5531 -0.1919
28861W        W42275  16.813   5.963   4.148 -0.2163  0.0977 -0.4469
28862W        W42276   7.871   4.673  15.492  0.2002 -0.2985 -0.0086
28863W        W42277  13.533  14.129   1.093  0.2235  0.0101  0.0448
28864W        W42278   7.550   6.117  15.349 -0.0100  0.3408 -0.0932
28865W        W42279   5.689  11.241   6.373 -0.0802 -0.1436  0.4218
28866W        W42280   8.542  13.458   2.913  0.0072  0.0911 -0.1505
28867W        W42281   6.094  15.828  12.636  0.1002 -0.2126 -0.0215
28868W        W42282   7.052   5.347  13.700  0.2175 -0.0110  0.2430
28869W        W42283  11.108  15.109  12.044 -0.0482  0.1440 -0.1679
28870W        W42284  13.901  13.104  16.401 -0.1662 -0.2137  0.0402
28871W        W42285   0.476   3.664   4.760 -0.0714 -0.0902 -0.1335
28872W        W42286   5.866   7.330   6.293  0.0504  0.1965  0.0568
28873W        W42287  16.380  17.141   2.144  0.0703  0.2171 -0.2666
28874W        W42288  11.839   6.070  11.745  0.1106 -0.2208 -0.0703
28875W        W42289  13.628   0.573  13.003  0.1474  0.1270  0.1860
28876W        W42290   0.031   5.760   1.664  0.1394  0.1545  0.0182
28877W        W42291  16.497   4.542   5.483 -0.2285  0.0163  0.0331
28878W        W42292   3.660  11.426  14.078  0.0377  0.1363  0.0984
28879W        W42293  14.547  13.647   4.596 -0.4387  0.0999  0.0985
28880W        W42294  16.386   4.678   1.586 -0.2313 -0.0693  0.3199
28881W        W42295  17.731   3.097  13.469  0.2798  0.0253 -0.1308
28882W        W42296   5.443   5.116   0.718  0.3263 -0.1401  0.2270
28883W        W42297   1.349   8.122   5.205  0.0860  0.1324 -0.1367
28884W        W42298   4.592   8.535  15.940 -0.1010  0.1505  0.2617
28885W        W42299  17.601   8.739  11.724 -0.0757  0.0676 -0.1997
28886W        W42300  15.382  13.848  15.966 -0.5341  0.0030  0.1360
28887W        W42301   5.427   0.005  14.806 -0.1239  0.0463 -0.1177
28888W        W42302   4.012  10.370   2.276  0.0823  0.1214  0.0344
28889W        W42303   9.884  15.425   0.828  0.0906  0.4533 -0.0219
28890W        W42304   9.363   4.383   1.361 -0.1590 -0.1134  0.2216
28891W        W42305   1.616   4.124  14.512  0.3991  0.2854 -0.1747
28892W        W42306   5.872  12.579   0.989 -0.1053 -0.0070 -0.2138
28893W        W42307  16.166  13.852   0.910 -0.3886 -0.0132 -0.0193
28894W        W42308   1.834  15.340   0.917 -0.1992 -0.0460 -0.0749
28895W        W42309   6.612   6.962  11.606  0.1543 -0.2862  0.0234
28896W        W42310   2.546  13.070  14.561 -0.1449 -0.1923  0.0964
28897W        W42311  13.287   6.641   4.586  0.0132  0.1529 -0.0446
28898W        W42312  17.222   7.834  12.108  0.0333 -0.1688 -0.1883
28899W        W42313  11.577   0.011  16.094  0.1035 -0.0017 -0.3412
28900W        W42314   3.453  15.616   5.299 -0.0079 -0.3484 -0.0369
28901W        W42315   8.549   9.257  12.110 -0.0910 -0.1850  0.1565
28902W        W42316   8.955   5.936  12.865  0.2646  0.0028 -0.1217
28903W        W42317   8.472  11.809  14.786 -0.0743 -0.2762  0.2106
28904W        W42318   1.173  12.927   2.101  0.0382  0.0811 -0.3055
28905W        W42319   3.829  17.024  12.524  0.1060 -0.1218 -0.0464
28906W        W42320  11.830   6.837   4.739  0.0251 -0.2053 -0.1835
28907W        W42321   7.544   6.978  12.472 -0.0624  0.0408 -0.3799
28908W        W42322   3.972  11.579   1.674  0.0520 -0.1971  0.0975
28909W        W42323   7.704  16.839  13.817  0.0979  0.0259  0.1145
28910W        W42324  16.410  15.949   5.639 -0.1622  0.2778  0.1052
28911W        W42325   2.842  17.755  12.467 -0.1168 -0.2823 -0.0750
28912W        W42326   0.043   6.674   5.615  0.1409 -0.0640  0.1393
28913W        W42327   1.560   2.222   0.190 -0.0332 -0.2597  0.1654
28914W        W42328  12.269  17.194   2.935 -0.1704  0.1196 -0.0369
28915W        W42329   1.809  12.736   2.562 -0.3520  0.0517 -0.1635
28916W        W42330   1.057  16.620   4.209 -0.0656 -0.1969 -0.1114
28917W        W42331  12.779  16.550   0.648 -0.2743 -0.3530  0.2191
28918W        W42332   3.031  16.938   2.153  0.1964 -0.1795  0.1857
28919W        W42333   7.952   9.432   6.013 -0.0026 -0.1211  0.2541
28920W        W42334   3.156  15.415  16.371 -0.1575  0.0950 -0.1198
28921W        W42335  16.235  12.170  14.845 -0.2445 -0.3011  0.3630
28922W        W42336  13.841  15.196   2.585  0.3592 -0.0168  0.0704
28923W        W42337   3.500   5.200  11.960 -0.2656 -0.1125  0.1129
28924W        W42338  10.587   8.691  16.505 -0.0605  0.1333 -0.1788
28925W        W42339  13.148   8.372   1.989  0.0808 -0.3763  0.1317
28926W        W42340   1.457   3.789  10.649 -0.4071 -0.0989 -0.0993
28927W        W42341   5.102   4.694  11.649  0.1795  0.2646 -0.2640
28928W        W42342   7.378  11.481  15.894  0.0579 -0.3129 -0.1810
28929W        W42343  11.829   5.840  11.128  0.2148  0.1156 -0.2536
28930W        W42344  14.217   7.129  13.789  0.0739 -0.2177  0.3900
28931W        W42345  10.380  10.621  15.128 -0.2266  0.1444  0.2112
28932W        W42346   2.947  14.333  11.108  0.0933  0.0464 -0.1446
28933W        W42347   2.371   1.992   5.308  0.1446  0.0313 -0.3936
28934W        W42348  11.726  14.689   0.386 -0.1509  0.1232  0.1427
28935W        W42349   3.764  14.985  15.524  0.2674 -0.0617  0.1924
28936W        W42350   0.302   8.440  12.989  0.2216  0.0222  0.0546
28937W        W42351   1.898  11.442  14.647  0.2979  0.0563  0.1535
28938W        W42352  11.362  16.560  13.814 -0.0060  0.0489  0.0422
28939W        W42353  14.616   2.806  13.558 -0.1167  0.0121  0.1651
28940W        W42354  14.912  15.422   1.776 -0.0494  0.3599  0.0181
28941W        W42355   2.967  14.859  14.541  0.0789  0.2109  0.3785
28942W        W42356   4.300   9.056   3.220 -0.0049  0.1027 -0.2402
28943W        W42357  17.210   0.089   1.572  0.2854 -0.2532 -0.1666
28944W        W42358   5.546   9.709   1.796 -0.3733  0.1804  0.2255
28945W        W42359  15.691  11.825  14.462 -0.2386 -0.3704  0.0601
28946W        W42360  14.613   1.263   4.583  0.1595 -0.0619  0.1138
28947W        W42361   1.310  12.599  10.520  0.3679 -0.1182 -0.1567
28948W        W42362   1.688   5.053  11.239 -0.2126  0.4690 -0.0121
28949W        W42363   5.636   3.560  12.639  0.1533  0.1425  0.1840
28950W        W42364   0.630   3.600   1.124 -0.0814  0.5097  0.1797
28951W        W42365   7.253   8.663  15.736  0.0250 -0.0861 -0.0427
28952W        W42366   9.969  10.991   1.937 -0.1408 -0.0635 -0.0247
28953W        W42367  11.171   4.437  15.940 -0.1603 -0.1128 -0.1264
28954W        W42368   8.486   2.496  11.855  0.0539 -0.0753 -0.1210
28955W        W42369   4.877  15.769  14.044 -0.1692  0.1527  0.1086
28956W        W42370  11.083  10.661   4.522  0.0891 -0.2236  0.1016
28957W        W42371   8.250   2.175   1.342  0.0509 -0.1360 -0.0758
28958W        W42372  13.949  16.585  10.037  0.0968 -0.5094 -0.0269
28959W        W42373   1.402   9.202   1.681 -0.0124  0.2998 -0.1509
28960W        W42374   3.004   1.614  13.417 -0.0194  0.0379 -0.2046
28961W        W42375  13.214   0.202  10.440  0.1556 -0.0778  0.0774
28962W        W42376   5.633  10.191   5.990  0.0032  0.3613 -0.1115
28963W        W42377   3.824   8.937   2.226 -0.0240  0.1197  0.3284
28964W        W42378   1.467   1.780  12.978  0.1980 -0.3530  0.0529
28965W        W42379  15.297   7.163  12.584  0.2154  0.1562  0.1375
28966W        W42380  12.277   7.727   5.319  0.2358 -0.0238  0.1675
28967W        W42381   6.808   9.847  14.962  0.1304  0.0550  0.1469
28968W        W42382   4.999  14.474  13.179  0.1701  0.3493 -0.0343
28969W        W42383   5.106  17.510   4.817 -0.0138  0.0061 -0.0476
28970W        W42384   2.403  16.865   2.715 -0.2966 -0.1841 -0.0989
28971W        W42385   4.281  11.638  14.783 -0.0703  0.0500  0.1084
28972W        W42386  17.988  17.178   2.325  0.1808 -0.1544 -0.1218
28973W        W42387  14.498   5.150  14.551 -0.0286  0.0016  0.1060
28974W        W42388   1.669   0.492  12.190 -0.2962 -0.2831  0.3652
28975W        W42389   8.924   4.907  12.098  0.4182 -0.0625  0.0214
28976W        W42390   9.965  14.151  10.717 -0.0322 -0.0114 -0.2807
28977W        W42391  16.921  16.013  11.604  0.0708  0.1901  0.2571
28978W        W42392   7.493   2.109  11.613  0.2890 -0.1058 -0.1508
28979W        W42393   4.691  11.609   4.029 -0.1211  0.0298  0.0648
28980W        W42394  11.928   8.752   1.792  0.1169 -0.3778 -0.3458
28981W        W42395  14.213  14.547  16.421  0.2336 -0.1686  0.0564
28982W        W42396  10.830  15.126   3.577  0.1631  0.0413 -0.0686
28983W        W42397  17.770   4.341  11.780  0.3067  0.0836 -0.0083
28984W        W42398   0.395  11.630   4.334  0.0853  0.2556 -0.1716
28985W        W42399  14.435   0.514   4.885  0.0974  0.2011 -0.0586
28986W        W42400   3.290  17.671  15.328 -0.0146 -0.1041  0.1168
28987W        W42401  13.358  12.220   1.625 -0.0291  0.2517  0.0510
28988W        W42402   0.765   9.467   3.374  0.2120  0.1605 -0.3095
28989W        W42403  17.688  16.875   3.547  0.0458  0.0317  0.1794
28990W        W42404   3.881  11.902  15.739 -0.1572 -0.0361  0.0014
28991W        W42405   1.978   8.794   2.276 -0.0099  0.0042  0.0195
28992W        W42406   7.520   3.625  10.582 -0.1726  0.0632  0.0776
28993W        W42407   2.066   4.444  13.353 -0.0230 -0.2245 -0.0802
28994W        W42408  18.203   1.321   4.626 -0.2912 -0.1236  0.0647
28995W        W42409   3.808  14.206  15.490  0.0291 -0.0343 -0.1057
28996W        W42410   8.796   4.121  11.101  0.1352 -0.2892  0.1578
28997W        W42411   2.178  16.487  14.565 -0.1491  0.1010 -0.0608
28998W        W42412  10.927  18.191  11.204 -0.0485  0.2356  0.0453
28999W        W42413  10.123   5.458   5.564 -0.1422  0.0098 -0.2213
29000W        W42414   3.712   8.387  13.572 -0.1157  0.0650 -0.0906
29001W        W42415   2.136  14.883  13.970  0.0390 -0.0503 -0.4245
29002W        W42416   5.125  14.842  15.069  0.0302  0.0830  0.1036
29003W        W42417  12.527  15.525  16.364  0.0621  0.2100 -0.0737
29004W        W42418  13.161  16.946   4.800  0.0858  0.1940 -0.0419
29005W        W42419   7.389  10.281   3.225  0.2000  0.2068  0.1475
29006W        W42420   9.611   5.597  12.094 -0.3488  0.0745  0.1064
29007W        W42421  16.147   1.256   3.648  0.2300  0.1408  0.4389
29008W        W42422   3.863   8.608   5.377 -0.2553 -0.0198 -0.0873
29009W        W42423   8.228  16.547  16.325  0.0770  0.3103 -0.1804
29010W        W42424   9.713  17.780  12.859 -0.1846 -0.0472  0.1775
29011W        W42425  10.510   9.547   4.296  0.1889  0.2490 -0.1763
29012W        W42426  11.830   7.186   1.067  0.1373 -0.0052 -0.2623
29013W        W42427   7.297   4.126  15.915  0.4215  0.0676 -0.2427
29014W        W42428  17.885   9.779  16.479 -0.1370  0.2936  0.0708
29015W        W42429  17.765   4.509   3.394 -0.4076 -0.1890  0.1912
29016W        W42430   1.376   2.538  15.547 -0.1105  0.0084 -0.1992
29017W        W42431  15.643  10.706  11.914 -0.0943 -0.1409 -0.2278
29018W        W42432   2.242  13.004   2.639 -0.2190 -0.1587  0.1066
29019W        W42433   5.366  11.730   5.929 -0.1208 -0.2681 -0.1733
29020W        W42434  12.398   8.528   5.537 -0.1829 -0.0883 -0.0913
29021W        W42435  12.154   5.700   0.215 -0.1292 -0.1153  0.1342
29022W        W42436  14.273  16.938  14.699  0.0265 -0.2303  0.2563
29023W        W42437  10.372  13.785  11.393 -0.3668 -0.0167  0.0309
29024W        W42438  12.111   8.725   2.273 -0.4280  0.2852  0.0527
29025W        W42439   6.330   3.944  15.626  0.1214 -0.0872 -0.0527
29026W        W42440  15.724  16.631  13.725  0.3708 -0.1491 -0.0437
29027W        W42441   6.661   2.281  10.587 -0.5165 -0.1657 -0.0405
29028W        W42442  11.009   2.094   2.811  0.1008  0.0975 -0.3315
29029W        W42443   7.119  15.693   1.611 -0.1420 -0.0906 -0.2728
29030W        W42444   3.626  16.379   0.795  0.5717  0.1328  0.0579
29031W        W42445   3.834   9.933  13.352 -0.2605 -0.2042  0.0068
29032W        W42446   2.535   7.764  14.125  0.2519  0.2907 -0.0065
29033W        W42447  11.761  18.066  15.568  0.5001  0.2889 -0.1625
29034W        W42448   5.002   8.564   4.479 -0.1923 -0.3592 -0.0459
29035W        W42449  10.604   5.552  13.583 -0.1012 -0.2696 -0.0459
29036W        W42450  14.640   5.015  10.839 -0.2230 -0.1388 -0.2480
29037W        W42451   4.901  17.468   3.484  0.1085 -0.0566 -0.0051
29038W        W42452  14.158   7.791   0.071 -0.2429 -0.4039  0.2147
29039W        W42453  15.188   7.635  12.730  0.1668 -0.0126  0.1183
29040W        W42454   1.838  13.401  16.120 -0.0395  0.2066 -0.2492
29041W        W42455  11.533   6.071   1.343 -0.2112  0.1799  0.2546
29042W        W42456  13.973  17.860  16.164  0.1559 -0.3264  0.2568
29043W        W42457   3.731  14.076   3.915 -0.3162 -0.0274 -0.3313
29044W        W42458  12.480  14.341   1.146 -0.1149 -0.1038  0.1464
29045W        W42459  14.442  14.209  12.148  0.0065 -0.1273  0.0167
29046W        W42460  17.703   7.845   1.382 -0.0621 -0.0369  0.0921
29047W        W42461  14.508   3.422  12.236  0.0592  0.0645  0.0957
29048W        W42462  13.776  16.883  12.266  0.1192  0.0907  0.0696
29049W        W42463  14.871   0.704   3.938 -0.2021  0.1834  0.1578
29050W        W42464   4.405  14.943   0.866  0.0827  0.3096 -0.0962
29051W        W42465  16.627  17.507  13.374  0.3126 -0.2602  0.4145
29052W        W42466   6.976   2.595   1.547  0.2182 -0.0478 -0.0012
29053W        W42467  17.684   0.772   1.377  0.1505  0.0040  0.2088
29054W        W42468   2.675   5.315   6.306 -0.0289 -0.0425  0.0912
29055W        W42469  14.160   4.772   3.024  0.0403 -0.0600  0.3059
29056W        W42470   6.874  16.369   2.352  0.1317  0.0800 -0.2084
29057W        W42471   7.037  13.847  15.588 -0.0598  0.0318  0.5115
29058W        W42472  15.116   2.685   3.346  0.1537 -0.0557 -0.0932
29059W        W42473   6.611   9.967   5.051 -0.0055 -0.0917  0.1745
29060W        W42474   3.838   3.383  13.445 -0.0867 -0.0445  0.1521
29061W        W42475   8.333  16.425  14.636 -0.0746 -0.0076 -0.1827
29062W        W42476   7.918  15.090   2.511  0.1755  0.1314  0.2092
29063W        W42477   3.912  17.780   0.128 -0.1342  0.0320 -0.1277
29064W        W42478  17.399   1.413   0.699  0.0768 -0.0364  0.0372
29065W        W42479  12.717   1.710  12.274  0.0389 -0.0723  0.2750
29066W        W42480   1.016   9.865   0.098  0.1821  0.1336  0.1826
29067W        W42481   0.274   9.767   0.608  0.0281 -0.1109 -0.2965
29068W        W42482  10.805   3.643  13.798 -0.0790 -0.0686  0.0539
29069W        W42483  11.842  17.690   3.678  0.2431 -0.1319 -0.1768
29070W        W42484  16.247  10.512   3.257 -0.1301  0.0567 -0.0375
29071W        W42485  18.096   2.752  11.287 -0.1235  0.0332 -0.2301
29072W        W42486  15.145  16.403   2.268  0.1640 -0.1519  0.0033
29073W        W42487  14.953   6.408   2.092  0.1589  0.1840  0.1871
29074W        W42488  16.307  16.157  11.939  0.1427 -0.0239  0.1378
29075W        W42489   9.229   6.909   4.676  0.0175 -0.1854 -0.1950
29076W        W42490   3.652   6.497  14.968  0.4233  0.1517  0.0265
29077W        W42491  16.391   9.899   2.019  0.1679 -0.0474  0.0715
29078W        W42492  12.923   6.923  13.551  0.1654  0.1560  0.0407
29079W        W42493  14.576  11.492   3.060  0.0650  0.0145 -0.0451
29080W        W42494  10.248   4.212   2.579 -0.0204  0.0492  0.1658
29081W        W42495   6.126  15.827   4.074  0.0901 -0.3473 -0.0334
29082W        W42496  16.236   1.881   5.343  0.1398  0.0991  0.1195
29083W        W42497   0.936   3.591   2.518  0.0994 -0.0349 -0.0881
29084W        W42498   0.850   1.005   3.559  0.0680 -0.2578  0.0742
29085W        W42499  10.503   3.163  15.710 -0.3457  0.1776  0.0576
29086W        W42500  13.500  10.095  14.807 -0.3355 -0.3071  0.1528
29087W        W42501   3.600   1.086   4.664  0.1661 -0.1423 -0.0644
29088W        W42502   1.614   7.061   2.876 -0.0556 -0.2726 -0.0907
29089W        W42503   8.489   6.692  14.067 -0.0095 -0.0594  0.1163
29090W        W42504   5.513  15.226  14.312 -0.1148 -0.1482  0.1268
29091W        W42505   4.984  17.277   3.035  0.0308 -0.0632  0.0610
29092W        W42506   5.170   9.719   4.570  0.0832  0.0529  0.2123
29093W        W42507  10.874   4.895   5.532  0.0266  0.1034  0.0123
29094W        W42508  10.133   6.465  12.635  0.0422  0.0220  0.2338
29095W        W42509  11.172   8.053  12.367 -0.3191 -0.1086 -0.3194
29096W        W42510   7.766   9.939  12.558  0.2617 -0.2374 -0.4784
29097W        W42511   2.284   1.719   1.299 -0.2065 -0.0568 -0.3156
29098W        W42512  12.105   0.099   4.248 -0.1378 -0.1953 -0.1196
29099W        W42513   5.729  14.684   5.047 -0.1362  0.2215  0.4053
29100W        W42514  14.758  12.531  13.729 -0.2155  0.1512  0.0790
29101W        W42515  13.228   7.478   0.553  0.0258  0.0531 -0.1452
29102W        W42516  17.239  13.425   0.633  0.1690 -0.1790 -0.0419
29103W        W42517  11.012   2.524  10.511 -0.1855 -0.0853  0.0090
29104W        W42518   1.654   5.308   5.865 -0.1488 -0.0183 -0.0080
29105W        W42519   6.743  10.771  11.391 -0.1406 -0.0027 -0.0781
29106W        W42520  10.769   5.062  16.373 -0.1536  0.3031  0.2276
29107W        W42521   9.742   9.227   5.333  0.0058  0.0805 -0.0567
29108W        W42522   5.689   4.683  10.491  0.0026 -0.0745  0.1047
29109W        W42523   7.599  15.571   5.098  0.2113 -0.2940 -0.2840
29110W        W42524   7.667  14.110  15.644 -0.1242 -0.1657 -0.1836
29111W        W42525   5.287   0.424  13.790  0.1023 -0.1596  0.3911
29112W        W42526   0.555   3.955  10.979  0.1614 -0.0362  0.3386
29113W        W42527  11.239  15.035   2.346 -0.2406  0.0161  0.0490
29114W        W42528  16.671   4.174  14.468  0.0102 -0.2582 -0.3797
29115W        W42529   6.083   4.799  14.899 -0.0293 -0.0168  0.1404
29116W        W42530   1.469  10.575  15.136  0.2056  0.0586 -0.3469
29117W        W42531   8.758   5.777  11.920 -0.1544 -0.2402  0.1050
29118W        W42532  11.145   6.684   1.584 -0.1218 -0.1938 -0.0012
29119W        W42533   0.034  17.978   0.418  0.1285 -0.1566 -0.0954
29120W        W42534  15.537   3.173   5.491  0.3591  0.0665 -0.0997
29121W        W42535   7.318   1.139  10.066 -0.0172  0.0323 -0.0714
29122W        W42536   3.693   3.759  14.505 -0.2482 -0.0512 -0.0056
29123W        W42537  14.705   8.918   2.501  0.3609 -0.0589 -0.0592
29124W        W42538   7.282   7.480  14.426  0.1604 -0.0308 -0.1821
29125W        W42539   6.998  12.828  15.492  0.1848 -0.2319  0.0173
29126W        W42540  16.796  11.899   2.351 -0.0186 -0.2946 -0.3758
29127W        W42541   9.083  15.331   4.591  0.0883  0.0750 -0.1155
29128W        W42542  14.394  15.862  13.741 -0.3089 -0.1183 -0.2875
29129W        W42543   4.761  13.205   0.354 -0.0882 -0.1052 -0.0144
29130W        W42544   4.226   0.135  16.112  0.1307 -0.0546 -0.0475
29131W        W42545   2.242   9.057   1.921 -0.1530 -0.1338 -0.0175
29132W        W42546  11.730  10.784   5.407  0.3665 -0.0149  0.0753
29133W        W42547  13.376   5.758   4.942 -0.2748 -0.4207  0.0426
29134W        W42548  14.771  16.932   1.738 -0.1672 -0.3976 -0.1778
29135W        W42549  14.702  15.383  10.790  0.1470  0.0608  0.0225
29136W        W42550   8.408  15.052  11.414  0.2687 -0.0890 -0.3144
29137W        W42551   8.501  14.303  15.280  0.1164  0.0345  0.3167
29138W        W42552   1.134   4.974  13.977  0.1183  0.2106 -0.1273
29139W        W42553  13.008  16.199   9.832  0.1109 -0.1350  0.0250
29140W        W42554   1.052   8.477   2.820  0.0223 -0.0092 -0.0654
29141W        W42555   5.693  13.981   3.831  0.0323  0.0748 -0.1002
29142W        W42556  16.963   7.099   0.233 -0.1190 -0.0368 -0.1259
29143W        W42557   8.503   6.829   1.782  0.2282  0.0503 -0.3064
29144W        W42558   5.749  17.732  16.235 -0.2025  0.0219 -0.1938
29145W        W42559  11.280  11.247   1.490 -0.0442 -0.0734 -0.2641
29146W        W42560  14.805   3.931   3.506  0.1480 -0.0372  0.1199
29147W        W42561   6.468   8.687   3.530  0.0270 -0.1161  0.1840
29148W        W42562   6.192   5.365  15.642  0.1539  0.1201 -0.2491
29149W        W42563   1.923   8.747   0.908 -0.1376 -0.1367 -0.3357
29150W        W42564  17.488   1.593  11.263 -0.3884 -0.0071  0.1350
29151W        W42565   2.085   5.609   4.282 -0.0251 -0.2451  0.1390
29152W        W42566   8.699  15.675  10.783  0.0857  0.0603  0.0039
29153W        W42567  15.341   7.490   2.831  0.1979 -0.0895  0.2983
29154W        W42568   6.354   6.396  12.082  0.0117 -0.1445 -0.1864
29155W        W42569   6.517  16.135   2.919 -0.1963 -0.2549 -0.2327
29156W        W42570  11.217  11.154   2.766 -0.0286 -0.0070  0.2159
29157W        W42571   8.251   6.089  10.888 -0.2984  0.1649 -0.2155
29158W        W42572  11.243  14.879   3.874 -0.0557  0.0068 -0.2046
29159W        W42573  11.366   4.972   0.732  0.0737  0.1687 -0.2630
29160W        W42574   6.316   2.283  14.565 -0.1160 -0.1325 -0.2901
29161W        W42575   1.394   4.650  15.181  0.1747 -0.0572 -0.1349
29162W        W42576   9.936  11.301  13.509  0.0568  0.1371  0.1317
29163W        W42577   5.134   2.893  11.840  0.1629 -0.0386 -0.1411
29164W        W42578  11.949   9.479   3.001 -0.1864 -0.0911  0.2623
29165W        W42579   4.458   1.663   5.565  0.2370  0.1044  0.2429
29166W        W42580   4.822   5.384   4.659  0.0844  0.0278  0.0786
29167W        W42581   1.449  10.479  10.785  0.0833  0.2465 -0.1474
29168W        W42582   3.450   7.536  12.849 -0.0534 -0.0741 -0.1178
29169W        W42583   7.355   4.066  13.121  0.3553  0.1920 -0.3357
29170W        W42584  14.704  16.364   6.079  0.0615  0.0012  0.0871
29171W        W42585   9.817   0.513  15.619 -0.1602  0.2103  0.2073
29172W        W42586  17.842   5.971   0.961 -0.2146 -0.2026 -0.2185
29173W        W42587  17.737  17.024   6.178  0.0924 -0.1045 -0.1783
29174W        W42588  11.017   4.459   2.110  0.2705  0.0805 -0.4372
29175W        W42589   8.770   2.893  11.784  0.0818  0.0031 -0.2129
29176W        W42590   4.853  12.737   4.720 -0.0299 -0.0450 -0.0570
29177W        W42591   8.957  12.732   2.127  0.2221  0.0386 -0.2703
29178W        W42592  12.137  15.440   3.053  0.0750 -0.2790 -0.0446
29179W        W42593   2.756  13.226   3.431  0.1992 -0.1580  0.2723
29180W        W42594  13.761  14.081   5.857 -0.0046 -0.1847  0.2477
29181W        W42595   3.744  10.921  14.848 -0.3548 -0.0785 -0.0192
29182W        W42596  14.422  13.219  12.352  0.1701 -0.0336 -0.0091
29183W        W42597   7.089  11.415  12.915  0.2809 -0.0565 -0.2274
29184W        W42598   1.922   5.398   3.030 -0.1148 -0.0716 -0.1062
29185W        W42599  18.212  11.032   3.094 -0.1413 -0.2313 -0.1132
29186W        W42600   7.107   4.159  14.976 -0.4362  0.0945 -0.1030
29187W        W42601  13.391   8.688   2.942  0.1410  0.1262 -0.1622
29188W        W42602   1.869   7.293   6.067 -0.0261  0.0365 -0.1708
29189W        W42603  15.044  17.716   4.312  0.2828  0.2629  0.0605
29190W        W42604   2.188  17.637   5.196  0.1387 -0.1035  0.1964
29191W        W42605   2.942   5.417   4.476  0.0253 -0.1665  0.0624
29192W        W42606   4.289  11.595  15.890  0.2646 -0.0021  0.2770
29193W        W42607  10.316  10.029  12.167 -0.1868  0.0399 -0.1897
29194W        W42608  12.475   6.060   5.331  0.0888  0.3406  0.1876
29195W        W42609  10.579   5.327  14.975 -0.3974 -0.1640 -0.2096
29196W        W42610   5.727   7.533   4.648 -0.2184  0.0406  0.3424
29197W        W42611  11.117   4.449   5.311  0.2051  0.2021  0.1609
29198W        W42612  18.141  12.654  13.261  0.0958 -0.1720  0.1634
29199W        W42613  10.701   0.965   4.796 -0.1083  0.2288  0.0500
29200W        W42614  11.771   8.604   0.028 -0.0827 -0.0360 -0.1241
29201W        W42615   8.975  13.816   6.503 -0.1673  0.1636  0.1628
29202W        W42616   1.086   4.405  16.044 -0.1751 -0.0104  0.3664
29203W        W42617   3.657  13.757  15.225 -0.1391 -0.1811 -0.0529
29204W        W42618  13.229   2.625  13.738  0.0255 -0.0344  0.2888
29205W        W42619  14.899  14.596  15.482  0.0242 -0.1907  0.0849
29206W        W42620  11.641   2.128  12.062  0.0254 -0.0806  0.0463
29207W        W42621  16.082   4.000  11.976 -0.2057 -0.0592 -0.1826
29208W        W42622   7.661   8.573   4.837  0.0506  0.2323 -0.1144
29209W        W42623  12.512   6.290  10.632  0.1520 -0.0811 -0.0930
29210W        W42624  14.547  18.018  14.471  0.1336 -0.1609 -0.0924
29211W        W42625   7.431   8.333  11.930  0.0582  0.0849 -0.4177
29212W        W42626  12.116  16.252  11.941 -0.0133 -0.2526 -0.2972
29213W        W42627   9.712  17.786  11.031  0.2437  0.1965  0.1087
29214W        W42628   2.628  11.018   1.971 -0.0577 -0.0129  0.0154
29215W        W42629   7.332  13.836  16.399  0.2069 -0.0214  0.0598
29216W        W42630   1.836   2.293  16.232 -0.1375 -0.2151  0.0866
29217W        W42631   6.562   9.804   3.736  0.1131  0.0718 -0.0902
29218W        W42632  10.397  16.701  16.190 -0.0015 -0.2077 -0.2660
29219W        W42633   2.740  16.861   3.748  0.0374  0.2296  0.0762
29220W        W42634   5.184  16.736  12.015  0.1738  0.3393  0.0418
29221W        W42635   2.391  11.936   1.972 -0.0423 -0.1772  0.0110
29222W        W42636  11.209  13.864  11.447  0.2640  0.3110  0.2808
29223W        W42637   1.132  13.432  15.462  0.0205 -0.0951  0.2795
29224W        W42638  12.893  15.800  12.206  0.1411  0.1557 -0.0256
29225W        W42639  15.819   1.595  16.240 -0.0589  0.0798 -0.1813
29226W        W42640   8.876   5.193   4.428 -0.2557 -0.0222 -0.0331
29227W        W42641  17.549   0.855   2.494 -0.0245  0.0595 -0.2653
29228W        W42642  17.970   2.031   3.073  0.0966 -0.1208 -0.0046
29229W        W42643  11.332  12.833  14.847  0.0631  0.2007 -0.1406
29230W        W42644  17.471   6.137   1.594 -0.1160 -0.0560 -0.1361
29231W        W42645   8.261  11.833  13.681  0.3307  0.2173  0.1005
29232W        W42646   4.350  17.813  10.956 -0.1732  0.0145 -0.0770
29233W        W42647   1.399  15.852  10.188  0.2478  0.1748 -0.0090
29234W        W42648  12.526   2.736  12.194  0.0476  0.0227  0.0381
29235W        W42649   0.067  10.160  11.907 -0.3178  0.2515  0.1825
29236W        W42650   9.844  15.092  12.412 -0.2018 -0.4325 -0.0483
29237W        W42651  12.337   0.527   0.960  0.1403  0.0972 -0.3872
29238W        W42652  11.542  10.577   3.606  0.0189  0.1358  0.1531
29239W        W42653   9.203  11.413   0.310  0.1165  0.2647  0.0721
29240W        W42654   8.110   2.574  13.273  0.2188 -0.1695 -0.0616
29241W        W42655   8.240   5.656  15.760 -0.0671 -0.3319  0.1680
29242W        W42656  15.935   1.341   0.575 -0.0474  0.2438 -0.2371
29243W        W42657   9.736   5.136   2.059 -0.1701 -0.0998  0.3910
29244W        W42658   0.049   4.247  14.463  0.2063  0.0726  0.1458
29245W        W42659   0.592   0.697  15.849 -0.2719 -0.0735 -0.0023
29246W        W42660   8.568   0.606   9.515  0.0040  0.0092  0.3838
29247W        W42661  10.849   9.230   4.331 -0.0370  0.0827  0.0910
29248W        W42662   0.490  15.067   1.786  0.1514  0.1758  0.2143
29249W        W42663  17.671  14.919  10.821  0.3418  0.1179  0.0461
29250W        W42664   4.775  13.546  12.033  0.0901  0.1630 -0.1506
29251W        W42665   6.972  14.346  10.175 -0.0342  0.2099  0.0299
29252W        W42666  11.649   1.429  10.608 -0.1275 -0.2688 -0.1307
29253W        W42667   4.599  10.959  14.254 -0.2505  0.0328 -0.0205
29254W        W42668   7.324   5.987  14.929  0.0571  0.1962 -0.1002
29255W        W42669  12.851  11.001   1.159 -0.2713  0.0205 -0.0680
29256W        W42670  14.249   0.106   4.387  0.1125 -0.1452  0.0455
29257W        W42671   2.028   2.615   4.268  0.0890 -0.0268 -0.1304
29258W        W42672  18.195   4.061   4.021 -0.1487 -0.1031 -0.2272
29259W        W42673   3.758  12.445   5.448 -0.1921 -0.0086  0.1260
29260W        W42674   7.329   2.688  12.825  0.3364 -0.0629  0.3425
29261W        W42675   8.859   7.990   0.543  0.0308 -0.1321 -0.2204
29262W        W42676  14.197   2.364   2.000  0.1613 -0.0052 -0.3409
29263W        W42677  15.778  12.210  10.742  0.1333  0.0407 -0.2123
29264W        W42678   2.740   3.423   1.138  0.0295 -0.1737 -0.0780
29265W        W42679  17.513   1.194   2.852  0.0726  0.0900 -0.0885
29266W        W42680  17.472   7.667   5.902 -0.0932 -0.4211 -0.1697
29267W        W42681   7.184   6.991  15.462 -0.0912 -0.0958  0.0621
29268W        W42682   0.684   6.297   1.658  0.1708 -0.1111 -0.0965
29269W        W42683   9.832   1.532  13.548 -0.1006  0.1344  0.0242
29270W        W42684  12.733   7.539   5.530 -0.2605  0.0057  0.2282
29271W        W42685   7.866   3.129  11.572 -0.3398 -0.3277 -0.0418
29272W        W42686   3.811   2.044   2.474  0.0385  0.1077 -0.1089
29273W        W42687   3.064   8.651  14.079 -0.2178  0.2945 -0.0583
29274W        W42688   0.999   2.483   5.748  0.2680 -0.2689  0.1515
29275W        W42689   6.094  11.883  14.712 -0.3078 -0.3121 -0.0752
29276W        W42690  14.908  14.402  13.010 -0.1373  0.2439 -0.0986
29277W        W42691  10.241   7.146   0.786 -0.0880  0.1137  0.0457
29278W        W42692   6.723  17.681  11.769 -0.2830  0.1608  0.1806
29279W        W42693   4.761  11.608  15.074  0.1090 -0.1565 -0.1585
29280W        W42694  13.104   7.598   1.452 -0.0260 -0.1316  0.3726
29281W        W42695  15.981   6.454   3.695  0.0400 -0.0384  0.1018
29282W        W42696   6.190   2.707   0.891  0.3384 -0.3183  0.1276
29283W        W42697  13.482  16.236  10.021  0.1638  0.0062  0.0555
29284W        W42698   2.837  10.333   0.795 -0.1141  0.0559 -0.0857
29285W        W42699  17.242   0.612   1.437 -0.1105  0.1821  0.0840
29286W        W42700   7.953   2.955   4.204 -0.1648  0.1939 -0.3777
29287W        W42701   5.593   2.687   2.335 -0.4628  0.2811 -0.4283
29288W        W42702  18.174  12.295   1.189 -0.0736 -0.0246 -0.0323
29289W        W42703   8.378   5.125   2.376 -0.0671  0.1478  0.0541
29290W        W42704   4.440  10.173  13.957  0.3506 -0.0004  0.1711
29291W        W42705   5.097  17.533  15.398 -0.3922 -0.1060 -0.1059
29292W        W42706   5.971  11.336   4.888  0.2388  0.1211  0.1694
29293W        W42707   8.002   0.987  13.562  0.0138  0.0605  0.1365
29294W        W42708   1.017   3.941   4.885  0.2545  0.2475 -0.2795
29295W        W42709   3.652   0.332   0.884 -0.1936 -0.0182  0.0903
29296W        W42710   5.856  17.647   1.091  0.2409 -0.0543  0.0397
29297W        W42711  15.949  12.539   3.703  0.0769 -0.0168 -0.2326
29298W        W42712  17.499   2.021  11.660 -0.0816  0.1075  0.1358
29299W        W42713  11.468   2.441   0.392 -0.0873 -0.1081 -0.0746
29300W        W42714  14.932   3.979  13.744  0.1234  0.2870  0.3482
29301W        W42715  13.239  16.925  13.637  0.1168  0.0162 -0.1361
29302W        W42716   1.586  12.550  11.350  0.0093  0.1932 -0.1152
29303W        W42717   0.549   1.861   0.556 -0.0555  0.0846  0.0785
29304W        W42718  13.829   6.868   3.903  0.0642 -0.2654  0.0468
29305W        W42719   6.442   1.931  11.773 -0.0921  0.4076 -0.2967
29306W        W42720  15.136   9.538  16.434 -0.0168 -0.0073  0.1132
29307W        W42721   5.950   6.810   5.475  0.1688 -0.0350  0.1812
29308W        W42722   8.197  16.050   3.183  0.2729  0.0230  0.0085
29309W        W42723   2.318   3.656   5.715 -0.2092  0.1375  0.2104
29310W        W42724   9.244   9.848   1.500 -0.2957  0.1431 -0.0179
29311W        W42725   1.088  17.033   1.943  0.1062 -0.1222  0.0171
29312W        W42726   2.929   3.773  12.445  0.2821  0.2920 -0.0821
29313W        W42727   0.585   7.134  12.666 -0.4209 -0.2704  0.3039
29314W        W42728   4.740  16.162  11.950 -0.1631  0.1640 -0.2744
29315W        W42729  14.730   8.709  13.977  0.0128 -0.0338  0.4758
29316W        W42730   3.849   0.344   6.146  0.0033  0.0922 -0.1146
29317W        W42731  13.732   3.484  11.415 -0.0825  0.0255 -0.0922
29318W        W42732   1.900   7.280  15.110 -0.2361 -0.1860 -0.1465
29319W        W42733   0.387   4.070   3.022  0.2334  0.1618 -0.1197
29320W        W42734   2.503   8.723  11.697 -0.1694  0.0775 -0.2474
29321W        W42735  13.458  15.145   4.545 -0.0307  0.0634 -0.1472
29322W        W42736   3.036   3.139  12.597  0.0199  0.0615  0.1347
29323W        W42737  14.369   5.590  11.181 -0.0208 -0.0686 -0.0381
29324W        W42738  10.225   0.283  14.356 -0.0790  0.1686  0.1249
29325W        W42739   4.465  11.931   1.191 -0.2065  0.1265 -0.1693
29326W        W42740  13.654   1.473   1.794  0.0550  0.2241 -0.2004
29327W        W42741  16.407   5.114  14.446 -0.4274 -0.0280  0.0886
29328W        W42742  13.413  14.443  10.588 -0.1831  0.2907  0.0280
29329W        W42743   9.987   5.094  12.910  0.5196 -0.0729  0.0345
29330W        W42744   2.072   5.893   3.878 -0.0823 -0.0578  0.1244
29331W        W42745  17.824  11.655  12.156 -0.1355  0.0189 -0.1395
29332W        W42746   5.553  11.890   1.670 -0.0122  0.0677 -0.1754
29333W        W42747  11.706   2.130   3.962 -0.1799  0.0572 -0.2729
29334W        W42748   9.499  16.070   9.610  0.1887 -0.0833 -0.2030
29335W        W42749  12.923  10.381  16.492 -0.1281  0.0478 -0.4304
29336W        W42750   5.700   4.629  13.661  0.3523 -0.3373  0.0356
29337W        W42751   8.525  12.986  11.311  0.1397 -0.1744 -0.5595
29338W        W42752  15.370  17.720  12.300 -0.0473 -0.0015  0.0480
29339W        W42753  12.156   3.800   2.196 -0.0746 -0.1817  0.2050
29340W        W42754   9.300  12.173   5.274 -0.2372  0.2941  0.2774
29341W        W42755   4.792   3.145   5.672 -0.2754  0.0190 -0.0539
29342W        W42756   1.031   6.313  13.746  0.0029 -0.0137 -0.0303
29343W        W42757  16.927  10.547  12.278  0.1321 -0.1271  0.0067
29344W        W42758  16.680   6.829  13.293  0.1912 -0.1051 -0.0182
29345W        W42759  13.870  13.537   1.046  0.0307 -0.1438 -0.3996
29346W        W42760   3.366   5.667   4.362 -0.3621 -0.0779 -0.1749
29347W        W42761   6.602   9.790   6.027  0.0173 -0.0317  0.0281
29348W        W42762   9.549   3.835   3.260 -0.2560 -0.2231 -0.1660
29349W        W42763  13.799   8.533  12.629 -0.3277  0.2515 -0.0219
29350W        W42764   6.242  14.856   0.526 -0.4147 -0.3232  0.0930
29351W        W42765   8.997  15.157   2.336 -0.1420 -0.0993 -0.3540
29352W        W42766   0.255  17.275   1.305 -0.1423  0.4036 -0.1881
29353W        W42767   0.629   8.853  12.860  0.1746  0.1813  0.0674
29354W        W42768  16.194   6.895   3.738 -0.0565  0.2470 -0.1072
29355W        W42769  17.687  16.520  12.964 -0.2056 -0.0552 -0.2885
29356W        W42770  15.140   4.545  10.450  0.0638 -0.1765  0.1647
29357W        W42771  10.720  12.410   3.459 -0.0937 -0.2186 -0.1343
29358W        W42772  15.008  15.256  11.276 -0.0874 -0.0422  0.1647
29359W        W42773   3.912   0.456   1.311  0.0711 -0.0716 -0.2645
29360W        W42774  12.599  13.227   0.395 -0.2517  0.3075  0.1947
29361W        W42775  12.642  13.927  13.711  0.0905 -0.1620 -0.2176
29362W        W42776   0.496  16.432   4.810 -0.1613 -0.2114 -0.3311
29363W        W42777   0.088   1.769   3.536  0.0295  0.1116 -0.2059
29364W        W42778   0.796   8.995   6.563  0.0713  0.0151 -0.2678
29365W        W42779   2.599  14.557  14.883 -0.1471 -0.1005 -0.1296
29366W        W42780   0.660  11.301   1.398  0.1130  0.1601  0.2477
29367W        W42781   7.064   8.010  11.742  0.1506 -0.1387  0.0642
29368W        W42782   7.215   3.452  12.674  0.0192 -0.0656  0.0744
29369W        W42783  18.078   3.229  10.538 -0.0141  0.2316  0.2165
29370W        W42784  17.012   4.407  15.415  0.1629 -0.0421  0.1415
29371W        W42785   7.476  18.192   4.098 -0.1758  0.2495 -0.0788
29372W        W42786  13.848  14.846  10.825 -0.0275  0.0068 -0.0366
29373W        W42787   4.460   2.669  11.242  0.1377 -0.1511  0.0676
29374W        W42788  12.406   3.052   2.857  0.0016 -0.0325  0.0352
29375W        W42789   1.508  13.136  14.070 -0.1127 -0.1108  0.1450
29376W        W42790   1.102   4.394   3.626  0.0006  0.0134 -0.1257
29377W        W42791  17.042   8.197   3.075 -0.0362  0.0534  0.0663
29378W        W42792  15.914   8.498  12.575 -0.1443  0.3960  0.1564
29379W        W42793   6.503   7.969  15.146 -0.0558 -0.0132  0.1472
29380W        W42794  10.378  12.355   0.102 -0.0254  0.0198  0.2084
29381W        W42795  12.428   8.329  13.911  0.0772  0.1604 -0.1747
29382W        W42796  14.262   1.136  15.806  0.0251  0.0076  0.1031
29383W        W42797  17.078   9.559  11.991 -0.1456 -0.0502 -0.2416
29384W        W42798   5.391   2.262  12.484  0.1244  0.1478 -0.0679
29385W        W42799   3.903  17.517  14.649  0.1033 -0.0514 -0.0283
29386W        W42800  12.034   6.880   3.759 -0.0791 -0.1345 -0.2740
29387W        W42801   2.106   6.908   0.159  0.2727  0.0017 -0.1668
29388W        W42802   0.687  18.001   5.357  0.1365  0.1430  0.1950
29389W        W42803   6.584  13.588  14.103  0.0258  0.1957 -0.0724
29390W        W42804   6.445  15.465   0.387  0.0532 -0.1402 -0.1113
29391W        W42805  15.462   0.414  11.731  0.3180 -0.2709 -0.0318
29392W        W42806  17.915  12.181  14.273 -0.0875 -0.1289  0.0048
29393W        W42807   2.719  14.519   1.772  0.3942  0.0210  0.0489
29394W        W42808   5.791  13.423  15.023 -0.1950  0.2676 -0.1195
29395W        W42809  11.758  15.264   1.775 -0.0534 -0.1335  0.0464
29396W        W42810  18.083   1.179   5.424 -0.1210 -0.0801  0.4596
29397W        W42811   6.508   9.316  11.827 -0.0701 -0.0341  0.1027
29398W        W42812   1.198  17.764  16.268 -0.1504  0.0836  0.0129
29399W        W42813  10.501   3.200   1.777  0.2032 -0.1024  0.1768
29400W        W42814   1.668  14.383   4.756 -0.2778 -0.0899 -0.1054
29401W        W42815   2.821   1.917   4.039 -0.1317  0.0581  0.0944
29402W        W42816   0.581   8.368   6.058 -0.1076  0.1331  0.0612
29403W        W42817  10.570   4.326  10.791 -0.0753  0.1250 -0.0057
29404W        W42818  11.482  13.183  10.769 -0.0504  0.1350 -0.1448
29405W        W42819   0.984   2.212   3.628  0.0759 -0.3055 -0.1313
29406W        W42820  16.283   0.613  16.028  0.0278  0.1557  0.2835
29407W        W42821  15.812   4.280  13.536  0.1186  0.0952  0.1366
29408W        W42822  12.990  15.357  14.802  0.0750  0.0414  0.0938
29409W        W42823   8.151   9.838  13.510 -0.0114  0.1222 -0.1299
29410W        W42824  11.040   7.054  14.957  0.0453  0.3273 -0.0358
29411W        W42825   7.040  13.559   1.601 -0.2308 -0.1305 -0.3330
29412W        W42826   1.771  15.331   2.415  0.1096 -0.1793  0.2027
29413W        W42827  16.801   3.658  15.129 -0.1218 -0.1192  0.2294
29414W        W42828  10.869   0.776  15.596 -0.1610 -0.2349 -0.0383
29415W        W42829   7.437  14.261  14.727 -0.2455  0.0131  0.0760
29416W        W42830  10.203  10.079  11.562 -0.1735 -0.3114 -0.0541
29417W        W42831  16.595   7.803  16.454 -0.2228  0.0855 -0.0686
29418W        W42832  12.371   6.513   3.295 -0.0426 -0.1536 -0.2768
29419W        W42833  12.658  10.792  13.842 -0.0379  0.2387 -0.1383
29420W        W42834  15.077  15.265  15.952  0.0653 -0.4433  0.0183
29421W        W42835  14.965  16.207  16.253  0.1698  0.0211 -0.2364
29422W        W42836  15.854  17.811  13.101  0.2813 -0.0101  0.1664
29423W        W42837  15.766  16.188   5.091  0.0351  0.1061  0.1608
29424W        W42838  13.621   9.480   5.215  0.2039  0.1114  0.0355
29425W        W42839   2.094   1.918  11.977 -0.1367 -0.1724  0.0655
29426W        W42840   9.549   8.563   3.375  0.0013 -0.1361 -0.1795
29427W        W42841   1.519   2.532   1.189 -0.1020  0.2028 -0.1889
29428W        W42842   9.901  13.263  16.523  0.2935  0.2634 -0.0360
29429W        W42843   6.161  13.393   0.040  0.0846  0.2470 -0.2332
29430W        W42844   5.084   6.142   0.483  0.0954 -0.1617  0.1039
29431W        W42845   5.608   3.398   4.663 -0.3910  0.2222 -0.1122
29432W        W42846  11.077  15.517  14.636 -0.0914  0.3642 -0.2239
29433W        W42847   5.530   8.999   6.164 -0.3261  0.1469 -0.2142
29434W        W42848  11.445   0.254   3.530  0.0488  0.0716  0.1653
29435W        W42849   1.396   7.992  14.530  0.1605  0.1886  0.0291
29436W        W42850   3.566   6.119   2.970  0.2009  0.1728  0.0573
29437W        W42851   7.592  13.369  10.871 -0.1825  0.2777 -0.0776
29438W        W42852  14.077   8.880   0.816 -0.1971 -0.1612 -0.1057
29439W        W42853  17.930   5.391   0.083 -0.0379 -0.1088 -0.3133
29440W        W42854  12.789   1.389   1.179  0.2213  0.0814  0.2678
29441W        W42855   9.666   5.115  13.946  0.2234 -0.2495 -0.1033
29442W        W42856   3.673   5.154   1.942 -0.0607 -0.0919  0.2416
29443W        W42857   4.461   1.758   3.159  0.3178 -0.0239 -0.2289
29444W        W42858  11.913   1.490   4.616  0.0782 -0.1691 -0.4912
29445W        W42859   0.515  16.237   0.373 -0.1958 -0.1106 -0.1260
29446W        W42860   4.821   6.493  16.309  0.1510  0.0402  0.0664
29447W        W42861  14.424   6.729  10.900 -0.5490 -0.1114 -0.0866
29448W        W42862   7.172   0.710  12.105  0.2044 -0.3849  0.0846
29449W        W42863  17.531  15.012   3.173 -0.1968 -0.2910  0.1905
29450W        W42864   6.508  12.869  15.662 -0.1531 -0.3448 -0.1875
29451W        W42865   8.301  14.394  11.455  0.0089  0.1536 -0.2721
29452W        W42866   1.175   2.942  12.137 -0.0978  0.0942 -0.1448
29453W        W42867   0.111   6.731   4.598 -0.1369 -0.3469 -0.1120
29454W        W42868  15.395   9.362  11.552  0.1953  0.0227  0.1714
29455W        W42869   3.471   8.071  12.616 -0.0383  0.1274  0.0975
29456W        W42870   7.632   6.044   5.023 -0.2151 -0.1440 -0.0701
29457W        W42871   2.276   5.801   1.745  0.2218  0.1927  0.1349
29458W        W42872  16.256   9.931  10.781 -0.3120  0.0463 -0.0766
29459W        W42873   2.189   9.160   6.139 -0.0708 -0.1094  0.0144
29460W        W42874   7.235  14.030   2.111 -0.0856  0.1576  0.0717
29461W        W42875  15.829  18.204  15.583 -0.0463  0.0599 -0.2033
29462W        W42876  12.823   1.147   2.912  0.4170  0.1272 -0.1271
29463W        W42877   6.800  14.704  14.448  0.2280  0.0338 -0.1879
29464W        W42878  12.793  10.499   0.660  0.2248 -0.1778  0.1301
29465W        W42879   6.578  14.800   3.078  0.1428  0.0704  0.0348
29466W        W42880  16.980   7.429   1.219  0.1634 -0.1317 -0.0155
29467W        W42881  12.966  14.713  10.442  0.2159 -0.0004 -0.0843
29468W        W42882   7.942   1.146  12.488  0.0407  0.1722 -0.0954
29469W        W42883  11.292  16.230   2.116 -0.0217 -0.0341 -0.2078
29470W        W42884  11.592   0.678   0.203  0.0756  0.1310 -0.0876
29471W        W42885   4.984  13.469  12.523  0.0359  0.4205  0.3654
29472W        W42886   3.267   4.684   4.442 -0.1038  0.0611  0.0873
29473W        W42887  12.403   6.051  12.863  0.0767  0.0196  0.2346
29474W        W42888  16.282   5.918  11.320  0.0240  0.0573  0.1035
29475W        W42889   1.125  12.601  13.442 -0.4005 -0.2543  0.0688
29476W        W42890   0.712   2.231   6.119 -0.1542 -0.0107  0.0417
29477W        W42891   8.391   5.533   5.627  0.1757 -0.3227 -0.0152
29478W        W42892   4.867   3.712   3.650 -0.3112  0.0482 -0.1038
29479W        W42893  16.353  10.491   6.170 -0.2574 -0.2336 -0.0520
29480W        W42894  17.723  15.256  13.383 -0.1814  0.1293 -0.0713
29481W        W42895   5.125   8.343   5.526  0.0243  0.1012 -0.0156
29482W        W42896   1.754   9.510  13.612 -0.1262 -0.0745 -0.1500
29483W        W42897  16.892  17.763  15.032 -0.0974 -0.2253  0.0350
29484W        W42898  16.672  17.570   2.073 -0.1322 -0.0171 -0.2931
29485W        W42899   9.206  12.155   6.681  0.1994  0.1994  0.2459
29486W        W42900  17.471   5.045  12.312 -0.0738  0.1696 -0.0124
29487W        W42901   5.839  13.775   5.980 -0.1456  0.2749 -0.1307
29488W        W42902   7.765   9.174   0.355 -0.2619  0.0077 -0.0665
29489W        W42903  11.844  16.200  11.188 -0.4005  0.3915  0.2381
29490W        W42904  12.686   8.435   4.250  0.1213  0.2303 -0.0318
29491W        W42905   6.591   7.000  13.150 -0.0339 -0.4280 -0.0712
29492W        W42906  12.811   3.627   3.992 -0.1603  0.0177 -0.4425
29493W        W42907   3.990  14.932  10.330 -0.2735 -0.1493 -0.2790
29494W        W42908  14.464  11.466  14.793 -0.0535 -0.0529  0.2515
29495W        W42909  15.453  13.658   4.017 -0.0620  0.0173  0.0406
29496W        W42910  12.890   7.567   0.211  0.0981  0.0112  0.0870
29497W        W42911   2.553   8.512  12.300 -0.0474  0.1329  0.1198
29498W        W42912  17.640  18.211  10.788  0.2986  0.1652  0.1048
29499W        W42913   1.024   8.693  13.759 -0.1051  0.1290  0.0682
29500W        W42914   2.162   0.048  11.777 -0.0112  0.1526 -0.0376
29501W        W42915  11.736   8.274   3.033 -0.0435 -0.0270  0.1385
29502W        W42916  10.668  17.207  11.451 -0.1555  0.0527  0.1159
29503W        W42917   2.404  12.738   0.284 -0.1557  0.0347 -0.1295
29504W        W42918  12.726   8.431  14.326 -0.1452 -0.2783 -0.0907
29505W        W42919   9.438  13.998  11.464 -0.3649 -0.3004 -0.0780
29506W        W42920   6.286  14.257  15.425 -0.0138  0.0793  0.1117
29507W        W42921   9.388  17.265   1.047  0.2432 -0.0989 -0.0931
29508W        W42922   6.808  17.965  11.308 -0.1194 -0.0483 -0.0285
29509W        W42923  12.910   4.333   0.648 -0.2984 -0.2573  0.0074
29510W        W42924  17.950   5.707   2.735 -0.1611 -0.2405  0.2949
29511W        W42925  17.202   1.904  16.233 -0.0549 -0.1515 -0.0269
29512W        W42926   3.080  12.648  12.995 -0.1027 -0.3533 -0.0426
29513W        W42927   2.098   4.709   5.160  0.1083 -0.3199 -0.0316
29514W        W42928   7.648  11.017  14.607  0.0774  0.2572 -0.1191
29515W        W42929  10.829   1.716  11.696  0.1333  0.2232  0.2067
29516W        W42930   0.441   4.830   2.353  0.3119  0.5458  0.5428
29517W        W42931   8.047   6.403   4.930 -0.0869 -0.1467  0.0833
29518W        W42932   0.907   9.408  12.915 -0.2868 -0.0179 -0.1056
29519W        W42933  11.784  17.857   2.352 -0.1524  0.2534 -0.0194
29520W        W42934  13.239   5.487  12.902 -0.1499 -0.1638  0.0567
29521W        W42935  11.206  12.448  15.739 -0.1093 -0.0660  0.1050
29522W        W42936   4.372   3.565   3.240 -0.1040  0.1612 -0.0493
29523W        W42937   3.356  14.434  12.306 -0.1660  0.0471 -0.3214
29524W        W42938   2.026   2.397   5.105 -0.0291  0.0359  0.1094
29525W        W42939  16.778  12.313   5.900  0.0885  0.0478  0.2798
29526W        W42940   3.328   9.087   3.820 -0.4237 -0.5314 -0.1783
29527W        W42941   7.522  17.823  10.748  0.1674 -0.2478 -0.1403
29528W        W42942   5.599   7.165  14.123 -0.2170 -0.0849 -0.0957
29529W        W42943   5.743   9.412   0.628 -0.1399  0.3005  0.0752
29530W        W42944  11.912   6.281  11.356 -0.0583  0.2115  0.3014
29531W        W42945   3.841   0.411   3.399 -0.1261  0.1751 -0.1111
29532W        W42946   7.975   6.755  11.351  0.2608 -0.0071 -0.1095
29533W        W42947  10.843  11.330   4.026 -0.0138 -0.0775  0.0227
29534W        W42948   0.674  10.153   2.713 -0.1253  0.0668  0.1929
29535W        W42949  14.212  17.080  12.002 -0.2397  0.3326 -0.2138
29536W        W42950  14.173  13.928   2.954 -0.0078  0.0242 -0.0368
29537W        W42951   3.669   0.173  16.176  0.1045 -0.2244 -0.0188
29538W        W42952   1.537  11.408   4.151  0.3372  0.3017  0.1487
29539W        W42953  12.175   3.658   5.987  0.0929 -0.2343 -0.4139
29540W        W42954  13.137  15.468   4.741  0.0559 -0.0068 -0.3030
29541W        W42955  16.059   2.746  12.920  0.0707  0.1405  0.3661
29542W        W42956   1.890   9.917  11.950  0.0359  0.2491 -0.0033
29543W        W42957   6.799  18.057   2.947  0.1856 -0.3082  0.0724
29544W        W42958  14.495  11.955  11.234  0.1840 -0.0668  0.1666
29545W        W42959  14.744  12.055  11.653 -0.0083  0.1194  0.4976
29546W        W42960   5.086  13.489   3.539  0.2537 -0.0046  0.1421
29547W        W42961   8.283  15.305  15.300  0.1824  0.5031  0.1682
29548W        W42962  13.369   6.504   0.697  0.0069  0.1464 -0.1371
29549W        W42963  12.884  11.434  12.738 -0.2554  0.0765 -0.0968
29550W        W42964  14.940   8.515  11.147  0.1436  0.2091  0.1138
29551W        W42965  12.728   8.114   3.335 -0.2133  0.2153 -0.0694
29552W        W42966  12.060  12.759   3.693  0.3112 -0.1045 -0.4188
29553W        W42967   0.251   4.336  11.918 -0.0235 -0.1103 -0.2009
29554W        W42968   0.720   6.822   0.305  0.1718 -0.0762 -0.0969
29555W        W42969   8.560  17.227   0.761 -0.3491  0.0342 -0.1442
29556W        W42970  11.279   5.515   2.775  0.0322 -0.1081  0.2409
29557W        W42971   4.346   8.327  11.612 -0.0854  0.1183 -0.0048
29558W        W42972   5.441   2.280  14.361  0.0920 -0.0905  0.2696
29559W        W42973   2.690  12.922   0.874 -0.0911  0.0628 -0.1000
29560W        W42974  11.678   1.181  15.787 -0.0291  0.0041 -0.1218
29561W        W42975  13.528   9.165  11.988 -0.1393  0.3624 -0.0744
29562W        W42976   7.671   0.421  11.702 -0.0408  0.0522 -0.1529
29563W        W42977   3.516  15.610   3.825 -0.0285 -0.0967  0.0261
29564W        W42978  11.391  15.658  13.164 -0.3725 -0.1837  0.1413
29565W        W42979   0.409   7.137   0.586  0.1181 -0.1060  0.3532
29566W        W42980   8.010   7.769   4.556  0.2748  0.0194 -0.1351
29567W        W42981   8.099  13.575   2.076  0.0132  0.0559  0.0281
29568W        W42982   2.276  17.197  13.769  0.0497 -0.1408 -0.1212
29569W        W42983  12.371   4.593   2.880 -0.1043  0.2256  0.1186
29570W        W42984  16.916  11.763   5.637  0.0572 -0.1457 -0.0513
29571W        W42985   8.474  12.543   5.985 -0.0690  0.3057  0.0178
29572W        W42986  13.215  10.468   4.692 -0.2713 -0.0689 -0.0088
29573W        W42987   2.158  13.976  12.970  0.1265  0.2303 -0.3963
29574W        W42988   2.624  16.004  11.138 -0.1209 -0.1117 -0.0284
29575W        W42989   2.814  13.586  14.812  0.2178 -0.2444  0.0478
29576W        W42990  17.466  14.424  16.337 -0.0940 -0.4753 -0.0457
29577W        W42991  15.904  17.465   0.113  0.1691  0.0844 -0.1505
29578W        W42992  15.928   6.041   2.201  0.2283  0.1133 -0.2356
29579W        W42993  13.838   6.518   1.024 -0.0840 -0.1305 -0.3335
29580W        W42994   0.203   0.864  16.140 -0.2013  0.2483 -0.2040
29581W        W42995   3.817  12.676   0.278  0.0584 -0.0196 -0.3115
29582W        W42996  17.227   4.793   1.147 -0.2106 -0.1640  0.0275
29583W        W42997  14.926  10.766   2.707  0.0902 -0.1600  0.2676
29584W        W42998  10.187   8.071   4.710 -0.2346  0.0714 -0.1275
29585W        W42999   9.861  17.261  12.956  0.1449 -0.0861  0.2516
29586W        W43000   9.768  12.734  15.269  0.0476 -0.2113 -0.3862
29587W        W43001   3.535  10.507  12.918  0.0977  0.0603 -0.2109
29588W        W43002   2.166   1.515  11.686 -0.0861  0.3817  0.3098
29589W        W43003  15.102   6.188  13.193 -0.0217 -0.1116 -0.3784
29590W        W43004  13.091   5.147   0.022  0.0460  0.3190  0.0903
29591W        W43005  13.772   1.639   9.663  0.1844 -0.2072 -0.2010
29592W        W43006   8.151  18.183  14.873  0.0020  0.2097 -0.2762
29593W        W43007   4.039   2.854  13.405  0.0277 -0.1071  0.0434
29594W        W43008  11.569   1.034  15.296  0.2931 -0.0896 -0.0293
29595W        W43009   4.293  15.780  15.440 -0.0296 -0.1931 -0.0762
29596W        W43010   9.532   0.089  14.652  0.0231  0.1220  0.0187
29597W        W43011  18.127   8.800  12.591  0.1724 -0.2461 -0.0822
29598W        W43012  10.019   4.733   0.313  0.2654 -0.1547 -0.1702
29599W        W43013  13.488   5.618   5.403 -0.0834  0.1497 -0.0738
29600W        W43014  15.466   2.298   9.963 -0.2163 -0.0363 -0.0336
29601W        W43015  15.523  15.208   3.213 -0.0801 -0.1973  0.0860
29602W        W43016   0.197  13.250  13.304  0.0611 -0.0249  0.1319
29603W        W43017  10.166  18.018   2.512  0.2058 -0.1457  0.2191
29604W        W43018   3.960  14.321   3.548 -0.3272  0.0052  0.1914
29605W        W43019  17.713  15.326   4.503  0.2385 -0.0903  0.1846
29606W        W43020   5.317  15.368   0.576 -0.1707  0.1412  0.1910
29607W        W43021   8.930  10.019   3.223 -0.1087 -0.4373  0.1817
29608W        W43022   7.084  13.796  14.222 -0.1030 -0.0091 -0.1644
29609W        W43023   3.502   7.588   5.805  0.0152 -0.0239 -0.0997
29610W        W43024   4.465  13.307  11.170  0.2435 -0.1195 -0.2978
29611W        W43025   6.356  11.477  10.916 -0.0209  0.2205 -0.0496
29612W        W43026   8.728   5.150  11.622  0.2324 -0.2068 -0.0197
29613W        W43027   7.326   4.531   1.555  0.1670  0.1562  0.1603
29614W        W43028   7.739   8.899   1.324 -0.0428  0.2315 -0.0945
29615W        W43029  11.243   4.022  10.007  0.0266  0.0593 -0.1309
29616W        W43030   7.311   3.554  14.008 -0.0999  0.1418  0.0563
29617W        W43031  14.926   1.522  12.375  0.0723 -0.3888  0.1998
29618W        W43032   4.448   4.206  12.812  0.2538  0.3317 -0.0189
29619W        W43033  14.584   3.296   1.992  0.0790  0.0917 -0.2512
29620W        W43034   4.582  12.768  11.478 -0.0541 -0.0444 -0.0504
29621W        W43035   9.391  13.473  14.042 -0.1002 -0.1020  0.0021
29622W        W43036  13.751   7.545   0.386 -0.2934 -0.0254  0.1193
29623W        W43037   7.056   4.792  11.908 -0.0297  0.0229  0.0167
29624W        W43038   9.627  15.868   2.365 -0.0489 -0.0203 -0.3012
29625W        W43039   1.157   0.704  15.345  0.2217 -0.2343  0.1146
29626W        W43040  13.063   9.000   5.908  0.1491 -0.0987 -0.0848
29627W        W43041  14.889  11.561  16.071 -0.0858 -0.1056  0.1048
29628W        W43042   0.696   3.054   1.990  0.3453 -0.0277  0.0131
29629W        W43043   1.156   4.023  11.081  0.0602 -0.2694 -0.1971
29630W        W43044   0.230   0.427   3.124 -0.0794 -0.0773  0.0103
29631W        W43045   5.683  15.974  10.373  0.0259 -0.1909 -0.1187
29632W        W43046   8.402  16.374   0.278  0.0216 -0.1498 -0.0146
29633W        W43047  11.526   6.562  13.399  0.1500  0.3090 -0.1389
29634W        W43048   4.749  16.372   9.966  0.0497 -0.1845 -0.3576
29635W        W43049   2.820   9.117   0.526  0.1252  0.1179 -0.1251
29636W        W43050   1.079   3.776  12.379 -0.1864 -0.4020 -0.0416
29637W        W43051   7.511   3.597   5.415 -0.0277 -0.1200  0.1977
29638W        W43052  10.367   5.158  16.021  0.1944 -0.0997  0.0232
29639W        W43053   0.686  15.142   4.494 -0.1030 -0.1482  0.1181
29640W        W43054   9.228   9.594   3.010  0.3025  0.1389  0.1151
29641W        W43055   1.325   8.598  11.446  0.3011  0.2519  0.2611
29642W        W43056  13.054  14.746   0.472 -0.1453  0.0249 -0.3523
29643W        W43057   2.590   2.841  12.653 -0.2081 -0.2844  0.3194
29644W        W43058   9.539  15.828   5.229 -0.0925  0.2399  0.2723
29645W        W43059  11.682  11.702   0.263 -0.1525 -0.1812 -0.2086
29646W        W43060   0.405   9.461  10.720  0.4899 -0.0997  0.0730
29647W        W43061   4.898  11.540  11.305  0.0770 -0.0748 -0.1177
29648W        W43062   4.625  14.129   2.901  0.0930  0.0236 -0.1168
29649W        W43063  14.301   5.164  13.713  0.4060 -0.0858  0.3125
29650W        W43064   0.491  12.487   1.997 -0.0091 -0.1257  0.2003
29651W        W43065  12.324   1.062  13.020  0.1833 -0.0411 -0.0010
29652W        W43066  17.790   4.088   0.326 -0.0804  0.4893  0.0377
29653W        W43067  13.853  12.010   2.763  0.0453  0.5227  0.2392
29654W        W43068   5.193   0.175  15.702 -0.0973  0.3003 -0.0213
29655W        W43069  16.290   4.167  13.286  0.0384 -0.1045  0.1900
29656W        W43070   6.494   6.523  14.868  0.1700  0.2077  0.0126
29657W        W43071   5.026   3.093   4.747 -0.2787 -0.1665  0.1081
29658W        W43072   0.399  15.944   2.041 -0.0565 -0.0646  0.0331
29659W        W43073  14.127  10.141  14.901 -0.0064 -0.0226  0.0511
29660W        W43074   9.129   0.896  10.797 -0.1617 -0.0600  0.0316
29661W        W43075   9.584   4.203  13.334  0.0974  0.0604 -0.2900
29662W        W43076   2.624   3.961   4.059  0.0775  0.1889 -0.1419
29663W        W43077  16.656   6.635  15.886  0.1321 -0.0157  0.2631
29664W        W43078   8.595  18.221   4.117  0.1141  0.0659  0.0248
29665W        W43079   5.726   3.037  11.803 -0.2505 -0.1706 -0.1479
29666W        W43080   8.787  10.015   6.176  0.1511  0.1047 -0.1772
29667W        W43081  11.927  15.704   1.492  0.2677  0.1790  0.0621
29668W        W43082   3.768  17.635  15.137 -0.2133 -0.1945 -0.1447
29669W        W43083   5.597   3.837  11.525  0.0742 -0.0390  0.0211
29670W        W43084   3.002  16.787  15.819  0.1492  0.0302 -0.0713
29671W        W43085  10.003  17.270   3.013 -0.2785  0.1086 -0.0751
29672W        W43086  16.475  10.617   2.333 -0.3641  0.2127 -0.0384
29673W        W43087   5.581  17.304   4.704  0.2594  0.1701 -0.2957
29674W        W43088   8.442  14.253   4.886 -0.2339 -0.0589  0.0719
29675W        W43089  17.874   9.054  12.956  0.2956  0.0898 -0.0266
29676W        W43090   9.803   4.392   3.611 -0.1324 -0.1304 -0.0473
29677W        W43091  14.177   1.573  10.985  0.0743  0.2813  0.3960
29678W        W43092   2.889  17.786  14.611 -0.1777 -0.0918 -0.0247
29679W        W43093  15.228   6.521  15.454  0.0509  0.1256 -0.2397
29680W        W43094   6.962   6.849   6.391  0.0256 -0.0955  0.0737
29681W        W43095   2.307   1.994   1.845  0.1396 -0.1965 -0.0040
29682W        W43096   9.392  12.061  13.973 -0.0726 -0.0149 -0.0202
29683W        W43097   0.670   7.146   3.885  0.0049  0.0360 -0.0329
29684W        W43098   1.849   7.841   0.427  0.0109 -0.0472 -0.1093
29685W        W43099  13.789  14.315  10.913  0.1588 -0.0795  0.0886
29686W        W43100   9.574   8.284  10.035 -0.0426  0.0409 -0.4012
29687W        W43101   2.382  18.094   1.593 -0.1027 -0.0348 -0.0580
29688W        W43102   1.433  15.698   5.301  0.1066  0.2468 -0.1079
29689W        W43103   2.823   0.410  12.934 -0.0483  0.0909  0.1334
29690W        W43104   1.288  11.500   0.760  0.1577  0.0448  0.0585
29691W        W43105   8.968   7.192  13.167  0.1760  0.1910 -0.2245
29692W        W43106  13.827  13.701   5.250  0.1264 -0.0894 -0.2604
29693W        W43107   5.782  14.679  14.620 -0.0777  0.0353 -0.2021
29694W        W43108   8.149   3.828  14.419  0.0332  0.0819 -0.2066
29695W        W43109   6.998  17.455  15.501 -0.2472 -0.1179  0.1339
29696W        W43110  17.075  17.967   1.998  0.1322  0.0127 -0.2769
29697W        W43111  15.227   5.691   6.169 -0.0086  0.0031  0.3296
29698W        W43112  14.978  12.393  15.912  0.0425 -0.1237 -0.0034
29699W        W43113   3.870  12.973   6.253  0.0396 -0.0710 -0.0380
29700W        W43114   8.620  10.931   3.477 -0.2537 -0.0846 -0.3189
29701W        W43115  17.930  16.930  14.033  0.2139  0.0319 -0.1415
29702W        W43116   9.929   9.555  16.453 -0.1635  0.1580  0.1666
29703W        W43117   9.239   5.852   0.132 -0.1713 -0.4509  0.1920
29704W        W43118  10.897   7.974   0.976  0.0155  0.0513  0.0086
29705W        W43119   8.263  11.306   5.514  0.0708 -0.0724 -0.0753
29706W        W43120  10.083   7.449   5.290 -0.1063 -0.1339  0.0589
29707W        W43121   9.740  10.854  12.707 -0.0997 -0.0388  0.1521
29708W        W43122   8.210   4.990   1.911 -0.0632 -0.2312 -0.0782
29709W        W43123  16.327   2.451  13.914 -0.0598 -0.0394 -0.1192
29710W        W43124   2.501   9.353  13.090  0.0344 -0.2712 -0.0282
29711W        W43125  10.845  10.711   0.949  0.0849  0.2468 -0.2153
29712W        W43126   3.172   6.066  16.115  0.3626 -0.2446  0.3407
29713W        W43127  15.534   4.289  14.999 -0.0876 -0.0790 -0.0542
29714W        W43128   6.176   9.956   5.227  0.3074  0.3751 -0.0148
29715W        W43129  15.401   6.060   4.585  0.2952  0.0802  0.0474
29716W        W43130   9.360   4.942   0.058  0.2422  0.1950  0.0726
29717W        W43131   3.731   0.933   2.355  0.2318 -0.0957  0.1077
29718W        W43132  16.339  12.749   3.983 -0.2117 -0.2422  0.2117
29719W        W43133   8.516  10.322   5.567 -0.0468  0.0485  0.1404
29720W        W43134  15.463   1.793   3.152 -0.0319 -0.1416 -0.0944
29721W        W43135  14.707  10.497   4.944  0.3787 -0.1176  0.1161
29722W        W43136  18.194  17.934  15.278  0.0634 -0.0645  0.3405
29723W        W43137   6.069  14.587   4.715 -0.0406  0.1953  0.0558
29724W        W43138   5.221  18.144   3.565 -0.1935  0.0336 -0.2005
29725W        W43139  13.648   0.954   4.250 -0.4053 -0.0038  0.1357
29726W        W43140  15.136   8.735   3.481 -0.1772  0.0933  0.1071
29727W        W43141  16.399   2.634  13.408 -0.2465 -0.1390 -0.0589
29728W        W43142   8.218   9.963   5.208  0.2444  0.7277  0.2306
29729W        W43143   1.175  15.337   2.908  0.0527  0.3331 -0.3407
29730W        W43144  17.223  17.437   3.230 -0.1520 -0.2976 -0.0139
29731W        W43145   3.871  14.265   4.718  0.0498 -0.0119  0.0088
29732W        W43146  12.980   6.832   1.324  0.0069  0.0813 -0.0665
29733W        W43147   0.679   2.301   3.050  0.2115 -0.2575  0.1806
29734W        W43148   4.093  14.412  15.050 -0.1258 -0.0907  0.2497
29735W        W43149   5.343  12.061  11.113  0.1509  0.0239 -0.2513
29736W        W43150  16.617   2.026   3.825 -0.1099 -0.1402  0.0029
29737W        W43151   8.686   9.986   5.234 -0.1398  0.0820  0.2484
29738W        W43152   2.825   6.658  13.528 -0.1063 -0.1207  0.0084
29739W        W43153  16.655  16.679   2.904  0.0054  0.3024  0.2362
29740W        W43154   5.601   6.316   3.056  0.2421 -0.2932  0.1798
29741W        W43155   8.766   0.571  15.970 -0.0808 -0.1140 -0.4217
29742W        W43156   7.409  13.147  12.993  0.1469  0.0712  0.2168
29743W        W43157  17.835   1.708   3.466  0.0696  0.1675  0.0049
29744W        W43158   7.276   3.138  13.113 -0.1004 -0.1014  0.0017
29745W        W43159   8.949   4.086  16.031 -0.0677  0.1245  0.1055
29746W        W43160   8.985   1.503  15.862 -0.0677 -0.1731 -0.0269
29747W        W43161  10.468   7.207  15.879  0.3484  0.3165 -0.1245
29748W        W43162   5.636  10.072   2.594  0.1092  0.4750  0.1067
29749W        W43163  15.977   9.848  11.303  0.2110  0.2862  0.1266
29750W        W43164   4.669   7.752   4.655 -0.2790  0.1966  0.3495
29751W        W43165   6.909   0.611  16.250 -0.1981  0.0437 -0.1016
29752W        W43166  15.566  14.915   4.601  0.0716  0.1354 -0.1425
29753W        W43167   2.036  17.867   3.545  0.0815  0.1921 -0.0935
29754W        W43168  17.189   7.737   2.280  0.0739  0.1588 -0.0565
29755W        W43169   7.983   5.326   2.593 -0.0224  0.1050 -0.0013
29756W        W43170  14.614  15.149   2.057 -0.2058 -0.0561  0.0845
29757W        W43171   5.407   4.657   3.019  0.0219 -0.0508 -0.1553
29758W        W43172  14.646  12.298   5.914 -0.0588  0.0973 -0.0834
29759W        W43173   2.528   2.455  11.239 -0.1968 -0.1568 -0.0173
29760W        W43174   2.417  13.418  10.442 -0.2792  0.0412 -0.2195
29761W        W43175   4.349  14.678   4.626 -0.0306 -0.3354 -0.0749
29762W        W43176   3.678   4.547   5.869 -0.0083 -0.3709 -0.0740
29763W        W43177   1.744   9.620  11.019  0.4696 -0.1316  0.3142
29764W        W43178  10.449   8.235   4.311  0.3454  0.1271 -0.0381
29765W        W43179   7.435  14.662   3.238  0.1170 -0.0458 -0.1873
29766W        W43180   0.309   7.165  10.961 -0.2541 -0.1033 -0.2316
29767W        W43181  14.237   0.636  14.638 -0.1925  0.3179  0.0228
29768W        W43182   2.034   0.109  14.667  0.1208 -0.1157 -0.1752
29769W        W43183  10.844   3.723  13.251  0.1038 -0.0854 -0.4333
29770W        W43184   6.924  10.091   4.022  0.3030 -0.2881 -0.1410
29771W        W43185   5.471   4.213   4.241 -0.3888  0.0873 -0.0018
29772W        W43186   1.711   4.276  15.302 -0.0160 -0.0494  0.1220
29773W        W43187   9.096  14.626   5.268 -0.0001  0.2066  0.0331
29774W        W43188  15.910   5.819  14.162  0.2283 -0.1705 -0.0871
29775W        W43189  17.053  15.888  14.990 -0.1845  0.0405 -0.0055
29776W        W43190  13.086   2.896   9.523  0.0370 -0.0283  0.6150
29777W        W43191   6.125   6.886   2.691  0.0268 -0.0847  0.1496
29778W        W43192  15.657   2.216   0.612 -0.0674 -0.3365 -0.0767
29779W        W43193   3.091   1.793  15.332 -0.0665 -0.2568  0.2960
29780W        W43194   9.328   5.146  12.267  0.4146  0.3389  0.0457
29781W        W43195   2.161  17.237   1.293  0.0765  0.1475 -0.2111
29782W        W43196   6.233  16.808  15.913 -0.0358  0.0675  0.0839
29783W        W43197  14.556   2.610  15.900  0.2556  0.1328  0.3202
29784W        W43198   9.831  13.561  13.689  0.0301 -0.1802  0.2411
29785W        W43199  15.101   7.871   5.443  0.0473  0.0466  0.0818
29786W        W43200  16.229  17.765  12.702  0.1616 -0.2368  0.0069
29787W        W43201  16.087  17.190  14.341  0.1335  0.0751  0.0332
29788W        W43202   6.335  11.941  15.235  0.0294  0.1179 -0.0111
29789W        W43203   1.531   5.889  12.551 -0.4216 -0.0099 -0.0245
29790W        W43204   4.923   4.743   1.887  0.3425  0.3207  0.1938
29791W        W43205  13.273  13.718  13.140  0.0843 -0.0869  0.1590
29792W        W43206  12.548  11.602   6.047  0.1166 -0.0910  0.3070
29793W        W43207   3.233   1.961   0.816  0.0421  0.1329 -0.0775
29794W        W43208   2.076  12.214   1.667  0.0647 -0.1149 -0.1070
29795W        W43209   8.081   8.404   5.217 -0.0323 -0.0038  0.2528
29796W        W43210  12.356  10.098  12.895 -0.2765  0.1395 -0.0759
29797W        W43211   9.522  13.426  15.222  0.0329 -0.1540 -0.0005
29798W        W43212  12.054   4.866  12.302  0.1201  0.4472  0.0578
29799W        W43213  15.241   2.066   2.432  0.2496  0.2504 -0.2066
29800W        W43214   0.299   3.203   1.178  0.1155  0.3318 -0.1586
29801W        W43215  10.596   2.849   1.458 -0.0003  0.2353 -0.3735
29802W        W43216   6.788  15.219   3.014  0.1157  0.1908  0.1052
29803W        W43217   7.550  18.221   2.317  0.4201  0.1320 -0.1435
29804W        W43218  10.937   6.967  15.627  0.3298 -0.3254  0.0027
29805W        W43219  10.804  13.374  14.755 -0.0550 -0.4823 -0.0608
29806W        W43220   9.318   3.027  12.045 -0.0843 -0.2300 -0.3110
29807W        W43221   0.980   4.282   5.304 -0.3741 -0.0012  0.1665
29808W        W43222   9.965   3.035  10.656  0.0244  0.0947 -0.0199
29809W        W43223   3.042  15.552   3.672  0.0309  0.1647  0.1433
29810W        W43224  12.650   2.449   4.958  0.2686  0.2176  0.1124
29811W        W43225  18.130   9.412   2.410 -0.0301 -0.0298  0.0307
29812W        W43226  15.173   9.908  15.334  0.2176 -0.2241 -0.3251
29813W        W43227   2.884  12.055   6.219 -0.1924  0.1303  0.1693
29814W        W43228  13.438   1.412   1.220  0.1645 -0.2771 -0.2375
29815W        W43229  14.206   5.340   0.275 -0.0337  0.3287 -0.2253
29816W        W43230  18.029   3.833  11.939 -0.2668 -0.1998  0.2423
29817W        W43231   8.434  16.575  14.091  0.2167 -0.1200 -0.1942
29818W        W43232   5.570   2.704  10.834 -0.1554  0.1239 -0.2037
29819W        W43233  13.150   8.698   5.122  0.2313 -0.0632  0.0112
29820W        W43234   8.231  13.862  15.321  0.0028 -0.3606  0.2490
29821W        W43235  10.978   1.579   3.100 -0.1611  0.6822  0.0141
29822W        W43236   5.802  13.468   5.590  0.3640  0.0181  0.2558
29823W        W43237  16.493   5.878  13.020  0.1368  0.1051 -0.1057
29824W        W43238   2.203  17.991   0.651  0.1769 -0.1387 -0.0264
29825W        W43239   7.211  12.217   5.993 -0.1639 -0.2127 -0.1125
29826W        W43240   6.966  17.104   4.032 -0.0863 -0.1234  0.0174
29827W        W43241  10.751   1.256  11.444 -0.0722 -0.3996  0.2580
29828W        W43242   2.965  12.915  12.343 -0.0547 -0.1268  0.3251
29829W        W43243  16.004  16.050   0.346  0.3350  0.0429 -0.2852
29830W        W43244   8.795  11.197  12.851  0.1031  0.1918 -0.1845
29831W        W43245   4.853  15.221  15.329  0.0782  0.0338  0.0915
29832W        W43246  10.741  11.679   4.627  0.3156 -0.0695  0.1096
29833W        W43247  10.861  10.308   4.801 -0.1035  0.1253 -0.0472
29834W        W43248   0.549  12.102   4.054  0.0723 -0.2715 -0.0900
29835W        W43249   7.339  12.039   2.631  0.0351  0.2321  0.3059
29836W        W43250   5.241  13.250   0.283  0.3874 -0.0501  0.1047
29837W        W43251   7.656   6.899   4.927  0.0763 -0.1530 -0.3317
29838W        W43252   1.570   0.437   5.719 -0.0476  0.2584 -0.1049
29839W        W43253  16.882   9.939   3.674 -0.0933 -0.0618  0.0112
29840W        W43254   7.510   7.858  12.247 -0.2548 -0.3795  0.0362
29841W        W43255   0.231   1.376   0.461  0.2818  0.0388 -0.1293
29842W        W43256   1.767  13.654   1.701 -0.0247  0.5302  0.2387
29843W        W43257   2.254   2.633  15.761  0.0032  0.3728 -0.2855
29844W        W43258  13.385  15.929   1.063  0.0885  0.1895  0.1115
29845W        W43259   3.846  15.811  14.199  0.2371 -0.1252 -0.1908
29846W        W43260   4.560   9.929   3.453  0.1658 -0.2650 -0.2548
29847W        W43261   3.158  12.101  11.804  0.2030 -0.1809  0.0458
29848W        W43262  13.113  13.813  16.505 -0.1895 -0.0541 -0.0429
29849W        W43263  17.171   7.205   3.143  0.1120  0.0759  0.2465
29850W        W43264   2.863   4.288  13.881 -0.1075  0.1489 -0.1383
29851W        W43265   7.614  10.091  15.977 -0.0145 -0.3049  0.1692
29852W        W43266   2.161   1.395  10.303 -0.0473  0.0767 -0.2594
29853W        W43267  13.167  10.287   0.454 -0.0004  0.1585  0.0043
29854W        W43268   2.072  15.316  15.969  0.3060 -0.0774 -0.0684
29855W        W43269   5.183   9.032   3.433 -0.1261  0.1234  0.3012
29856W        W43270   5.649  14.250   1.176  0.0299 -0.0688 -0.2219
29857W        W43271   4.133   2.011   5.437 -0.3554  0.1892  0.0012
29858W        W43272  17.145   0.222   3.251  0.1814 -0.0317 -0.0160
29859W        W43273   1.507   8.959   5.838 -0.1515 -0.1104 -0.0777
29860W        W43274  17.065  15.365  13.820 -0.2361  0.0057 -0.0209
29861W        W43275  13.044  12.925  11.087 -0.1833 -0.3228  0.5139
29862W        W43276   7.363   3.029  11.386  0.2808 -0.1438 -0.0343
29863W        W43277  11.699   2.369  13.934  0.1167 -0.0692  0.0261
29864W        W43278   5.284   6.025   2.555  0.1912  0.1583  0.0524
29865W        W43279  16.103   0.006   2.321 -0.0684 -0.1429  0.0189
29866W        W43280   9.835  11.416   1.193  0.1283 -0.1956 -0.3158
29867W        W43281   4.565   1.897  13.883  0.3929  0.0109  0.1030
29868W        W43282   2.590  14.712  11.113  0.3737  0.3050 -0.1996
29869W        W43283   4.469   5.359   2.952 -0.1581  0.0377 -0.0028
29870W        W43284   3.029   2.534  10.996  0.1252  0.0739  0.2818
29871W        W43285   3.712   0.358   0.376  0.1221  0.0835  0.5289
29872W        W43286  17.983   7.426   3.782  0.0078  0.0146  0.2102
29873W        W43287   0.073   3.649  10.782  0.0594  0.0104 -0.0043
29874W        W43288  18.150  13.431   5.999  0.0628  0.1847 -0.0314
29875W        W43289  15.043   1.263  11.522  0.1477  0.0006 -0.2629
29876W        W43290  12.865  14.969  11.438  0.0605 -0.2204 -0.0486
29877W        W43291   1.498   1.430  10.935 -0.0308  0.1878 -0.1918
29878W        W43292   6.684  13.377   0.422 -0.0238  0.1679 -0.2004
29879W        W43293  16.778  11.238   0.311  0.0549  0.0363  0.1441
29880W        W43294   8.175  14.194   4.401  0.2222  0.0840 -0.0206
29881W        W43295  17.717   1.653  12.478  0.0619 -0.0668 -0.1629
29882W        W43296   0.604  10.477   3.554 -0.2168  0.1446  0.0365
29883W        W43297   3.658   0.512  15.350 -0.3004  0.2359 -0.0218
29884W        W43298   3.483   5.100   5.842 -0.2348  0.3570 -0.0958
29885W        W43299  13.280  16.985  12.087  0.0840  0.2366  0.0387
29886W        W43300  16.819   6.172  12.651  0.0248 -0.2079 -0.4079
29887W        W43301   3.686   6.325   2.540 -0.1902  0.0681  0.1784
29888W        W43302  10.829  16.059  10.710 -0.0799  0.0367  0.2237
29889W        W43303  13.892  14.856  12.848 -0.0030 -0.5060 -0.1702
29890W        W43304  12.503   8.669  15.857  0.3541 -0.2261 -0.1315
29891W        W43305   2.248   1.971   0.496 -0.0856 -0.0916  0.0859
29892W        W43306  13.805  11.731   5.426  0.0920  0.1788  0.1680
29893W        W43307   1.950   3.003   3.346  0.0047  0.2062  0.1695
29894W        W43308   5.431  16.566   1.304  0.0284 -0.0959 -0.0321
29895W        W43309   2.354  10.391   5.613 -0.0750  0.1791 -0.4389
29896W        W43310  11.397   9.644   0.831  0.2154  0.1368  0.2595
29897W        W43311  16.839  14.678   5.962 -0.2361  0.0582  0.3093
29898W        W43312  14.492   9.424  11.068 -0.3071  0.0006  0.1063
29899W        W43313  11.067   4.848   1.702 -0.0741  0.0109 -0.0680
29900W        W43314   6.426  13.465   1.708 -0.2268  0.0052 -0.0621
29901W        W43315  14.791  16.530   1.406 -0.0803 -0.0319  0.1235
29902W        W43316  16.878  10.568   6.121  0.1300  0.2069  0.2137
29903W        W43317   1.487  13.098  15.503 -0.0361 -0.1098 -0.1996
29904W        W43318   8.402   5.510  15.341  0.0956 -0.1058 -0.0234
29905W        W43319   8.054  15.558  12.844  0.0114  0.2371 -0.0285
29906W        W43320  17.556  12.511  13.480 -0.0166 -0.3708  0.0069
29907W        W43321  17.287   6.960   1.291 -0.1894 -0.3095  0.2023
29908W        W43322   2.344   6.360  15.086 -0.0454 -0.2255 -0.0603
29909W        W43323   4.422   9.559  16.108 -0.0714  0.0039  0.0742
29910W        W43324   1.303   3.742  14.460 -0.1526 -0.0152 -0.0696
29911W        W43325   0.650   9.566   4.956  0.4914 -0.0462 -0.4993
29912W        W43326   0.018   3.018   0.607 -0.0811 -0.0296  0.0231
29913W        W43327  14.732   8.872   1.629 -0.1698  0.1051 -0.1057
29914W        W43328  10.975   3.977  10.930 -0.1571 -0.1953 -0.2382
29915W        W43329   1.990  14.057   1.537 -0.0762 -0.1655  0.2955
29916W        W43330  13.949   6.648  11.066  0.0566  0.0179  0.1263
29917W        W43331   4.630  17.011  15.073 -0.1885  0.0303 -0.1503
29918W        W43332  12.825  12.767  13.482  0.2137  0.0645  0.0017
29919W        W43333   5.704  13.039  14.062  0.0069  0.2265  0.1582
29920W        W43334   5.593   9.647   6.045 -0.2933 -0.1792 -0.0697
29921W        W43335  11.731   7.686  14.622 -0.1562  0.1579  0.1947
29922W        W43336   2.671  11.868   4.031  0.0185  0.1763 -0.3512
29923W        W43337   6.617  16.846   3.749 -0.0243 -0.1102  0.3159
29924W        W43338   4.955   2.624   0.353  0.1115 -0.0554  0.1537
29925W        W43339   0.555   2.319  12.604 -0.1010 -0.1028 -0.0325
29926W        W43340   8.075   8.358   4.669  0.0251 -0.2757 -0.2294
29927W        W43341   3.210   5.887   0.138 -0.0130 -0.2549  0.0754
29928W        W43342   9.355  11.509  12.231 -0.1117 -0.2521  0.3492
29929W        W43343   0.937   7.427  14.015  0.1049  0.1532 -0.0265
29930W        W43344   8.369  12.281  14.989 -0.1824 -0.0974 -0.0030
29931W        W43345   2.097   0.082  13.057  0.2073  0.1089  0.2050
29932W        W43346   5.113   0.295   4.549  0.0244  0.1632  0.4517
29933W        W43347   1.199   4.828   3.381 -0.1008 -0.1006 -0.0115
29934W        W43348   9.504   3.641  11.382 -0.0381 -0.0217 -0.2842
29935W        W43349  17.305  13.624  14.135  0.2884  0.0591 -0.0419
29936W        W43350  13.136   6.546   2.948  0.2083 -0.1847  0.0443
29937W        W43351  16.973   2.744   4.002  0.5315 -0.0790  0.0412
29938W        W43352  11.248  10.457  14.623  0.1548 -0.1774 -0.0822
29939W        W43353  14.048  10.101   5.705  0.0113 -0.0405  0.1818
29940W        W43354   2.667   8.448  11.282 -0.1896 -0.1876  0.0024
29941W        W43355  15.678  12.353  15.353 -0.2384  0.3171 -0.1780
29942W        W43356  11.427  11.706  16.364  0.2132 -0.0310  0.1593
29943W        W43357  18.002  14.501  14.977 -0.1046 -0.0173 -0.0110
29944W        W43358   8.129  16.402   5.304 -0.0257 -0.1959 -0.1370
29945W        W43359  10.441   2.679  15.712  0.0530 -0.2838 -0.0530
29946W        W43360   0.937   5.437  10.977  0.0764  0.0379 -0.0445
29947W        W43361  16.046   7.480   1.144 -0.4859  0.0971 -0.0230
29948W        W43362   8.378  16.749  15.146 -0.2716 -0.0213 -0.0336
29949W        W43363  14.798  12.051  12.550  0.1458 -0.1367  0.0177
29950W        W43364   1.995  13.465  13.366  0.0955  0.0586  0.2287
29951W        W43365   0.995   2.693  16.001 -0.2095 -0.2641  0.0877
29952W        W43366  12.013   2.025  16.359  0.3411  0.0047  0.2696
29953W        W43367  14.276   9.112  10.710  0.0400  0.1089  0.1929
29954W        W43368   9.625   7.293   0.500 -0.1369 -0.0476 -0.0310
29955W        W43369  10.865   5.756  14.280  0.0446  0.0934  0.0668
29956W        W43370   7.919   4.535   5.061  0.0199  0.1781  0.3014
29957W        W43371   5.646   4.168  13.807  0.0381  0.1831 -0.4070
29958W        W43372  13.440  15.395  10.218 -0.0885  0.0961  0.2082
29959W        W43373   7.805   8.812  13.119  0.0261 -0.1575  0.0200
29960W        W43374  11.037   0.308  15.182 -0.1665  0.0060  0.1244
29961W        W43375   8.516   3.758  11.441 -0.0243  0.1433 -0.0725
29962W        W43376   0.032   9.090  11.349 -0.2219  0.0488  0.2884
29963W        W43377  17.137  15.436   0.688  0.0089  0.4240  0.0056
29964W        W43378  10.468   8.897  13.009  0.1294 -0.1468 -0.1776
29965W        W43379   1.298   4.675  11.981 -0.0371 -0.1795  0.0125
29966W        W43380   0.104   2.591  13.290 -0.0074 -0.0827 -0.0939
29967W        W43381  10.055   6.256   3.898  0.1917  0.0983  0.0002
29968W        W43382  17.220   9.486   0.553  0.0516 -0.3355 -0.2080
29969W        W43383   8.690  16.668  10.624 -0.2238  0.0237 -0.1015
29970W        W43384   0.719   5.947   0.944 -0.0988  0.0902 -0.1862
29971W        W43385   1.284   8.917   2.876  0.4389 -0.0162 -0.1610
29972W        W43386  11.132  13.317   2.128 -0.1076 -0.1234 -0.0137
29973W        W43387  11.069   2.648   5.107  0.2338  0.1416 -0.1921
29974W        W43388  16.648  10.461  15.992 -0.1106 -0.1206  0.0637
29975W        W43389  10.120   4.904   3.735  0.0591  0.1474  0.0244
29976W        W43390  17.581   3.335  12.337  0.1523  0.1599 -0.0834
29977W        W43391   0.958  15.536   4.356  0.2823  0.1610 -0.1986
29978W        W43392   2.870  14.978   4.325  0.0763  0.0330 -0.1764
29979W        W43393   6.971  17.720   4.757  0.2537  0.1515  0.0930
29980W        W43394  10.461   9.278  13.400  0.2583 -0.0315  0.0647
29981W        W43395   1.918   6.789  12.678 -0.1789 -0.0352  0.0086
29982W        W43396  16.512  15.411  16.375  0.0350  0.2539 -0.0084
29983W        W43397   4.144  13.615   1.613 -0.2763 -0.1557  0.0715
29984W        W43398   3.016   6.995   6.792 -0.0051  0.3182  0.1227
29985W        W43399  16.402  10.694   0.344  0.0670  0.0885 -0.0490
29986W        W43400   6.516  16.054  16.376  0.2252  0.6354 -0.0215
29987W        W43401   4.432   5.138  13.477 -0.0673  0.1872 -0.0025
29988W        W43402   6.308   2.228   2.758 -0.0123 -0.0642 -0.1699
29989W        W43403  17.846  16.654   4.711 -0.0604 -0.0686 -0.0811
29990W        W43404   5.101  12.192  12.492  0.0608 -0.0619 -0.0682
29991W        W43405   0.317  18.018  14.440 -0.2861 -0.0926  0.2396
29992W        W43406  16.815   2.230  15.210 -0.0445  0.0583 -0.1610
29993W        W43407   9.504   8.988  15.639 -0.2732  0.1079  0.1118
29994W        W43408   3.930   4.735   2.624 -0.2657 -0.0829 -0.1057
29995W        W43409   4.206  10.830  13.272 -0.1327 -0.3015  0.2120
29996W        W43410   4.887  10.222  13.589 -0.0679  0.1403  0.0605
29997W        W43411  15.410   0.759   2.799  0.2431  0.2355  0.2504
29998W        W43412  11.852  11.726  11.136 -0.2598 -0.0573  0.0627
29999W        W43413   3.921  11.736   2.388  0.0413  0.2127  0.1464
30000W        W43414  15.351  10.100   0.631 -0.3063  0.2284  0.2306
30001W        W43415  13.923  10.020   1.870  0.2117  0.0683 -0.2569
30002W        W43416  11.127   0.232   3.938 -0.0392 -0.2886  0.0414
30003W        W43417   4.164   1.601  12.546 -0.0609 -0.0302 -0.1895
30004W        W43418   3.409  17.782   5.822  0.0711 -0.2827  0.2333
30005W        W43419   9.672  10.390  13.524 -0.1638  0.0790  0.0349
30006W        W43420   3.067   6.992  12.248 -0.0249  0.0105  0.0397
30007W        W43421  15.948   9.719   1.873 -0.2172 -0.0438 -0.0037
30008W        W43422   9.351  11.994   2.829  0.1461  0.0168 -0.1327
30009W        W43423   4.668   7.982   3.628  0.0581  0.1226 -0.0463
30010W        W43424  11.523  14.622  12.124 -0.0571 -0.1867  0.2900
30011W        W43425  13.232   7.656  11.445  0.1036 -0.0281 -0.2320
30012W        W43426  11.062  16.213  13.977 -0.1627 -0.2457  0.1571
30013W        W43427   2.995   8.365   3.135 -0.0025 -0.2040 -0.1728
30014W        W43428  18.166  13.592   0.807  0.2224  0.1760  0.0736
30015W        W43429   9.025   9.960  11.947 -0.0108  0.2151  0.0963
30016W        W43430  16.645  11.826  14.997  0.1642  0.0310 -0.1322
30017W        W43431  15.986   3.480  11.449  0.3080 -0.1954 -0.1570
30018W        W43432  15.866   1.114   3.256  0.1316 -0.2174  0.2911
30019W        W43433  15.368  16.797   2.524  0.3255 -0.0029 -0.2128
30020W        W43434  11.223   6.552  12.535  0.2363 -0.0051 -0.3046
30021W        W43435  16.786   0.071   5.142 -0.0238 -0.0748 -0.1614
30022W        W43436   0.375  14.834   5.484 -0.2010 -0.1102  0.0688
30023W        W43437   5.659  14.267  12.935  0.1926  0.1618  0.1518
30024W        W43438   9.226   5.370   0.433 -0.0012 -0.3523  0.1835
30025W        W43439   8.172  14.879  13.510  0.0902  0.2301 -0.1781
30026W        W43440  16.774  15.406  14.793  0.0835  0.2746 -0.1881
30027W        W43441  12.107   2.367   1.185  0.1930 -0.2022  0.0344
30028W        W43442  14.924  11.511   4.665  0.3094 -0.0342  0.0006
30029W        W43443   3.554  17.286  12.896 -0.0033 -0.2260  0.2024
30030W        W43444  12.050   6.784  14.257 -0.1407 -0.1579  0.1733
30031W        W43445   8.213  12.285   1.212  0.2377 -0.0983  0.1332
30032W        W43446   3.054   6.357  15.279 -0.0215 -0.1779 -0.0783
30033W        W43447   9.633  10.334   4.110  0.0340  0.0823  0.3740
30034W        W43448  10.613  13.036   4.558  0.0545  0.0091  0.0293
30035W        W43449   6.720  16.304  14.999  0.1009  0.1397 -0.5048
30036W        W43450  14.911   3.112  12.131 -0.0208 -0.2203  0.2317
30037W        W43451  12.865   9.551  15.275 -0.1280 -0.1335 -0.0992
30038W        W43452  11.143   3.043   3.976 -0.2990 -0.1014  0.1953
30039W        W43453   6.758   1.397   3.984 -0.0544 -0.2939 -0.1690
30040W        W43454   3.770   9.251   4.747  0.2723  0.0242  0.0829
30041W        W43455   7.402  16.432   2.823  0.0497  0.0590  0.0880
30042W        W43456  10.055   7.075  14.479  0.5428 -0.2969 -0.1007
30043W        W43457  12.539   3.054   4.461 -0.2123  0.0233  0.2131
30044W        W43458   0.465   3.097  15.425  0.0403  0.1027  0.1308
30045W        W43459   2.364  11.923  14.246 -0.2277  0.1257  0.1287
30046W        W43460   4.080  14.395  10.418 -0.1849  0.0296 -0.1123
30047W        W43461  16.259  13.810  16.015 -0.2172 -0.1761 -0.1797
30048W        W43462  13.386   1.957  13.136  0.1610  0.2398 -0.1874
30049W        W43463   4.744  16.163  13.845 -0.0233 -0.2758  0.1834
30050W        W43464   5.684   5.423  14.672 -0.1379  0.4944 -0.1551
30051W        W43465  10.621   6.734  15.954  0.0064 -0.3417 -0.2825
30052W        W43466  16.727  13.032   3.672  0.2227  0.3119  0.1534
30053W        W43467  16.033   5.244  12.411 -0.1191 -0.1140  0.1529
30054W        W43468  12.216  12.793   6.525 -0.0233  0.2783 -0.1907
30055W        W43469  10.424  10.153  15.870 -0.1021  0.3042 -0.3361
30056W        W43470   6.567  17.709   2.127 -0.0864  0.0209  0.0313
30057W        W43471  16.912   1.459   3.765 -0.1738 -0.3855 -0.0059
30058W        W43472  13.304   7.636  12.917 -0.1978  0.0966  0.1244
30059W        W43473  11.483  13.633   3.290 -0.0349  0.3013  0.0283
30060W        W43474   2.484  13.698  11.142  0.1753  0.1584 -0.0031
30061W        W43475  17.232  12.627  13.097 -0.3864  0.0127 -0.1247
30062W        W43476  14.173  10.813  12.171 -0.1121  0.2876  0.1771
30063W        W43477   2.923   9.609   4.773  0.0198  0.0748 -0.1582
30064W        W43478   1.043   3.181  11.464 -0.0388  0.0442 -0.2384
30065W        W43479   9.493   5.831  12.747 -0.6174  0.3008  0.0157
30066W        W43480   3.115   1.629  15.855 -0.0717 -0.1588  0.2300
30067W        W43481   5.793  15.243  15.649  0.1176  0.0037  0.0770
30068W        W43482  15.764   6.745   4.129  0.1243 -0.0377 -0.2035
30069W        W43483  16.758   7.341   3.636  0.1626 -0.0652 -0.0206
30070W        W43484   7.443   0.833  13.042 -0.1255 -0.0554 -0.2873
30071W        W43485   4.014  17.563   3.252 -0.0571  0.4020 -0.2574
30072W        W43486  16.304  15.060   5.288  0.2246  0.0223  0.0927
30073W        W43487   6.586  11.552  15.440 -0.3138 -0.0160 -0.3600
30074W        W43488  17.628  17.656  14.006 -0.1435  0.1842 -0.0925
30075W        W43489   1.519   5.244   4.798 -0.0285 -0.2102 -0.1193
30076W        W43490   1.638   7.449   6.639  0.1178 -0.3676 -0.3590
30077W        W43491  12.063   7.610  12.409  0.0407  0.1061  0.3350
30078W        W43492   7.679   3.388   1.858  0.1255 -0.0242 -0.0849
30079W        W43493  10.505   9.013  14.017  0.0872  0.2761  0.1016
30080W        W43494   8.388  16.248  13.294 -0.0709  0.1015  0.4807
30081W        W43495  14.626   7.919   4.670  0.3514  0.0178 -0.2225
30082W        W43496  10.240   6.625  13.924 -0.1100 -0.1570  0.2654
30083W        W43497  16.565  15.167  11.913  0.1123  0.0801  0.1364
30084W        W43498  11.921   5.096  14.239 -0.4097  0.0035  0.0183
30085W        W43499  11.823  16.381  10.674  0.1967 -0.0559 -0.1362
30086W        W43500  11.241  11.130  14.262 -0.3983 -0.1083  0.1647
30087W        W43501  10.772  13.845   0.838 -0.0566  0.0452 -0.0526
30088W        W43502   1.918   3.503   1.077  0.0222 -0.0944 -0.2260
30089W        W43503   6.382   5.255  11.536  0.1349 -0.1202  0.3931
30090W        W43504   2.883  12.722   3.561  0.2547 -0.1683  0.0201
30091W        W43505   8.379   2.508   3.291 -0.0989  0.3332  0.2031
30092W        W43506  10.472  16.259   2.007 -0.3787 -0.0753  0.1437
30093W        W43507  10.910  11.563  16.326 -0.0021 -0.1440  0.2609
30094W        W43508  17.326   2.181   1.267  0.4344 -0.3448 -0.0364
30095W        W43509   9.535   7.453   0.994  0.0408  0.2284 -0.1542
30096W        W43510  15.780   3.389   0.727 -0.3355 -0.0687 -0.0812
30097W        W43511   7.503   6.756   1.642  0.1314  0.3555  0.2178
30098W        W43512  16.880  14.492  16.352 -0.3091 -0.2370  0.0848
30099W        W43513   2.532   5.015   3.858 -0.1500  0.2133 -0.0294
30100W        W43514   9.446   4.745   3.515  0.2656  0.0644  0.0167
30101W        W43515   4.939   5.733  15.732  0.0076  0.2052 -0.2711
30102W        W43516   3.828   4.285   2.647  0.1329  0.1301 -0.1384
30103W        W43517   4.787   4.000   2.643  0.0900  0.1112 -0.1836
30104W        W43518  11.239  17.535  14.912 -0.0800  0.2318  0.2324
30105W        W43519  13.276  12.728   1.620 -0.0441 -0.0621 -0.1764
30106W        W43520   4.678  18.095   5.383  0.2837 -0.0805 -0.0744
30107W        W43521   0.043   7.860  13.763  0.1615  0.1615  0.1898
30108W        W43522   3.523   2.309  11.200  0.1110  0.2731 -0.0104
30109W        W43523   1.587   5.113  12.230 -0.3930  0.2971  0.1416
30110W        W43524  17.081   3.242  12.319  0.1467 -0.1275  0.0031
30111W        W43525   5.903   1.136  11.389 -0.2196 -0.0856  0.1730
30112W        W43526   0.697   3.958  12.611 -0.0824 -0.0718  0.1958
30113W        W43527   0.279   9.305   3.644  0.0246  0.1802  0.5733
30114W        W43528   4.193   1.224  12.947 -0.1063 -0.3087 -0.0959
30115W        W43529  11.834  16.995   4.146 -0.1953  0.0086  0.2410
30116W        W43530  16.628  13.783   0.037 -0.0736 -0.0033  0.0882
30117W        W43531   6.264  15.141  15.748  0.0264  0.0253 -0.2802
30118W        W43532   3.879   0.974  14.743  0.2121  0.0340  0.2217
30119W        W43533  11.510  13.783   3.764 -0.1644 -0.1622  0.3717
30120W        W43534   4.874   7.592  15.407 -0.4006 -0.0298  0.1696
30121W        W43535  15.645   2.140   1.677 -0.0447 -0.2094  0.3165
30122W        W43536   6.830   7.779  11.351  0.2570 -0.1208  0.2561
30123W        W43537  18.085   9.580  11.345  0.3277 -0.0914 -0.2078
30124W        W43538  12.879  13.666   9.939  0.0310 -0.1518  0.0400
30125W        W43539  11.171  14.513   4.224  0.1898 -0.0447  0.1542
30126W        W43540   7.748  16.472  13.426 -0.2467 -0.0210 -0.2071
30127W        W43541   2.367   6.285   4.165  0.2583  0.0792  0.0367
30128W        W43542  14.486   7.906  15.433  0.0468  0.0181 -0.0118
30129W        W43543  17.712  16.367  15.755  0.0070  0.2536  0.0216
30130W        W43544   8.462  16.292  15.951  0.0544  0.0189  0.0376
30131W        W43545   1.945  15.644  14.760 -0.0461 -0.0771  0.0239
30132W        W43546   6.673  15.424   1.754  0.0233 -0.1936 -0.0851
30133W        W43547  11.228   1.825  12.552 -0.3815 -0.2544 -0.0969
30134W        W43548  16.020  10.858   5.904 -0.1046 -0.1687 -0.0857
30135W        W43549  14.246   0.273   2.223  0.3794  0.0567 -0.0894
30136W        W43550  15.842   0.093   1.873 -0.0336 -0.0557  0.1027
30137W        W43551   4.747  15.147   1.115 -0.2107  0.3064 -0.1929
30138W        W43552   7.262  10.706   0.858 -0.0427 -0.0100  0.0660
30139W        W43553   9.810   7.155   4.448 -0.1944  0.1475  0.1049
30140W        W43554  15.377   4.259   1.829 -0.0974  0.2459  0.2318
30141W        W43555  12.936   2.011   5.173  0.0104 -0.1752 -0.3091
30142W        W43556  11.656   7.135   2.163 -0.1317 -0.1086 -0.3985
30143W        W43557   1.744  17.294  13.711 -0.1063 -0.0729 -0.0021
30144W        W43558  12.811  12.401   0.354 -0.0869  0.1096 -0.3034
30145W        W43559  16.975   3.915   1.393 -0.1618  0.0555  0.1552
30146W        W43560   4.600   9.381   6.240  0.2565  0.2179 -0.1360
30147W        W43561  10.428  10.187  12.921  0.1943  0.0478 -0.0253
30148W        W43562   4.190   7.975   4.543  0.1309  0.2435  0.0364
30149W        W43563   7.571  11.320  12.225 -0.1083 -0.0947 -0.2256
30150W        W43564  11.482   7.681  12.427  0.0878 -0.1446 -0.3595
30151W        W43565   7.144  11.632   0.645 -0.0439  0.1209  0.3861
30152W        W43566   8.364  14.680  14.975 -0.0081 -0.1260  0.0701
30153W        W43567   8.522   5.045   0.628 -0.1712  0.1215  0.0285
30154W        W43568   6.369   3.607  12.919 -0.1275 -0.3711 -0.1473
30155W        W43569   9.651  17.396   4.838  0.1383  0.1940  0.0715
30156W        W43570   8.534   0.581  11.146 -0.0497  0.1191 -0.3508
30157W        W43571   6.628   0.009   0.052  0.1778 -0.0398  0.3328
30158W        W43572  10.983  10.694   1.476 -0.2424 -0.2478  0.1215
30159W        W43573   4.856   6.822   3.051 -0.2292 -0.3218 -0.1450
30160W        W43574  11.876   4.229   2.149 -0.4617 -0.1103 -0.0866
30161W        W43575  14.556  10.961  14.974  0.0935 -0.0751 -0.2001
30162W        W43576   3.825  17.451  13.347 -0.1890 -0.0105  0.0575
30163W        W43577   8.387   5.270  14.251  0.1828  0.1771 -0.1896
30164W        W43578   4.122   7.153  15.462 -0.1230 -0.0982 -0.1225
30165W        W43579  10.800  11.852  11.129  0.1819 -0.1643  0.0713
30166W        W43580   8.770  16.663  11.722  0.1501  0.2290 -0.0314
30167W        W43581   8.987  10.563   0.264 -0.2821  0.2943 -0.1236
30168W        W43582   7.305   1.333  15.769 -0.4021 -0.1286  0.1022
30169W        W43583  11.849  16.899   1.732  0.1180 -0.0545 -0.2795
30170W        W43584  11.102  10.576  11.299 -0.1352  0.0047 -0.0097
30171W        W43585   7.673   8.481  14.608  0.4061 -0.1409  0.1543
30172W        W43586   6.312  17.799   1.447  0.0170  0.0618 -0.1519
30173W        W43587  18.007   1.117  14.711  0.2012  0.0354  0.0151
30174W        W43588   2.259   3.498  10.414 -0.2469 -0.1179  0.2597
30175W        W43589  13.566   3.303   5.115 -0.1676  0.2038  0.2361
30176W        W43590   7.522   5.827  11.253  0.1253  0.0863  0.1248
30177W        W43591  13.699  10.590   4.600 -0.2964  0.1391 -0.0931
30178W        W43592  18.206   6.690   2.818  0.0590 -0.2111  0.0957
30179W        W43593   1.653   6.590  14.449  0.0100 -0.0579  0.0525
30180W        W43594  14.996   0.278  15.816 -0.2691 -0.3523  0.2677
30181W        W43595  11.181  16.546   4.085 -0.1824 -0.0556 -0.1323
30182W        W43596   2.291  12.926   1.189 -0.2799 -0.0838  0.2846
30183W        W43597   6.770  14.702   5.962 -0.0105 -0.0089 -0.2406
30184W        W43598   4.979   9.627   3.577  0.0173 -0.4136 -0.2795
30185W        W43599  11.704   9.078   5.491 -0.2373 -0.4020 -0.0055
30186W        W43600   5.045   8.856  11.111 -0.1248 -0.1551  0.3161
30187W        W43601  14.650  12.872  11.218  0.1488  0.0272 -0.2042
30188W        W43602  14.870  11.923   3.765  0.0049  0.0468 -0.0458
30189W        W43603   3.152   5.933  15.500 -0.0128 -0.1250 -0.0440
30190W        W43604  15.656  15.023  12.661  0.2060  0.1575  0.0335
30191W        W43605  18.011  17.432  13.842 -0.1213  0.0774  0.0867
30192W        W43606   5.591   5.481  11.491 -0.1096  0.2744  0.3123
30193W        W43607   9.187  14.132  15.707 -0.0043 -0.3302 -0.0403
30194W        W43608  10.115   5.498   4.995 -0.1918  0.1493 -0.2340
30195W        W43609   2.313  16.217  16.357 -0.0998 -0.1369 -0.1389
30196W        W43610  15.389  12.516  12.030 -0.0901  0.2664  0.1413
30197W        W43611   6.125  11.562  11.357  0.2256 -0.0794 -0.0552
30198W        W43612   2.835  12.888   4.369 -0.3067 -0.1760  0.1411
30199W        W43613   9.266  13.381   3.962  0.0832 -0.3853  0.1175
30200W        W43614   7.816   4.874   6.087  0.0019  0.2064  0.2931
30201W        W43615  14.313  13.407   1.232 -0.0965 -0.1959 -0.0486
30202W        W43616  11.142  17.311   1.292  0.1738  0.0901  0.0998
30203W        W43617  11.794   5.329   0.498  0.0316 -0.2324 -0.2235
30204W        W43618  11.387   5.858  10.759 -0.1418 -0.1326 -0.2224
30205W        W43619   1.568  14.275  13.357 -0.2087 -0.0306  0.0618
30206W        W43620   0.263  13.893   0.606 -0.1937  0.0261 -0.2606
30207W        W43621  12.286  11.761  15.259 -0.0115 -0.0779 -0.5773
30208W        W43622   8.482  16.452   4.935 -0.1681  0.1531 -0.0694
30209W        W43623  17.299   4.513  13.962 -0.0080  0.0706  0.0234
30210W        W43624  17.137  17.258  12.310  0.0634  0.1602 -0.1171
30211W        W43625   2.877   3.552   1.627  0.2506 -0.0255  0.0994
30212W        W43626  16.436  15.286  10.975 -0.1543 -0.1806 -0.0396
30213W        W43627  15.141   8.561  14.938  0.0212 -0.3019 -0.0440
30214W        W43628  10.482   7.072   5.342 -0.1758 -0.1108  0.0015
30215W        W43629   5.437   8.822  15.853 -0.1734  0.1563  0.0814
30216W        W43630  15.161  16.799   3.982 -0.2553  0.2193 -0.3292
30217W        W43631   9.727  13.108  16.077 -0.3532  0.0932  0.0787
30218W        W43632   4.279  13.987   3.942 -0.0566 -0.0933  0.2575
30219W        W43633   1.719   0.010   2.687 -0.1284  0.1846 -0.0322
30220W        W43634  14.318  15.543  12.095  0.0675  0.1266  0.0780
30221W        W43635  10.245   7.818  16.460  0.0448  0.1190  0.1956
30222W        W43636   7.128  16.100  15.155 -0.2662 -0.2616  0.0224
30223W        W43637   6.129   8.401   1.010  0.0249  0.0415  0.0456
30224W        W43638   7.015  17.058  11.188  0.4021 -0.0122 -0.1790
30225W        W43639   6.702  12.455  12.104  0.0367 -0.0052 -0.0339
30226W        W43640   0.786   3.177  13.974  0.0586  0.2142 -0.1750
30227W        W43641   2.125   7.547  15.978  0.2406 -0.2762 -0.1883
30228W        W43642   6.481  15.966  13.532  0.2730 -0.1755 -0.4068
30229W        W43643  17.851  15.557  15.445 -0.0895  0.1125  0.1714
30230W        W43644  18.002  15.492   0.285 -0.0095 -0.0542  0.0222
30231W        W43645   2.115  15.180  14.513  0.0681 -0.0332 -0.1878
30232W        W43646  13.100   2.634  16.399  0.0424  0.0103  0.1668
30233W        W43647   1.522   9.877   2.946 -0.2922  0.0971 -0.0656
30234W        W43648   8.330   0.367   3.614 -0.0798 -0.2058 -0.2241
30235W        W43649  17.199  10.876  13.607 -0.2851 -0.1714  0.2130
30236W        W43650   0.392  11.451  10.467 -0.0181 -0.3033 -0.2696
30237W        W43651  13.460  12.968   2.735 -0.1015 -0.5165  0.0924
30238W        W43652  15.965  17.580   4.455  0.1951  0.3111  0.3102
30239W        W43653  10.209  11.376   2.667 -0.2193  0.1219  0.0167
30240W        W43654   0.874   7.273   4.647 -0.0635 -0.3115 -0.0214
30241W        W43655  15.519   3.034   6.080 -0.2583 -0.0867  0.0015
30242W        W43656  10.644   6.850   6.312 -0.3889  0.1704 -0.0346
30243W        W43657   0.051   3.947  14.928  0.2638 -0.1641  0.0347
30244W        W43658   8.012  17.190  12.994  0.0584 -0.2380  0.0177
30245W        W43659   3.958  17.731   2.410 -0.1317  0.3970  0.0890
30246W        W43660  12.885  10.836   5.929  0.0709  0.3287  0.2862
30247W        W43661  17.560  14.791   0.150 -0.1766 -0.2005  0.3265
30248W        W43662   2.397  10.932  14.904 -0.0309  0.1808  0.0873
30249W        W43663  17.444  10.780   2.615 -0.1595  0.0585  0.4968
30250W        W43664   5.654   9.998  14.678 -0.1208  0.1289  0.1288
30251W        W43665   4.131   4.662  14.690  0.0640 -0.3814 -0.0208
30252W        W43666   3.460   0.313  13.565 -0.0221 -0.1507  0.0446
30253W        W43667   7.536   5.704   3.889 -0.0993  0.0388  0.0807
30254W        W43668   1.060   4.975  13.454  0.0417  0.3317 -0.4281
30255W        W43669   3.003   5.577   4.009  0.0282 -0.0601  0.1617
30256W        W43670  18.099  16.551   3.750  0.0420 -0.2234 -0.0420
30257W        W43671   5.342   9.020   0.417  0.0535  0.0911  0.1194
30258W        W43672  12.021   9.995   1.035  0.3983  0.0058 -0.0964
30259W        W43673  10.894   7.153  16.157  0.0283  0.0407 -0.0738
30260W        W43674  16.495   0.079  11.440  0.0585  0.0044  0.1759
30261W        W43675  16.341   7.492   3.340 -0.0996  0.0163 -0.1746
30262W        W43676   6.408   0.795  14.906 -0.0464 -0.0587 -0.1180
30263W        W43677   7.638  18.001  10.194  0.1295  0.2722 -0.1135
30264W        W43678   0.708  11.981  11.112  0.2685  0.2499 -0.0854
30265W        W43679   0.440  15.557   1.037 -0.1707 -0.1451  0.4531
30266W        W43680  10.557   7.624   3.566 -0.1501  0.0475  0.2022
30267W        W43681   5.740   3.366  16.047  0.1416  0.0008 -0.0544
30268W        W43682   6.760  10.671   0.726 -0.5808 -0.1415  0.0868
30269W        W43683  12.129  17.726  15.856  0.1225 -0.0912  0.3849
30270W        W43684   7.242  15.564   2.167  0.1724 -0.2276 -0.1318
30271W        W43685   3.763   4.441  16.408 -0.0584  0.1196  0.0653
30272W        W43686   0.207  14.757  14.858  0.0857 -0.0534 -0.0940
30273W        W43687  12.421  11.731   1.916  0.0918  0.0710  0.0693
30274W        W43688  14.448   5.960   2.763 -0.0859  0.1921 -0.1706
30275W        W43689  16.614   0.799   0.434 -0.0631 -0.1779  0.0124
30276W        W43690  14.197   3.718   0.220  0.1055  0.1544  0.2085
30277W        W43691  17.139   8.811  14.458 -0.3154  0.0572  0.0546
30278W        W43692  14.895   4.876   5.220 -0.0957  0.1550  0.3058
30279W        W43693   3.888  14.806  12.059 -0.1870 -0.0708 -0.2820
30280W        W43694  16.938  17.559  16.503  0.2589  0.1641  0.1103
30281W        W43695   1.625  10.882   4.464 -0.0555 -0.1382  0.3274
30282W        W43696  16.072   4.045  10.111 -0.1289  0.2075 -0.0480
30283W        W43697  14.179   2.104  13.476 -0.1501 -0.0970  0.1368
30284W        W43698  10.760  12.307  15.951 -0.3742  0.1425  0.1059
30285W        W43699   3.888   9.658   1.256 -0.0376  0.0774 -0.0380
30286W        W43700  11.114   1.913   4.277  0.1971 -0.0805  0.2208
30287W        W43701   1.040   6.921  12.533 -0.0077  0.0170 -0.0909
30288W        W43702   2.789   7.979  14.514  0.2570  0.1930  0.0063
30289W        W43703  17.925  15.812  16.400  0.3359  0.0050 -0.1112
30290W        W43704  13.166  12.686  12.533  0.2222  0.0240  0.0938
30291W        W43705   2.575  15.083  14.746  0.2222  0.1817  0.1650
30292W        W43706  15.865   7.057  10.468 -0.0379 -0.0023  0.2730
30293W        W43707  10.239   3.952   0.823 -0.0267 -0.1216  0.1317
30294W        W43708  12.372  16.274  15.524 -0.3005  0.1408  0.0916
30295W        W43709  12.238  13.681   2.058  0.1534 -0.2024  0.0086
30296W        W43710   3.996   7.466  12.365 -0.1545  0.2778  0.1551
30297W        W43711   5.791  15.387   1.062  0.0307 -0.2051  0.2009
30298W        W43712  18.052   5.620  12.919  0.0280  0.0752  0.0373
30299W        W43713   8.552   9.072  13.500 -0.3778  0.0032  0.0583
30300W        W43714  11.369  14.254   4.595  0.2277  0.3082 -0.0893
30301W        W43715  14.330  18.161  13.460  0.0803  0.0012 -0.1452
30302W        W43716  12.575  11.071  12.873  0.0097 -0.1770 -0.0514
30303W        W43717   1.344  18.161  13.725  0.0200 -0.1661 -0.0871
30304W        W43718   3.279   5.135  15.939 -0.1761 -0.2411  0.1514
30305W        W43719  18.063   6.734   1.299 -0.4064  0.0454 -0.0262
30306W        W43720   7.086  10.940  14.552 -0.1142  0.2202 -0.0186
30307W        W43721  15.142  13.179  13.185  0.2668 -0.1072  0.1022
30308W        W43722   2.468  15.950  11.652 -0.0970  0.0391 -0.0007
30309W        W43723  13.245   5.496   4.004  0.2013  0.1202  0.0740
30310W        W43724  11.638   3.701   1.143 -0.1104 -0.0414  0.0498
30311W        W43725  13.438  10.507  11.481 -0.0605  0.1365  0.0869
30312W        W43726  14.079   0.040  10.133 -0.0968 -0.0097 -0.2806
30313W        W43727   7.422   2.980   4.270  0.1591 -0.0608  0.0902
30314W        W43728   4.539  12.480   5.199  0.0116  0.3644 -0.1289
30315W        W43729  11.466  17.574   1.585  0.0350  0.3783 -0.0496
30316W        W43730   1.214   8.674   1.472  0.0007 -0.0919  0.1717
30317W        W43731   1.598  10.550  16.401  0.0107  0.1588  0.0201
30318W        W43732   5.924   2.595   5.076  0.1730 -0.0301  0.3599
30319W        W43733  17.546   8.484   4.337  0.2532 -0.1945 -0.0956
30320W        W43734   0.650   2.000   1.052 -0.0857  0.0290  0.1761
30321W        W43735   2.340  15.887   4.613  0.0077 -0.2245  0.0162
30322W        W43736  11.529   2.924  15.977  0.1116 -0.4688 -0.0517
30323W        W43737   0.221  14.940   2.229  0.3120 -0.1569  0.2071
30324W        W43738  13.764   2.683   1.953  0.2643 -0.0243 -0.3009
30325W        W43739   9.073   8.711  13.056  0.2211 -0.2752 -0.1554
30326W        W43740  13.302  17.879   4.645 -0.0593 -0.0550 -0.0077
30327W        W43741  11.475  14.124  15.741 -0.1764  0.2083  0.0066
30328W        W43742   7.028   7.371  10.086 -0.0285  0.0182 -0.0822
30329W        W43743   1.131  17.474   1.726 -0.0359  0.0610  0.0229
30330W        W43744   6.036   2.538  12.537 -0.1367 -0.1735 -0.0727
30331W        W43745   0.779  17.079   5.012  0.1328  0.2534 -0.2168
30332W        W43746  13.070  17.934  10.569 -0.0993  0.1048 -0.1298
30333W        W43747   8.264   7.387   2.051 -0.0552 -0.1187 -0.2630
30334W        W43748  17.672  12.576   2.307  0.1335 -0.1906 -0.0878
30335W        W43749  11.145  18.087   2.503 -0.1890 -0.2884 -0.1643
30336W        W43750  12.221   9.190   3.319  0.0505 -0.1659  0.1182
30337W        W43751   1.668  10.859  11.069  0.2082  0.0084  0.1715
30338W        W43752   1.918   7.051   3.827  0.0218  0.1589  0.2629
30339W        W43753  12.283  12.725   2.795 -0.0977 -0.0266 -0.1412
30340W        W43754   0.182   8.786  15.448  0.2827 -0.2531  0.2972
30341W        W43755   3.057   7.632   1.483  0.3293 -0.1156  0.1674
30342W        W43756   7.321   8.928   4.028 -0.1268 -0.0441 -0.1905
30343W        W43757   2.608  10.042  13.492  0.1879 -0.3282  0.0048
30344W        W43758   7.846  11.378   3.397  0.0055  0.2060 -0.0604
30345W        W43759  12.093  15.913   0.807  0.4258  0.3963  0.0605
30346W        W43760   0.297   5.088   2.779 -0.0601  0.0657  0.2028
30347W        W43761   4.159   6.174   3.192  0.0622  0.0192  0.2032
30348W        W43762  14.158  14.875   3.361  0.0307 -0.1253  0.0729
30349W        W43763   2.393  12.760   3.405 -0.0659  0.0777 -0.1273
30350W        W43764  13.867  10.594   2.101  0.1341  0.0690  0.2918
30351W        W43765   3.559   6.969   1.777  0.2965  0.1564  0.1041
30352W        W43766   7.549   8.444  10.378 -0.0608 -0.1976  0.2909
30353W        W43767   2.474   8.597   6.123  0.1438 -0.1973  0.0180
30354W        W43768   7.461  12.350  11.255 -0.1697 -0.1056  0.0284
30355W        W43769   2.168   2.866  14.867  0.0689 -0.0682  0.0285
30356W        W43770  17.142   1.625  14.735  0.0925 -0.0310 -0.0349
30357W        W43771   5.799   5.646  11.973  0.1600 -0.1633  0.0618
30358W        W43772  15.736  16.241   0.872  0.0717  0.2106  0.0456
30359W        W43773  12.140   8.722  13.220 -0.0443  0.1766 -0.2154
30360W        W43774  10.170   2.650   0.609  0.0164  0.0326  0.0059
30361W        W43775   1.542   5.696   2.018 -0.0099 -0.0338 -0.0758
30362W        W43776   9.380   5.233  10.566 -0.1198  0.1125  0.2809
30363W        W43777  17.170   7.610  15.552  0.2147  0.0570 -0.2493
30364W        W43778   4.720  12.822  14.217  0.4074  0.0605  0.0188
30365W        W43779   6.850   3.029   0.280  0.1019 -0.0987 -0.0802
30366W        W43780   2.749   3.585  14.571  0.0788 -0.0936 -0.0262
30367W        W43781   1.656   9.268   2.169 -0.0993  0.0491 -0.1273
30368W        W43782  12.385   3.376  11.502 -0.1350 -0.0156 -0.0813
30369W        W43783   4.160  11.211  11.851 -0.1678 -0.2889  0.1598
30370W        W43784   3.407   6.172  12.407  0.2518  0.0273  0.0090
30371W        W43785  13.046  10.537   5.517 -0.0169 -0.0602  0.1235
30372W        W43786  16.782  14.986  16.453  0.2009 -0.2511  0.0294
30373W        W43787  14.206   4.347   1.231 -0.3677 -0.0446  0.0414
30374W        W43788   5.461   6.292   3.588  0.1374  0.1119 -0.1434
30375W        W43789   1.262  16.397   3.783  0.3006 -0.1082  0.2779
30376W        W43790   2.710   6.013   2.712 -0.0989  0.1348 -0.0484
30377W        W43791   6.754   7.708  15.574  0.0301  0.0581 -0.0174
30378W        W43792   8.645   8.751  10.895 -0.0965  0.0475 -0.0927
30379W        W43793  12.571   7.925  11.338 -0.0307 -0.1400  0.0119
30380W        W43794  11.701  11.303  11.554 -0.1110  0.0292  0.0034
30381W        W43795  16.539  16.160  13.164  0.1003 -0.1370 -0.2000
30382W        W43796  11.736   9.810  15.998 -0.0771 -0.0392 -0.0124
30383W        W43797  15.913  16.762  14.229  0.2455  0.2182 -0.0531
30384W        W43798   9.764   4.318   2.594 -0.0272  0.0340 -0.0005
30385W        W43799   3.468  15.801  13.826 -0.1196 -0.0547  0.2125
30386W        W43800   4.299   4.112  14.994 -0.3785 -0.2355 -0.1265
30387W        W43801  13.621   9.727  15.914  0.0077  0.2546  0.0065
30388W        W43802   2.591   9.676  11.412 -0.0165 -0.2090  0.1974
30389W        W43803  17.309  10.997  15.437  0.0205 -0.1500 -0.4062
30390W        W43804   2.605   1.144   0.861  0.0910 -0.0874  0.1880
30391W        W43805   8.556  17.916  12.453 -0.2911  0.0408  0.1182
30392W        W43806   8.028   1.781   1.509 -0.1996  0.2141  0.1284
30393W        W43807  17.059  10.754  15.759 -0.1773  0.1531  0.0975
30394W        W43808   4.209   0.697   0.361  0.0132  0.2684  0.0137
30395W        W43809  16.217  14.257   4.961  0.1508 -0.0110 -0.1042
30396W        W43810  13.881   7.063  13.055 -0.2924  0.1391 -0.1920
30397W        W43811   5.702   8.415   3.119 -0.2529  0.0027 -0.1652
30398W        W43812   5.945  18.221  14.945 -0.1272 -0.2065  0.1402
30399W        W43813  10.689  16.559   4.882 -0.1145 -0.0671  0.0026
30400W        W43814  16.126  12.126  11.175  0.3685 -0.0064  0.1352
30401W        W43815  13.272   0.977   0.501  0.1136 -0.0713 -0.1697
30402W        W43816  15.469   8.056   0.014  0.0974 -0.0359  0.1340
30403W        W43817   9.380  16.841   0.579 -0.2073  0.0128  0.4301
30404W        W43818  13.421  11.606   3.701 -0.0290 -0.0571  0.1229
30405W        W43819  12.822  17.508  10.178 -0.3452 -0.2045 -0.3036
30406W        W43820  17.932  15.833   1.684 -0.2017 -0.0541  0.0421
30407W        W43821   4.009  18.045   4.214  0.2114  0.0343 -0.3045
30408W        W43822   4.160   8.146  10.969  0.3494  0.1945 -0.1562
30409W        W43823   5.180  10.532  11.682 -0.0396  0.0698 -0.2024
30410W        W43824   6.956   8.447   1.291 -0.1200  0.0410 -0.0296
30411W        W43825   9.980   8.855   4.069 -0.2033  0.1999  0.2679
30412W        W43826  13.394  14.180  13.171 -0.0942 -0.2075 -0.3512
30413W        W43827  16.056   1.063  16.240  0.2245 -0.1280 -0.2859
30414W        W43828  17.122  13.984  16.345  0.0640 -0.0365  0.0577
30415W        W43829   4.834   0.997  14.162  0.0702 -0.3254  0.1794
30416W        W43830  16.133  11.429   3.221 -0.1842  0.3267  0.1920
30417W        W43831  15.048   5.291   3.210 -0.3808  0.1167  0.0552
30418W        W43832   4.100  16.863   2.667 -0.1357 -0.0891 -0.0161
30419W        W43833  13.208  12.254  15.237 -0.0871  0.0196 -0.0630
30420W        W43834  11.245   4.844  15.476 -0.0862  0.1186 -0.2125
30421W        W43835   4.040   9.235  13.864 -0.0484 -0.0017  0.2457
30422W        W43836  10.860  15.870   2.057 -0.2301 -0.1111 -0.0921
30423W        W43837  16.799   0.396   5.556  0.2533  0.2952  0.2890
30424W        W43838   8.846   3.948   3.995 -0.0083  0.0372  0.1337
30425W        W43839  16.907   2.989   0.241  0.1850 -0.1236  0.0752
30426W        W43840  10.938  11.419   3.476 -0.0645 -0.0844 -0.0163
30427W        W43841  17.692   1.136  15.164 -0.1652  0.2484  0.0660
30428W        W43842  14.887   8.429   5.497  0.0403 -0.0020  0.1024
30429W        W43843   5.159  12.105  16.269  0.0802  0.0342 -0.0478
30430W        W43844   6.794  16.550  12.884 -0.0643 -0.1084  0.1702
30431W        W43845   8.675   6.940  10.772 -0.3987 -0.0221 -0.2445
30432W        W43846   6.020   2.395   3.869 -0.0881 -0.0835  0.0259
30433W        W43847   4.288   6.688   0.740  0.0200  0.2742  0.0913
30434W        W43848  11.272  11.987  15.793  0.1742 -0.1817 -0.1079
30435W        W43849  15.015   3.653   0.124 -0.0446 -0.0763 -0.1170
30436W        W43850  10.877   6.776   5.341  0.0694 -0.0738 -0.0120
30437W        W43851  13.937   8.279   4.894 -0.1723  0.1184 -0.0451
30438W        W43852   2.245   6.909   5.265 -0.2888  0.0179  0.0402
30439W        W43853  11.297  10.975   1.934 -0.0367 -0.3624  0.0609
30440W        W43854   1.159   7.176  15.766  0.1124  0.0892  0.2077
30441W        W43855   0.677  14.250  15.774 -0.1140 -0.0439 -0.2415
30442W        W43856   8.996  13.707   4.242 -0.1348 -0.4369  0.2130
30443W        W43857  16.908   2.853  13.448 -0.4277  0.1377  0.0331
30444W        W43858  17.056   8.454  10.981  0.1126  0.0104  0.3592
30445W        W43859   2.289   7.499  13.767 -0.1185  0.0270 -0.1373
30446W        W43860   7.747  14.601  13.399  0.0448 -0.0537  0.1814
30447W        W43861   9.902   4.633   1.274 -0.2122  0.1818 -0.1535
30448W        W43862  13.416  18.207   4.990  0.0520  0.0941  0.2157
30449W        W43863   7.374   7.700  14.002  0.0261  0.1422  0.0504
30450W        W43864  16.083   9.441  15.193  0.1232 -0.0078 -0.4841
30451W        W43865   7.213   1.849  15.533  0.0951 -0.0299 -0.1796
30452W        W43866   7.582  15.464   1.337 -0.0303 -0.5206 -0.1721
30453W        W43867   9.339   4.532   5.345  0.0995 -0.2720 -0.2932
30454W        W43868   7.617  17.012   5.102  0.0522  0.3969 -0.0131
30455W        W43869  11.532   0.600   0.763 -0.1237 -0.0327 -0.0175
30456W        W43870  13.980   2.899  13.099  0.2869  0.1299  0.0446
30457W        W43871  10.942  11.968  11.686 -0.0502 -0.0054  0.0200
30458W        W43872   4.037   9.824   3.940  0.3606 -0.0974  0.0051
30459W        W43873  13.347   7.479  12.133  0.1435  0.3299  0.1375
30460W        W43874   0.324  11.127   5.307 -0.1256 -0.0853 -0.3264
30461W        W43875   8.226   7.784   3.987 -0.0227  0.0394  0.4322
30462W        W43876  17.901  14.578  12.272 -0.1527  0.1133 -0.1226
30463W        W43877   0.913   2.523   1.719 -0.0178 -0.2488 -0.2995
30464W        W43878   7.383   0.036   5.904  0.1137 -0.0877  0.0595
30465W        W43879  14.167   5.057  14.214  0.1843 -0.2416 -0.2563
30466W        W43880   2.569   1.487   5.319  0.3655  0.0349 -0.0325
30467W        W43881   2.634   3.283   2.902  0.1561 -0.0670 -0.1508
30468W        W43882   3.423  15.997   4.181 -0.1239  0.1131 -0.0251
30469W        W43883  12.345   3.140   1.458 -0.4996 -0.3966  0.3036
30470W        W43884   0.753  14.687   4.195 -0.1208  0.2421  0.1027
30471W        W43885   1.995  13.362   4.513  0.1046  0.0116 -0.0148
30472W        W43886  14.682   7.664   6.265 -0.0582  0.1547  0.0825
30473W        W43887  10.792   8.358  16.188  0.0992  0.1312 -0.3037
30474W        W43888   2.609   9.424   4.397  0.0914  0.1683 -0.0389
30475W        W43889  11.867   8.214   1.011 -0.2979 -0.0706 -0.0754
30476W        W43890   4.463   6.357  15.861 -0.0504  0.3037 -0.2204
30477W        W43891   7.734   2.861   4.718 -0.0573  0.1923 -0.2182
30478W        W43892   3.469   5.375   6.284 -0.0546  0.2073  0.5673
30479W        W43893   1.237   7.300   3.058  0.1542  0.1050  0.1029
30480W        W43894  15.400   6.660   2.308 -0.0578  0.2368 -0.1225
30481W        W43895  17.556  16.435   2.808 -0.4123 -0.1261  0.0151
30482W        W43896   2.703  17.277   3.090 -0.0714  0.0157  0.0137
30483W        W43897   6.402  15.108   5.751  0.0009 -0.0018  0.2321
30484W        W43898   1.389  10.410   0.733 -0.0104  0.0778  0.2906
30485W        W43899  17.275  17.761   2.428  0.1678  0.1448  0.0183
30486W        W43900   3.963  14.822  15.978 -0.0558  0.2113  0.0259
30487W        W43901   9.143   5.084  11.360 -0.1589  0.0953 -0.3645
30488W        W43902  17.039  13.475   4.173 -0.2200  0.0495 -0.3439
30489W        W43903   4.034  11.366   4.229 -0.1524 -0.3334  0.0929
30490W        W43904   6.754   9.733   5.550  0.0197  0.2168 -0.0029
30491W        W43905   9.527   3.423   3.598  0.2234 -0.0159 -0.0634
30492W        W43906   9.168  13.553  10.648 -0.2564  0.1266 -0.0974
30493W        W43907  17.607  13.038   0.017 -0.1892  0.1110 -0.1354
30494W        W43908  13.435  15.097   3.041  0.5161  0.1655  0.1173
30495W        W43909  14.640   9.622  16.151  0.1749 -0.2184 -0.2049
30496W        W43910  11.535   3.175  15.094  0.1960 -0.0436  0.4335
30497W        W43911   5.075   3.073   2.925 -0.2930 -0.0976 -0.0602
30498W        W43912  16.530   2.482   1.306 -0.2952 -0.0297 -0.0386
30499W        W43913   9.194   3.451  15.800  0.1008 -0.2436 -0.1268
30500W        W43914  17.320  10.858   1.631 -0.1387  0.0807  0.1323
30501W        W43915  11.648   3.767  13.856 -0.3571  0.0104  0.2540
30502W        W43916  11.096   3.945  14.518 -0.0421  0.0215 -0.1938
30503W        W43917   2.048  13.383  13.917 -0.2226  0.3633 -0.1933
30504W        W43918  14.622   4.359   1.675  0.1687  0.1212  0.3091
30505W        W43919   9.524  11.502   4.040  0.0990 -0.1622  0.1515
30506W        W43920   1.888   4.713   6.691 -0.0116  0.1601 -0.0281
30507W        W43921   3.520  14.347   2.198 -0.3778 -0.0497  0.0601
30508W        W43922   1.025  10.777   0.619  0.0763 -0.2329  0.2363
30509W        W43923   5.332   9.584   0.462 -0.1583 -0.0727 -0.2547
30510W        W43924   9.243  12.034  12.379  0.1346  0.1188 -0.1601
30511W        W43925   3.760   5.113  14.561 -0.0627 -0.0467 -0.6775
30512W        W43926   2.736   6.685  12.980 -0.2728  0.1426  0.0890
30513W        W43927  13.240   1.436   3.208  0.1538 -0.0173  0.0779
30514W        W43928  16.656   3.613  14.562  0.1067  0.1795  0.3306
30515W        W43929   2.516   9.605  16.219  0.1393 -0.2976 -0.2772
30516W        W43930   2.301  13.544   4.843  0.2732 -0.3693 -0.0734
30517W        W43931  10.330   5.047   4.236  0.1190  0.2881 -0.2206
30518W        W43932   8.662  10.756  13.053  0.2470 -0.2395 -0.1647
30519W        W43933   7.289   6.551   0.274  0.3456  0.0908 -0.2209
30520W        W43934   2.798   9.619   3.146  0.1742 -0.2618 -0.0080
30521W        W43935   8.040   3.672   2.067 -0.1452  0.0428 -0.3495
30522W        W43936   9.235  15.111   4.205 -0.2603 -0.1708  0.0305
30523W        W43937  10.308  13.550  13.603 -0.0591 -0.1233 -0.0524
30524W        W43938   4.448   8.895   2.333  0.1734  0.1697 -0.2140
30525W        W43939   3.885  16.656  12.172  0.0080 -0.1100 -0.6059
30526W        W43940  14.399   7.297   6.464  0.1535  0.0427  0.1631
30527W        W43941   9.268   4.254   9.748 -0.3352 -0.0181  0.2343
30528W        W43942  17.787   4.756  11.403  0.2840 -0.2366  0.3450
30529W        W43943   3.090  10.371  13.132 -0.2685  0.3447  0.2450
30530W        W43944  15.568  15.478  13.012 -0.0566  0.0439  0.1979
30531W        W43945  10.327  15.326  11.775  0.0205 -0.2539 -0.0540
30532W        W43946   7.358   4.501  14.744  0.2829  0.0999 -0.1452
30533W        W43947   2.057   5.206   4.946  0.0698 -0.1808  0.2970
30534W        W43948   8.687   5.569   4.086  0.1938  0.0763 -0.1113
30535W        W43949   5.101   2.672   6.801  0.0838  0.0021  0.1328
30536W        W43950   2.566  16.573   0.048  0.1533  0.1553 -0.0230
30537W        W43951   7.470  13.099   0.728  0.1948  0.1708 -0.1066
30538W        W43952  15.549  14.630   0.041  0.0822 -0.2051 -0.2141
30539W        W43953   2.357   1.309  11.163 -0.2319  0.2059 -0.4537
30540W        W43954  11.231  13.332  15.028  0.1163  0.0906  0.3738
30541W        W43955   8.008   2.808  15.464 -0.1709  0.0980  0.1711
30542W        W43956  11.170   8.868   1.114 -0.1352  0.1950 -0.2647
30543W        W43957  14.853  16.916   5.993  0.2396 -0.0755 -0.0879
30544W        W43958   7.044   9.347  15.856 -0.1536 -0.0361 -0.2071
30545W        W43959   7.262  16.275   3.986  0.0774  0.0321  0.5000
30546W        W43960  17.946   6.145   1.474 -0.1600  0.4116 -0.0560
30547W        W43961  11.752   7.784   4.836 -0.5131 -0.1252  0.1682
30548W        W43962   0.296  11.139  11.463  0.3109  0.3320  0.0063
30549W        W43963  16.605   4.662  14.606  0.0746 -0.0571  0.0073
30550W        W43964  16.267   8.698  11.661  0.0142 -0.2364  0.0452
30551W        W43965  17.718  17.353   1.786  0.0297  0.2340  0.3340
30552W        W43966  12.485   7.949  11.997  0.1189  0.2079  0.0337
30553W        W43967  13.303  15.417  11.993  0.0361  0.2092  0.0379
30554W        W43968   4.618   5.880   3.278 -0.0303 -0.4043  0.0730
30555W        W43969   6.882   8.435  11.861 -0.1096  0.0775 -0.2085
30556W        W43970  15.739   6.746   1.354  0.0218 -0.3343  0.2381
30557W        W43971   8.722   0.079   9.385  0.0182  0.2979 -0.0586
30558W        W43972  11.393  14.095   5.599 -0.0477  0.0331  0.1368
30559W        W43973   3.560  11.798  12.149  0.1160  0.2998 -0.0797
30560W        W43974  13.339  10.561  15.597 -0.2682 -0.0652  0.0012
30561W        W43975   5.026  17.736  13.582 -0.2539  0.1707 -0.1892
30562W        W43976  13.510   6.831   6.762  0.1726  0.1194 -0.3408
30563W        W43977   5.632   6.187   0.570  0.2625 -0.0576  0.1169
30564W        W43978  17.029   2.798  16.060  0.1006 -0.1217  0.1085
30565W        W43979   2.387   1.105  13.912  0.0894 -0.1581 -0.3317
30566W        W43980  17.992  17.757  10.887  0.1477  0.1415  0.0149
30567W        W43981  18.161  10.429   2.905  0.2992  0.2224 -0.0123
30568W        W43982   5.363   8.064  15.961  0.0840  0.0306 -0.0928
30569W        W43983   3.753   9.908  15.732 -0.0976  0.1438  0.0871
30570W        W43984   6.072  13.228   3.510 -0.0393  0.0951  0.1026
30571W        W43985   8.334   6.517  11.102  0.1218 -0.0678  0.1724
30572W        W43986   0.941   5.160  15.377 -0.2211  0.0355 -0.1501
30573W        W43987   9.377  15.400   3.794 -0.0438 -0.1739  0.1499
30574W        W43988   9.832   9.704   5.607 -0.1532  0.1747 -0.1417
30575W        W43989  15.278  10.328   1.090  0.2340  0.4891 -0.0465
30576W        W43990  12.333   1.316   3.156  0.0220 -0.0357 -0.1619
30577W        W43991  10.788   9.409   3.841  0.2334 -0.2214 -0.0527
30578W        W43992   4.942  14.928   2.109 -0.3315 -0.0335 -0.1894
30579W        W43993   8.145  10.346  13.754 -0.0135 -0.1440  0.0249
30580W        W43994  10.877   6.001  12.232  0.1877 -0.0345 -0.3753
30581W        W43995   3.685   7.898   0.994 -0.3604  0.1942  0.1971
30582W        W43996  13.744   1.209   2.626 -0.1331 -0.0107 -0.1779
30583W        W43997  10.974   6.273   4.401  0.1792 -0.1956 -0.1275
30584W        W43998  18.116  10.429  15.867 -0.0806  0.0013 -0.0490
30585W        W43999   5.528  16.281  11.882  0.0180  0.1452  0.0912
30586W        W44000   0.223  12.088   2.885  0.1012 -0.0979 -0.2596
30587W        W44001   7.652  17.107  15.958 -0.0705  0.0604 -0.2616
30588W        W44002   4.359   1.660  13.055 -0.0573 -0.2345 -0.1125
30589W        W44003  11.970  17.909   5.128  0.2228  0.1045 -0.2411
30590W        W44004  14.628  13.735  13.592 -0.1717  0.3716  0.1752
30591W        W44005  13.691  10.176  15.726 -0.0088 -0.1823 -0.0286
30592W        W44006  15.435  11.212   2.552  0.0026 -0.2297  0.4049
30593W        W44007  13.532  17.568   4.210  0.0858  0.2157 -0.0707
30594W        W44008   2.405  13.858   4.442  0.5796 -0.2729  0.1729
30595W        W44009   5.540   1.788  11.489  0.1621  0.3672 -0.1373
30596W        W44010   8.006  12.675  11.998  0.1524 -0.1153 -0.0243
30597W        W44011  12.199  16.499  15.101  0.1267  0.0722  0.1730
30598W        W44012  14.906   2.779   0.807  0.1725 -0.0159 -0.0913
30599W        W44013   0.812  16.695  10.563 -0.2543 -0.0022  0.1188
30600W        W44014  11.545   3.355  10.427  0.4358  0.1148  0.1450
30601W        W44015  14.547   4.087   4.702  0.0482 -0.2734  0.0090
30602W        W44016  11.640  15.131   4.147  0.0016 -0.1464  0.0851
30603W        W44017  16.436   4.759   4.917  0.1314  0.1136  0.2921
30604W        W44018  12.147  13.894  13.624  0.1641 -0.2254 -0.2261
30605W        W44019  10.283  11.866   4.629  0.0239  0.2658 -0.1678
30606W        W44020  14.467  15.117   0.603  0.1067  0.2022 -0.1272
30607W        W44021  11.419  15.100   2.847  0.1720 -0.0518  0.2635
30608W        W44022   9.783  15.692   3.784 -0.1431  0.1358  0.0455
30609W        W44023  13.000   3.205   2.023 -0.0550 -0.1632  0.1679
30610W        W44024  16.697  14.363  10.339  0.0556  0.0577 -0.0787
30611W        W44025  12.741   9.120  15.851 -0.0195  0.1270 -0.0934
30612W        W44026  13.109  11.215  13.134  0.1352 -0.1947 -0.0988
30613W        W44027   9.384   8.184   1.565  0.1746 -0.2823  0.1451
30614W        W44028   5.838   5.659  15.111  0.0179  0.2331  0.1587
30615W        W44029   4.034   8.786  13.647  0.2181  0.2353 -0.0466
30616W        W44030   4.048  13.445   6.184 -0.0864  0.0798  0.3012
30617W        W44031   3.978  15.594  14.995 -0.0773  0.2517 -0.1626
30618W        W44032  14.616   4.894  12.213  0.1773  0.2162 -0.2401
30619W        W44033   6.944  10.907   0.277  0.1001 -0.1355  0.0276
30620W        W44034   4.733   4.015   5.906  0.1132 -0.2081  0.0380
30621W        W44035   0.934  12.313   1.375 -0.1244 -0.2416 -0.0990
30622W        W44036   2.758  10.016   4.512 -0.1535 -0.0090 -0.1446
30623W        W44037  11.549  10.099   0.928 -0.1483  0.2279 -0.0053
30624W        W44038   2.532  18.165   3.974 -0.2368 -0.0604  0.1156
30625W        W44039   0.791   9.863  10.742  0.2027 -0.2120  0.1645
30626W        W44040  14.879  12.597  10.882  0.0661  0.0353  0.3719
30627W        W44041  10.374   9.360  11.010 -0.0240 -0.0953  0.0205
30628W        W44042  12.425  12.426   3.733 -0.0324  0.1224  0.3936
30629W        W44043   7.872  17.520  16.191 -0.0548 -0.1105 -0.3080
30630W        W44044  16.293  10.470  15.022  0.0594 -0.2296  0.0099
30631W        W44045   9.803  18.166   0.934  0.2966  0.0628  0.1802
30632W        W44046   7.726   9.481   1.358  0.1359  0.3261 -0.1191
30633W        W44047  12.150   0.195  13.514 -0.0165  0.2260 -0.1389
30634W        W44048   8.748  12.422   0.020  0.1228 -0.0072  0.2309
30635W        W44049   7.519  12.510  14.542 -0.0967 -0.3144 -0.0127
30636W        W44050  16.992   6.447  12.060  0.0105 -0.0950  0.1120
30637W        W44051  15.181   4.350   3.343  0.0339  0.0130  0.0129
30638W        W44052   6.695   1.120  12.034 -0.1579  0.0109 -0.0284
30639W        W44053  14.696   0.412  14.258  0.0520 -0.0967 -0.1167
30640W        W44054   6.932  11.176   3.264  0.2756 -0.0132  0.0895
30641W        W44055  14.455  14.282   1.292 -0.0265  0.1671 -0.1671
30642W        W44056  10.485   6.587  13.018 -0.2226  0.3397  0.2281
30643W        W44057   8.510   8.088  13.976  0.0044 -0.2840 -0.0511
30644W        W44058   4.841  10.481   4.738  0.2291  0.0326 -0.2847
30645W        W44059   0.123  17.999   4.328 -0.0725  0.0027 -0.1121
30646W        W44060  16.170  11.684  14.609 -0.0402 -0.2267  0.0318
30647W        W44061   2.904  10.202   2.514 -0.3653  0.0180  0.3570
30648W        W44062   3.883  14.488  12.448 -0.1054  0.3514  0.0566
30649W        W44063  13.827  15.002   4.861  0.0965  0.0996  0.0649
30650W        W44064   0.780   7.126   2.175 -0.1739 -0.0720 -0.0815
30651W        W44065  18.023  13.685   2.095 -0.2079  0.3403 -0.1472
30652W        W44066   4.032  13.085   4.374 -0.2404 -0.3156 -0.0363
30653W        W44067   9.081   9.899  13.750 -0.2304  0.0069 -0.2526
30654W        W44068   0.394  17.123  10.654  0.0106 -0.2884 -0.0578
30655W        W44069  11.303   9.117   0.742 -0.0879  0.0490  0.1039
30656W        W44070  16.522   3.525   0.070  0.4632 -0.2183  0.0343
30657W        W44071   3.105  17.779   0.037  0.0237  0.0011  0.0855
30658W        W44072  15.430   7.851  12.313  0.1948  0.0792  0.1079
30659W        W44073   5.879  12.319   0.171 -0.0566  0.1227 -0.2502
30660W        W44074   4.224   6.489  13.260 -0.0058  0.1428 -0.2480
30661W        W44075   2.286   6.704   0.605  0.0290 -0.0374  0.2641
30662W        W44076   0.320   5.110  14.057 -0.2081  0.0904 -0.3199
30663W        W44077  11.427  16.036  12.141 -0.3600 -0.1599 -0.3925
30664W        W44078   7.421   7.809   4.566 -0.0823  0.0543  0.0271
30665W        W44079   0.920  15.140   3.971 -0.3327  0.4258 -0.2281
30666W        W44080   0.392  13.804   3.910 -0.0469  0.1319 -0.1200
30667W        W44081  13.949   2.076   9.926  0.0070 -0.0303  0.0353
30668W        W44082   0.064  13.933   4.350 -0.2312 -0.0326 -0.0103
30669W        W44083   9.514   0.813   4.956  0.0333 -0.0061  0.2095
30670W        W44084   1.942   2.086  13.635 -0.0431 -0.0059 -0.2012
30671W        W44085   2.975   5.388   1.027 -0.2527  0.3757 -0.1390
30672W        W44086   3.415  15.262  15.849  0.0250  0.3414 -0.0712
30673W        W44087  13.417  10.863   1.906 -0.2017  0.1691 -0.3458
30674W        W44088   1.684  11.050   0.037 -0.3076 -0.0977 -0.0836
30675W        W44089  12.117   8.165  12.453 -0.0150 -0.0634  0.2905
30676W        W44090   5.155   6.484  13.968  0.0729  0.1976  0.1328
30677W        W44091  16.607   1.151   0.021 -0.0370 -0.0710 -0.0077
30678W        W44092  14.288  11.716   5.262 -0.1566  0.2363 -0.2180
30679W        W44093   6.008   7.541   0.940 -0.0974  0.0585  0.0798
30680W        W44094   7.986  10.962   2.145  0.3967 -0.2558  0.2453
30681W        W44095   1.382  17.394   2.137 -0.3870  0.0920 -0.0199
30682W        W44096   9.579  16.935   2.829 -0.1370 -0.4873 -0.0769
30683W        W44097   8.212   4.178  15.252  0.0649  0.1791  0.0067
30684W        W44098   0.408  18.149  12.402  0.0076  0.1529 -0.0659
30685W        W44099  14.575  17.346   4.462  0.2372  0.0867 -0.1004
30686W        W44100  14.980  16.701  16.276  0.1737 -0.0557 -0.1845
30687W        W44101   5.836   9.341   3.317 -0.0660 -0.1410  0.2121
30688W        W44102   0.381   7.398  15.291  0.2102 -0.2237  0.0169
30689W        W44103   6.446   6.885   5.469  0.1802 -0.0886  0.0191
30690W        W44104  10.195  11.959  12.864  0.0938 -0.1724 -0.3168
30691W        W44105   3.525   0.473   2.540 -0.1946  0.1417  0.1445
30692W        W44106  18.071   9.398   4.474  0.1970  0.1758 -0.1528
30693W        W44107   9.856   6.484   0.831 -0.1730 -0.0308 -0.0272
30694W        W44108   8.346   9.204   5.802  0.0300  0.1050  0.1252
30695W        W44109   4.694   5.913  13.740  0.0488  0.2822 -0.0701
30696W        W44110   4.558  13.969   2.196 -0.2328  0.2322 -0.1733
30697W        W44111   3.761   2.227  16.181 -0.0280  0.0743  0.0768
30698W        W44112   0.763  10.551  11.244  0.0434  0.0166 -0.1380
30699W        W44113  15.425  13.244  12.111  0.0300 -0.0228 -0.0562
30700W        W44114   9.230  17.801  12.976 -0.0759 -0.1718 -0.2258
30701W        W44115  17.227  13.144  12.889 -0.0902  0.1001  0.1902
30702W        W44116  11.857   2.887  14.761  0.0957 -0.1433  0.1511
30703W        W44117  13.869   2.293   1.570  0.3136 -0.3401  0.0004
30704W        W44118   4.182   7.176   6.060 -0.1107 -0.1282 -0.1675
30705W        W44119  15.704  10.451   4.790  0.3880 -0.0256 -0.3498
30706W        W44120   0.556   5.975   2.909  0.1305 -0.0607 -0.2915
30707W        W44121   6.694   3.984   4.194 -0.0478 -0.2448 -0.1105
30708W        W44122   5.614  13.732   3.329 -0.0011 -0.5067  0.2785
30709W        W44123  12.066   5.267  16.249  0.0553  0.0558  0.0211
30710W        W44124  10.900   4.380  15.175  0.0248 -0.1202  0.1287
30711W        W44125   8.629   0.202   4.565  0.0586 -0.0923 -0.0679
30712W        W44126   4.421  15.083  12.791  0.2467  0.2743 -0.1282
30713W        W44127   3.109  10.735   4.242 -0.3593  0.1164 -0.0876
30714W        W44128   6.783  13.526  14.938  0.0643  0.0272  0.4332
30715W        W44129  17.922   1.212  13.616 -0.0312  0.1493 -0.0482
30716W        W44130   2.438   9.370   5.757 -0.0118  0.1596  0.0276
30717W        W44131  16.631   1.707   2.522  0.0482  0.2713  0.3426
30718W        W44132  12.824  15.896   5.038 -0.0166 -0.0390 -0.1592
30719W        W44133  13.298  15.095  12.938  0.1494 -0.1539  0.1253
30720W        W44134   3.240  10.579  14.744 -0.1580 -0.2184  0.0715
30721W        W44135  10.853  11.004  13.848 -0.0257 -0.0270  0.1608
30722W        W44136   1.099   1.083   2.079 -0.0598  0.3833  0.4092
30723W        W44137  16.295   8.009   2.250 -0.2222  0.0823  0.0445
30724W        W44138   3.755   7.772  15.165 -0.1199  0.2196  0.0458
30725W        W44139   6.107  10.884   5.622 -0.1949 -0.2007 -0.0809
30726W        W44140   8.661   2.914   3.099  0.1210  0.1579  0.1004
30727W        W44141   6.618   5.437  14.768 -0.4222 -0.0409 -0.2435
30728W        W44142   0.784   9.107   3.782  0.2305  0.0417  0.0577
30729W        W44143  17.085  11.127  16.287  0.1310 -0.4763 -0.1273
30730W        W44144   8.201   9.282   2.500 -0.0104 -0.1783 -0.0791
30731W        W44145   9.211   9.341   6.223  0.0681 -0.1716  0.1761
30732W        W44146  17.084   7.491   4.452 -0.0086 -0.1207 -0.1911
30733W        W44147   9.816  18.120   4.578  0.3493  0.1592  0.0028
30734W        W44148   6.763  12.362   5.552 -0.1155 -0.0821 -0.0630
30735W        W44149  13.682  13.842  11.001  0.2713  0.0834 -0.0489
30736W        W44150  12.522   6.265   3.832 -0.0421 -0.0113 -0.0737
30737W        W44151   1.935  12.759   5.775 -0.0194  0.2716  0.2012
30738W        W44152  17.404   6.845   0.481  0.1053  0.1890  0.0005
30739W        W44153   5.124   5.343  10.515  0.2461  0.1437 -0.1903
30740W        W44154  11.815  16.741  16.182  0.1877 -0.2656  0.1502
30741W        W44155  10.178  11.306  10.547 -0.2101  0.1556 -0.1401
30742W        W44156   4.311  17.242  11.637 -0.1680 -0.0552 -0.0890
30743W        W44157   8.610   3.407  14.964  0.0044  0.1196 -0.0570
30744W        W44158  13.908   3.265   4.269 -0.1033 -0.1794 -0.2169
30745W        W44159  13.768   1.135   9.735 -0.1982  0.1885 -0.0088
30746W        W44160  10.749   2.782  12.987  0.0044 -0.0439 -0.2157
30747W        W44161   8.758   7.946  10.888  0.2807  0.0765 -0.2105
30748W        W44162  16.638  15.080  12.489  0.2073 -0.0152  0.1346
30749W        W44163   2.134  17.272   2.901 -0.0071  0.0479 -0.2116
30750W        W44164  13.863   0.342  13.887  0.0236 -0.1646 -0.0763
30751W        W44165   4.510   0.086  15.126 -0.0455 -0.0995 -0.4081
30752W        W44166   6.886   2.884   4.224 -0.0105 -0.0129  0.0494
30753W        W44167  13.018   3.679   1.878 -0.1621  0.2336 -0.0877
30754W        W44168   7.936   7.626  10.468 -0.1709  0.1449  0.0143
30755W        W44169  11.093   9.177  14.069 -0.1472 -0.2389  0.0303
30756W        W44170   8.815  17.131  14.829 -0.2242 -0.0257  0.1335
30757W        W44171   5.208  14.281  12.208 -0.0233 -0.5204  0.2449
30758W        W44172   8.787   3.968  10.612 -0.1852  0.4169 -0.0263
30759W        W44173  13.971   9.140  16.515 -0.0551  0.0914  0.1940
30760W        W44174   4.855   6.135  14.217 -0.1711 -0.1803  0.2764
30761W        W44175  16.017  13.571   1.796 -0.0611 -0.1395  0.1166
30762W        W44176  14.085  13.378   2.091  0.1133 -0.2044 -0.0968
30763W        W44177  12.812  11.365   1.812 -0.3294 -0.1740 -0.0990
30764W        W44178  13.350   8.484  12.301  0.0130  0.0628  0.1565
30765W        W44179  13.966  10.592  11.361 -0.1246 -0.0885  0.0591
30766W        W44180   3.916   4.988   4.661  0.0370 -0.1930  0.0551
30767W        W44181  13.012   6.125   1.548  0.1200  0.2887  0.3950
30768W        W44182  14.243  12.099   4.439  0.0827 -0.3590  0.1895
30769W        W44183   4.767   7.288  14.907  0.0033  0.2842 -0.4953
30770W        W44184   6.643  16.018  11.499  0.0847  0.0354 -0.3049
30771W        W44185  12.326   9.361  11.922  0.0786  0.2811 -0.1839
30772W        W44186   8.208   7.419  13.484 -0.0849  0.6227  0.0579
30773W        W44187   1.307   3.141  13.211 -0.0568  0.1062 -0.0710
30774W        W44188   5.381  17.457  10.689 -0.1274 -0.0039  0.2420
30775W        W44189  16.078   8.508  14.316  0.0422 -0.2875  0.0299
30776W        W44190  17.975   9.932   5.177  0.1390  0.1038  0.0318
30777W        W44191   6.289   6.325   4.878 -0.2745 -0.2008 -0.0666
30778W        W44192   7.354   2.696   1.288 -0.4153  0.0652  0.0610
30779W        W44193  17.073  13.895  15.449  0.4430  0.0987  0.2711
30780W        W44194   6.863  17.474  12.625  0.0269  0.3128 -0.2622
30781W        W44195  16.232   1.004   2.341 -0.3270  0.0458 -0.2715
30782W        W44196  15.880   0.421   2.594 -0.1865  0.0881  0.1200
30783W        W44197  16.737  10.079  13.065  0.0714 -0.0847  0.1815
30784W        W44198   5.306  12.972  12.313  0.2264  0.0943 -0.0023
30785W        W44199   1.434  15.218   6.190 -0.1434 -0.0272 -0.2839
30786W        W44200  18.066   8.443   4.159 -0.0616  0.1877 -0.0331
30787W        W44201   6.083  14.780   2.760 -0.1169  0.1186  0.2188
30788W        W44202   1.650   2.253   5.487 -0.1616  0.2729 -0.2729
30789W        W44203   4.170   6.234  15.000  0.1304  0.1471 -0.0286
30790W        W44204   2.503  16.459   1.798 -0.1930  0.2894  0.0922
30791W        W44205   8.040   1.281  15.118  0.0247  0.1936  0.0940
30792W        W44206   8.516  13.927  14.414 -0.1341 -0.0649  0.2805
30793W        W44207  17.965  10.433  15.260  0.0798  0.2131  0.2049
30794W        W44208  16.459   1.296   1.599  0.1007  0.0335 -0.0239
30795W        W44209   5.519   1.260  10.762 -0.1538 -0.2068 -0.1831
30796W        W44210  14.887   2.846  14.344 -0.0085 -0.0856  0.0882
30797W        W44211   4.734  13.654   2.734 -0.0424  0.2289 -0.2534
30798W        W44212  14.186   3.349  12.582 -0.0400  0.0803  0.0438
30799W        W44213   1.176   8.352   3.827 -0.3170  0.0640 -0.2675
30800W        W44214   7.232   8.344   2.112 -0.4281 -0.0308  0.0750
30801W        W44215  12.103   9.883  13.977 -0.4297 -0.0580 -0.5141
30802W        W44216  14.256   1.612  15.754  0.1147 -0.2451  0.1035
30803W        W44217  11.637  12.883   1.320  0.0394  0.2496 -0.0334
30804W        W44218  17.032  15.830   1.542 -0.1990  0.1759 -0.4268
30805W        W44219  13.615  17.441  11.184  0.0330  0.1779 -0.0358
30806W        W44220   7.316   4.658  14.149 -0.0168 -0.0097 -0.0313
30807W        W44221   6.266  15.888   4.829 -0.0777 -0.0906  0.0938
30808W        W44222  13.934  13.392   4.360  0.0352 -0.1405  0.0353
30809W        W44223  17.777  12.443  11.744  0.0841 -0.1221 -0.2959
30810W        W44224  17.785   2.035   3.863  0.0398 -0.2666  0.0469
30811W        W44225   9.387   2.837   4.095 -0.0879 -0.1280  0.0011
30812W        W44226  11.847  18.202  14.547 -0.0396  0.1606 -0.0146
30813W        W44227  16.164   5.851   3.424 -0.1471 -0.0909 -0.1209
30814W        W44228  17.434   4.556   2.221  0.0141  0.0753  0.2110
30815W        W44229   5.462   3.074   3.490  0.2497  0.1562  0.2615
30816W        W44230  17.438  10.275   0.756  0.1316  0.0660 -0.0820
30817W        W44231  17.951   2.255  11.001  0.0916  0.0374 -0.0019
30818W        W44232   9.498  12.802   0.476 -0.1161 -0.0704 -0.2251
30819W        W44233   4.840  12.295   2.347  0.1526 -0.2060  0.0314
30820W        W44234   7.200   3.756  14.671 -0.1357  0.0313 -0.1112
30821W        W44235   2.307  11.293  10.404 -0.2793 -0.1530  0.2952
30822W        W44236  12.195  15.713  13.354  0.1757 -0.1279  0.1486
30823W        W44237   1.096   9.918   5.712 -0.1202 -0.1154 -0.1661
30824W        W44238   5.612   8.643   5.527 -0.1204 -0.0775  0.1481
30825W        W44239  15.332   4.257  14.126 -0.0216  0.2701 -0.1860
30826W        W44240  15.156   8.816   0.849 -0.1953  0.3125 -0.0872
30827W        W44241  10.275   7.535  11.361  0.0414 -0.0669 -0.0520
30828W        W44242  10.697  11.286  14.598 -0.2986 -0.2114  0.0624
30829W        W44243  13.126  15.953  13.431  0.1164  0.0524  0.1081
30830W        W44244   5.846   6.367  12.802  0.2577 -0.2870  0.0132
30831W        W44245   8.754  11.636  13.888 -0.1378  0.0222 -0.0585
30832W        W44246   1.428   1.924  10.820  0.0782 -0.4150  0.1698
30833W        W44247   2.692  13.983   0.562 -0.4050 -0.2253  0.1125
30834W        W44248  12.722   7.926  15.924  0.0642 -0.0929  0.1438
30835W        W44249   7.439   4.711   5.180 -0.1912  0.1445 -0.4041
30836W        W44250  11.096  13.554   4.391 -0.1058  0.2109 -0.1538
30837W        W44251  16.899  12.823   5.144  0.3352 -0.1438 -0.0250
30838W        W44252  14.409  10.692  16.411  0.0954 -0.1322  0.0481
30839W        W44253   1.354   9.273  11.085 -0.0293 -0.0363 -0.0281
30840W        W44254   7.950   6.447  14.186 -0.1635 -0.1596 -0.1298
30841W        W44255  12.649   1.511   1.626  0.0178 -0.1574  0.1470
30842W        W44256  11.044  17.848   1.599 -0.0277  0.0048  0.0796
30843W        W44257  17.055  13.335  11.081 -0.0602  0.0069 -0.1356
30844W        W44258   0.116   5.222   0.322 -0.0515  0.0437  0.2043
30845W        W44259  13.512  10.386   5.740 -0.1624  0.2865  0.0900
30846W        W44260  11.814   2.249  11.116 -0.3281 -0.1795 -0.2383
30847W        W44261   1.705  10.938   3.972  0.1227 -0.3588  0.0248
30848W        W44262  11.525  10.331  15.167 -0.1187 -0.0584 -0.2131
30849W        W44263   4.126   9.095  12.091 -0.0938  0.2291  0.1221
30850W        W44264   7.315  10.015  13.442  0.3168  0.2573  0.2762
30851W        W44265   0.144   8.168  14.821 -0.3839  0.0681  0.2589
30852W        W44266  10.750   3.794  12.206  0.2966  0.1057  0.0584
30853W        W44267   9.040  11.784   4.068  0.0142 -0.1336 -0.2430
30854W        W44268   1.602  15.726  12.013 -0.1250  0.1124 -0.0546
30855W        W44269   4.950  12.201   1.135 -0.2798 -0.1495 -0.0764
30856W        W44270  10.795   9.139  14.596  0.1533 -0.0663  0.0543
30857W        W44271   6.804  10.871  13.390 -0.1239  0.1296  0.1254
30858W        W44272  17.442  11.892   1.366  0.1637 -0.3786  0.0778
30859W        W44273  10.435  14.782   0.614  0.3652  0.1205  0.0332
30860W        W44274   1.689   2.807  14.929 -0.0452 -0.2200 -0.1252
30861W        W44275   0.821   9.886   2.243 -0.0329 -0.1604  0.1022
30862W        W44276  15.744  11.373  14.382 -0.0320  0.2407  0.0501
30863W        W44277  17.420   3.833  15.844  0.3251  0.1493 -0.0534
30864W        W44278   3.209   5.300  13.452  0.1210  0.3213  0.1747
30865W        W44279  17.533   8.572   3.325  0.0608 -0.5118  0.1705
30866W        W44280  10.625   2.369   2.713 -0.3349  0.0968  0.1105
30867W        W44281  17.549  11.534   3.549 -0.0134 -0.2897 -0.1701
30868W        W44282   8.501   1.473  12.824  0.0024 -0.0676  0.0299
30869W        W44283  16.825   8.692   2.629 -0.0656  0.2083 -0.1164
30870W        W44284  16.801   2.513   5.994  0.0362 -0.1291 -0.1704
30871W        W44285   1.051  10.794   5.136 -0.0014  0.0815 -0.2811
30872W        W44286   8.619   6.833  13.020  0.0019 -0.0928  0.1766
30873W        W44287   7.124   5.883   1.310 -0.0029  0.1100  0.2790
30874W        W44288  18.117   4.082   2.866  0.1392 -0.0474  0.0846
30875W        W44289   5.151  15.894   3.495 -0.3209 -0.0919  0.1554
30876W        W44290  15.232  10.428  10.877 -0.0960  0.4453 -0.1336
30877W        W44291   4.874  11.500   2.549  0.0493 -0.3736 -0.0067
30878W        W44292   9.244  10.679  13.508  0.1084 -0.0826  0.2786
30879W        W44293  17.112   5.007  11.369  0.1059  0.0034 -0.0372
30880W        W44294  16.112  17.903  11.747 -0.2029  0.2205 -0.2024
30881W        W44295  16.731  15.099   2.785  0.2687 -0.0636  0.0720
30882W        W44296  13.419  13.619  12.145  0.2751 -0.0552 -0.3701
30883W        W44297  10.100  16.591   6.169  0.1105 -0.0729 -0.0646
30884W        W44298  13.213  12.825   4.372 -0.2255 -0.0504 -0.1046
30885W        W44299   0.155  16.286   1.223  0.4369  0.1251  0.1294
30886W        W44300   5.584  11.731   3.320 -0.0292  0.4411 -0.2641
30887W        W44301  14.625   8.222   3.337  0.1661 -0.0653  0.0634
30888W        W44302   9.032  14.794   4.536 -0.1145  0.0869  0.1234
30889W        W44303   6.530   3.868   5.582  0.0081 -0.0137  0.1362
30890W        W44304   1.800  10.354   3.742 -0.1989  0.1213  0.0691
30891W        W44305   6.742  16.010  12.050  0.0004  0.2527 -0.4863
30892W        W44306  10.596  14.329   0.433 -0.2318 -0.1793  0.3118
30893W        W44307  18.105  11.531  15.150 -0.0958  0.1702 -0.3057
30894W        W44308   5.683   9.933   4.996  0.0893  0.0383  0.1499
30895W        W44309   3.480   1.304   3.203 -0.0888  0.1947 -0.0427
30896W        W44310   8.926   8.728   0.922 -0.3284  0.1402 -0.2359
30897W        W44311  10.247   9.132  16.421 -0.1115  0.0949  0.0800
30898W        W44312   1.383   8.572   5.551 -0.1265  0.5000  0.3455
30899W        W44313   8.934   6.282   0.809 -0.0696 -0.2216 -0.4150
30900W        W44314   7.300   2.517   3.273  0.0374  0.0852  0.1138
30901W        W44315   2.932  16.507  14.030  0.1447 -0.3627  0.1695
30902W        W44316   0.432  17.277   5.874 -0.3223 -0.2706  0.1631
30903W        W44317   5.999  16.067  13.964 -0.3163 -0.0054 -0.2156
30904W        W44318  13.021  13.544  15.592  0.1827  0.0489 -0.0229
30905W        W44319   3.721  10.950  13.046  0.0119 -0.0012 -0.0577
30906W        W44320   2.042   4.455   3.737 -0.0080  0.0994 -0.1452
30907W        W44321   6.108  15.334  12.814 -0.1528 -0.2850  0.0957
30908W        W44322   8.132   5.402   3.470  0.1133 -0.0670  0.0405
30909W        W44323  13.130   8.588   6.369  0.3776  0.3236  0.1429
30910W        W44324  14.315   6.792   2.568 -0.1405  0.1972 -0.0081
30911W        W44325   4.794   6.188   5.138 -0.1510 -0.1878  0.0151
30912W        W44326   7.290   4.958   0.594 -0.0493  0.0683  0.1458
30913W        W44327   5.049  18.020  11.633 -0.0080 -0.2770  0.1578
30914W        W44328   7.213   0.502  15.063 -0.0066 -0.1513 -0.0455
30915W        W44329   0.814  14.121   2.649  0.0090 -0.0631  0.2378
30916W        W44330  11.763  10.197   4.692 -0.0361 -0.1271  0.0170
30917W        W44331  12.648  11.262   4.955  0.1091  0.0484  0.1971
30918W        W44332   1.745   8.987   1.282 -0.1616 -0.1374 -0.1430
30919W        W44333   8.991   9.880   2.225 -0.0658 -0.0985  0.0501
30920W        W44334  16.452  10.771  11.670 -0.1261  0.0774  0.2967
30921W        W44335  16.490  17.965  13.141 -0.1845 -0.0877  0.0772
30922W        W44336   5.371   1.393  11.187  0.1198 -0.0643 -0.0746
30923W        W44337  13.145   2.201   4.024 -0.3473  0.1174 -0.2629
30924W        W44338   6.044   1.561   5.369 -0.1109  0.1598 -0.0936
30925W        W44339   9.982   7.572  14.595 -0.1041  0.0145  0.0974
30926W        W44340   4.033  14.298   2.988 -0.1444  0.0032 -0.1486
30927W        W44341  13.606  10.704  16.110 -0.0374 -0.1679  0.0097
30928W        W44342  17.526   9.937   6.131  0.0863 -0.0143 -0.5406
30929W        W44343   2.608  10.899  14.410 -0.0204  0.1197 -0.1641
30930W        W44344   3.216   9.279  15.842  0.2414  0.0250 -0.0829
30931W        W44345   1.387  10.079   4.570 -0.2460 -0.0213  0.0110
30932W        W44346   0.041  15.703  14.265  0.1441  0.0101  0.1363
30933W        W44347  14.579   2.508  15.351 -0.1579 -0.3754  0.4931
30934W        W44348   9.386  17.899  14.908  0.0942 -0.0497  0.2561
30935W        W44349   0.412   0.273   4.057 -0.1105  0.1921  0.2705
30936W        W44350  11.053   9.728   3.161  0.1299 -0.0992  0.0997
30937W        W44351   9.183   1.316  14.530 -0.0483 -0.0159 -0.1572
30938W        W44352   8.194   1.430  14.665  0.1632 -0.1518  0.6260
30939W        W44353  15.133  13.378   5.899 -0.1743 -0.1834 -0.0048
30940W        W44354   3.162   9.751   5.511 -0.1373  0.1020 -0.1217
30941W        W44355  11.391   2.670   1.528  0.4644  0.0878 -0.0134
30942W        W44356  12.302  16.998   5.467  0.1353 -0.0917 -0.3140
30943W        W44357  14.239   3.367   5.338  0.2110  0.1561 -0.1233
30944W        W44358   1.527  17.497   0.476  0.0307  0.1130 -0.1603
30945W        W44359  13.226   8.256   0.810  0.0722  0.0285  0.1130
30946W        W44360   3.855  17.782  12.954 -0.1280 -0.0169 -0.0926
30947W        W44361   5.851  16.488  15.323  0.3582 -0.1558  0.0108
30948W        W44362   3.137  13.284   0.102 -0.1751  0.0750 -0.2569
30949W        W44363   4.116  13.269  10.837 -0.1883 -0.0390 -0.0065
30950W        W44364   7.017   6.336  15.134  0.1389  0.0218  0.0789
30951W        W44365  14.279  17.257  10.308 -0.0425 -0.0176  0.2289
30952W        W44366   6.004   1.493  16.526 -0.0970  0.2343 -0.0704
30953W        W44367   4.830  16.378   0.251 -0.1278  0.2170 -0.0604
30954W        W44368  16.000   1.450  13.283  0.0459  0.1387  0.1611
30955W        W44369   7.743   2.347  13.885  0.0100 -0.0700  0.0498
30956W        W44370  13.999   9.248  11.163 -0.1228  0.1599  0.1233
30957W        W44371   8.356  13.823  13.242  0.0655 -0.2163 -0.0691
30958W        W44372  14.753   2.177   0.130  0.1376 -0.1452 -0.0286
30959W        W44373  16.473  15.323  13.719  0.2712 -0.1130  0.0494
30960W        W44374  15.085   1.542  14.700 -0.0977 -0.3668  0.0108
30961W        W44375   2.247  18.101  13.587 -0.1318 -0.2108  0.1128
30962W        W44376   1.538  15.998   4.063 -0.1334  0.0085  0.1746
30963W        W44377   6.306   0.137  10.276  0.0972 -0.0704  0.2528
30964W        W44378  10.968   8.090  13.249  0.1725  0.1179  0.1946
30965W        W44379   2.794  10.567  10.538  0.0716  0.1939 -0.0854
30966W        W44380   2.984  16.406  14.957  0.1685 -0.1601 -0.1180
30967W        W44381   3.047  16.280   6.090 -0.0510  0.3871 -0.1530
30968W        W44382   0.750   9.843  11.387  0.0203  0.0475  0.0520
30969W        W44383   0.726   1.237   5.886  0.1632 -0.1738  0.1660
30970W        W44384  17.440   4.330  15.677 -0.2434 -0.0739 -0.0401
30971W        W44385   5.969  10.144  12.135  0.3084  0.3217  0.0522
30972W        W44386  10.561  13.982  14.720 -0.0843  0.1509  0.0058
30973W        W44387   2.265  14.601   0.334 -0.0305  0.1719 -0.1564
30974W        W44388   0.616   8.129   5.203  0.0727 -0.1194  0.0814
30975W        W44389   7.312  16.376   0.946 -0.0390 -0.2160  0.2891
30976W        W44390   7.785  15.760   3.357 -0.0111  0.0369  0.4031
30977W        W44391   3.076  14.012  14.464  0.1854  0.0625 -0.2408
30978W        W44392   0.843  17.419   2.142 -0.1027 -0.0709  0.1036
30979W        W44393   9.549   9.781   4.685 -0.3722 -0.0009 -0.0343
30980W        W44394   4.324  14.319   5.017 -0.2185 -0.2051 -0.1294
30981W        W44395  11.652  14.654   4.397 -0.1599  0.2373 -0.1176
30982W        W44396   2.901  17.451  11.607  0.0362 -0.2166 -0.0179
30983W        W44397  17.777   0.655  13.842 -0.3079  0.1727 -0.0253
30984W        W44398   2.556  11.568   2.310  0.3233 -0.0159  0.1050
30985W        W44399   2.991   1.317  15.363  0.2885 -0.0638  0.2279
30986W        W44400  16.556  14.688  10.754 -0.0080  0.0204 -0.1095
30987W        W44401  13.771   9.963  12.652  0.0471 -0.0369  0.0525
30988W        W44402  18.200   4.485   3.101  0.2293 -0.3425  0.0706
30989W        W44403  16.847   0.591   3.756 -0.0969 -0.0667  0.0399
30990W        W44404   2.240   8.536   5.343  0.2465 -0.1909  0.1646
30991W        W44405   0.563   0.604  11.306 -0.0524 -0.3059  0.1131
30992W        W44406   4.099   3.864  11.768 -0.0279 -0.3408 -0.0001
30993W        W44407  13.585   8.777  16.503 -0.1836  0.0158 -0.3480
30994W        W44408   8.643   1.491  10.278 -0.1425  0.0763  0.0297
30995W        W44409  10.451  15.521  13.819  0.1620  0.0206  0.0817
30996W        W44410   0.596  17.821  15.405 -0.0380  0.0428  0.1150
30997W        W44411   8.742  17.806  16.009 -0.2705  0.0493 -0.0405
30998W        W44412   7.989  17.169   0.641  0.1147 -0.0976 -0.2828
30999W        W44413  15.291  17.726  10.398  0.3128  0.0201 -0.1614
31000W        W44414   1.658   9.060  11.430  0.1090  0.3605 -0.0317
31001W        W44415   2.407   7.388  13.077  0.1506 -0.2178  0.0920
31002W        W44416  16.915   9.507  11.510 -0.0762  0.0116  0.0776
31003W        W44417  18.050  14.589  14.506  0.1296 -0.2259  0.1691
31004W        W44418  13.290   9.674   2.684 -0.1560  0.0736  0.1098
31005W        W44419   0.179  12.948   4.452  0.0372  0.0317 -0.1273
31006W        W44420   3.117  12.372   6.574 -0.0696  0.2190  0.0315
31007W        W44421  17.194   0.874   5.502  0.3395  0.0989  0.1718
31008W        W44422   0.972   5.582   0.063  0.3590  0.0559  0.2733
31009W        W44423  11.503  10.826  12.140  0.0808 -0.0913  0.0319
31010W        W44424   8.477   1.674  14.937 -0.0114  0.0486 -0.1526
31011W        W44425   6.866   4.949  13.347 -0.1860  0.3632 -0.0541
31012W        W44426   7.636   7.212  14.696  0.2244 -0.0291  0.0747
31013W        W44427  16.528   4.025   0.086 -0.2791 -0.1582 -0.1305
31014W        W44428  17.414   3.084  11.251 -0.1077 -0.3270  0.1182
31015W        W44429   2.195  13.247  12.109 -0.1314 -0.0585  0.2971
31016W        W44430  18.117   5.254   2.597  0.1904 -0.2700 -0.1282
31017W        W44431   7.918   7.727  15.232 -0.2631 -0.0666 -0.0231
31018W        W44432  16.536   2.096   0.502 -0.3721 -0.0997 -0.2269
31019W        W44433  17.004  16.816   5.427 -0.0021  0.0362  0.1545
31020W        W44434  13.393   0.523  11.759  0.2086 -0.1841  0.0162
31021W        W44435  17.154  10.477   2.264  0.1074  0.0697  0.1762
31022W        W44436   8.764   7.883  11.456  0.0331 -0.0271 -0.4743
31023W        W44437  16.199  12.631   5.212 -0.4989  0.1238 -0.2017
31024W        W44438   7.142   2.451  15.684  0.0962 -0.1058  0.1015
31025W        W44439   7.068   2.899   0.935  0.3590 -0.0483  0.2633
31026W        W44440  16.630  17.522   5.542  0.3735 -0.1943  0.0975
31027W        W44441   6.336  17.096  14.788  0.2876 -0.0336 -0.1822
31028W        W44442   1.054  17.076   5.427  0.0572  0.0489  0.0397
31029W        W44443   5.882   3.051  14.905  0.1193  0.2139 -0.0521
31030W        W44444   5.436  14.125   2.520  0.1612 -0.1695  0.2804
31031W        W44445   3.916   7.402  15.934  0.0012 -0.2545 -0.0469
31032W        W44446   2.766  13.051   2.525  0.0402  0.0125 -0.1505
31033W        W44447   8.882  12.236  15.664  0.2330 -0.2623  0.0178
31034W        W44448   4.224  13.983   6.413 -0.0168  0.0851  0.1245
31035W        W44449  14.620  11.826  13.995 -0.1521 -0.1154 -0.0472
31036W        W44450  16.257  10.030   1.481  0.1752  0.1672  0.1897
31037W        W44451   9.354   4.139  11.472 -0.2517 -0.0279  0.1542
31038W        W44452  11.737  11.730   0.827 -0.2542 -0.1318 -0.0965
31039W        W44453  11.892   5.084  15.651  0.3812 -0.4940  0.0114
31040W        W44454  10.465   9.042   0.385 -0.0497 -0.2580 -0.2960
31041W        W44455   5.606  15.125   3.397  0.2281  0.2914 -0.1500
31042W        W44456   9.194  17.733   0.968  0.1256 -0.1704  0.2798
31043W        W44457   2.716   7.529  15.970  0.0025  0.0647 -0.1923
31044W        W44458   1.307   3.497   5.165  0.0305 -0.2475  0.0368
31045W        W44459  16.881   2.243   1.015  0.0517 -0.0223  0.1805
31046W        W44460   3.611  17.020  11.242  0.2109  0.0551  0.2951
31047W        W44461   5.979  18.121   2.660 -0.0226  0.0459  0.1619
31048W        W44462   2.590   3.316   2.432  0.2920 -0.4247 -0.1872
31049W        W44463   4.664   1.426  12.535 -0.0437  0.1277  0.0024
31050W        W44464  11.052   5.732  15.117  0.0777  0.0638  0.0663
31051W        W44465   0.358   2.798   0.919  0.1480 -0.0670 -0.0136
31052W        W44466  12.342  15.812   1.782 -0.1705 -0.2889 -0.1596
31053W        W44467  17.916   7.842  12.027 -0.2788 -0.1034 -0.2670
31054W        W44468  16.332   9.640   2.571  0.0350  0.1146  0.2080
31055W        W44469   2.588  12.926  15.976 -0.0502  0.0471  0.2093
31056W        W44470  16.444   2.970  11.771 -0.0625  0.0265 -0.1515
31057W        W44471   6.583  15.454  14.637 -0.1538 -0.4242 -0.0133
31058W        W44472  12.571   4.015   3.716 -0.2618 -0.1852  0.1489
31059W        W44473   5.155  12.432  15.803  0.0654  0.2558  0.2234
31060W        W44474  14.821   0.557   2.749  0.0483  0.2164 -0.1666
31061W        W44475   8.249  16.933  13.743  0.1981 -0.3529  0.1741
31062W        W44476  12.506   5.306   5.528  0.0943 -0.1537 -0.3608
31063W        W44477   4.138  17.193   2.298  0.2207 -0.1018 -0.1426
31064W        W44478  16.243   5.337   3.189 -0.4305  0.0314 -0.0350
31065W        W44479  18.155  14.060  15.153 -0.1783 -0.1156 -0.0916
31066W        W44480   1.083  10.961   4.644  0.3592  0.0161  0.0140
31067W        W44481  16.493   6.170  14.303 -0.0186 -0.2876 -0.0676
31068W        W44482   3.657  13.197  10.646 -0.3268  0.1552  0.0599
31069W        W44483  10.561  16.864   1.761  0.0848  0.2645  0.0685
31070W        W44484   7.579   2.535  14.530  0.1522 -0.0227 -0.0609
31071W        W44485  11.803  12.209  15.755 -0.0661  0.1838 -0.0453
31072W        W44486   0.852   5.121   5.363 -0.0675 -0.0927 -0.0348
31073W        W44487   6.758   1.036   1.899  0.1255  0.0443 -0.0112
31074W        W44488  13.223   5.443  14.378  0.2394 -0.0478 -0.0893
31075W        W44489  10.352  14.281   3.136  0.1234 -0.1741 -0.1802
31076W        W44490   9.899  15.447   2.739  0.1667  0.0783 -0.2590
31077W        W44491   2.506   0.713   1.268  0.0446  0.0530 -0.3522
31078W        W44492   0.679  17.473  13.769 -0.0144 -0.1202 -0.0714
31079W        W44493  10.433  11.496   0.564  0.0217 -0.0122  0.2619
31080W        W44494  13.315  12.309   2.922  0.0887  0.1416 -0.2260
31081W        W44495  13.788   9.639  14.042  0.2328 -0.1805  0.2335
31082W        W44496  10.466  13.852  13.235 -0.0506 -0.2798  0.0192
31083W        W44497  17.528  14.650  11.822 -0.0122  0.1720 -0.2130
31084W        W44498   2.658  15.082  13.713  0.1446 -0.0903  0.1666
31085W        W44499  17.608   1.064   0.962 -0.1093 -0.0529 -0.4235
31086W        W44500   9.369   9.420  14.803 -0.1702  0.0595  0.1763
31087W        W44501   5.155  10.044  11.511  0.1814  0.2567  0.2878
31088W        W44502  10.532   1.137  13.790  0.1150 -0.3448 -0.1750
31089W        W44503  12.874  10.351   5.987 -0.1255  0.0446  0.1928
31090W        W44504  16.550   7.763  15.024  0.1272  0.0080 -0.0212
31091W        W44505   6.980  12.094   3.030  0.0636 -0.1525 -0.1989
31092W        W44506   3.449  12.739  12.613 -0.0143 -0.1395  0.0385
31093W        W44507   8.667  10.065  11.630 -0.1841  0.0250 -0.1002
31094W        W44508  16.880   1.896   3.222  0.0570  0.1819  0.1662
31095W        W44509  12.383  11.593   0.111  0.0583  0.0292 -0.0321
31096W        W44510   4.386   9.571   3.121 -0.2212  0.1561  0.1954
31097W        W44511   1.061   5.795   2.023 -0.0085  0.2588  0.0301
31098W        W44512  10.345  17.560  16.013  0.1188 -0.1476  0.0396
31099W        W44513  13.327   2.610  15.925  0.2252  0.1905  0.0368
31100W        W44514   7.806   4.308  14.876  0.0941 -0.2249 -0.0055
31101W        W44515  14.755   5.999   1.786 -0.2521  0.2795 -0.0905
31102W        W44516  15.639   2.968  16.509 -0.2440 -0.1399  0.1677
31103W        W44517  13.601  17.886   0.017 -0.0915  0.1791  0.2967
31104W        W44518  13.220  10.016   5.881  0.2466  0.3146 -0.0322
31105W        W44519   8.229  11.304   1.815  0.2501  0.1399  0.0561
31106W        W44520   7.967   3.284   3.431 -0.0944 -0.1995  0.0465
31107W        W44521  15.379   2.101  13.962 -0.0787 -0.2078  0.1298
31108W        W44522  12.537   2.460  11.583  0.0410 -0.0058  0.2647
31109W        W44523   8.510  14.316  10.897  0.2884  0.1867  0.0568
31110W        W44524   1.275   9.544  15.564  0.0749  0.1363  0.1816
31111W        W44525  11.048   6.216  15.229  0.0289 -0.1343  0.2389
31112W        W44526   8.322  11.536   5.968 -0.0469  0.1937 -0.0320
31113W        W44527   5.310  13.436   3.044  0.0970 -0.3238 -0.0879
31114W        W44528  13.952   9.898   5.245 -0.0309 -0.2740  0.2349
31115W        W44529  11.098  11.574  14.917 -0.0115  0.2584  0.0274
31116W        W44530   7.964   3.478  10.819 -0.0439 -0.3315 -0.2659
31117W        W44531   5.895   8.394   5.008 -0.0347 -0.1526  0.2522
31118W        W44532   3.027   8.246  12.762  0.3425 -0.1038  0.0083
31119W        W44533   0.738   9.856  13.128  0.1386 -0.1335 -0.1731
31120W        W44534  14.619   4.623  10.557  0.0137 -0.0171 -0.0099
31121W        W44535  13.486   0.526  12.378 -0.1381  0.2091 -0.0798
31122W        W44536   5.340   6.141  14.330 -0.0716  0.2507  0.2017
31123W        W44537  17.647   1.801   0.555 -0.1446 -0.0332  0.0914
31124W        W44538   8.879   7.917  12.551 -0.2091  0.0016  0.1677
31125W        W44539   5.729  10.694   4.306  0.2231  0.1395 -0.1185
31126W        W44540  11.019   4.716   3.089 -0.4554 -0.0481 -0.0334
31127W        W44541   5.943   0.066  16.003 -0.0820 -0.2341 -0.0081
31128W        W44542   5.909  15.704  14.340  0.1923 -0.1859 -0.0230
31129W        W44543   9.571   0.956  15.210  0.1680  0.0289  0.0214
31130W        W44544  12.315   9.989  11.744 -0.1492 -0.0242  0.1162
31131W        W44545   9.250   1.252   1.741 -0.0058  0.2425  0.1469
31132W        W44546  14.014  15.259  14.186 -0.0452 -0.1989  0.0954
31133W        W44547  10.547  11.277  13.433 -0.0099 -0.0572  0.0672
31134W        W44548   1.048  10.181  11.626 -0.0720 -0.2401  0.0569
31135W        W44549  18.102  11.756   4.098 -0.0235 -0.0358 -0.0885
31136W        W44550   0.856   2.782  12.540  0.0879 -0.2102  0.0621
31137W        W44551  12.323  17.400  15.482  0.0723  0.1965 -0.2131
31138W        W44552   4.047   7.680  14.761  0.1149  0.0711  0.3817
31139W        W44553  17.574  10.580  11.314 -0.1171  0.2586 -0.1376
31140W        W44554   9.298   0.026   0.786  0.1312  0.3914 -0.0614
31141W        W44555  15.636   6.836  12.810  0.2685  0.0570  0.2821
31142W        W44556  14.846  11.931  14.523  0.2807 -0.0075 -0.2168
31143W        W44557  10.889   3.471   4.064  0.1048 -0.0196  0.1470
31144W        W44558   6.326  17.652   2.694  0.2519 -0.1148  0.1915
31145W        W44559   7.035   8.422  15.334 -0.0883  0.1355 -0.1580
31146W        W44560  15.349   9.562   2.408 -0.0893  0.2418 -0.1035
31147W        W44561  17.594  11.809   0.667 -0.2748  0.0331 -0.1501
31148W        W44562  14.825   2.631  11.592 -0.0652  0.0450 -0.2777
31149W        W44563  17.095  14.734   3.494 -0.4100  0.3328 -0.0266
31150W        W44564  13.396   3.865  15.088 -0.1731  0.3135  0.1718
31151W        W44565   3.425   4.007   1.151 -0.0480  0.2678 -0.0498
31152W        W44566  13.161   4.151  13.764  0.1604 -0.1794 -0.0750
31153W        W44567  11.273   3.836  13.528  0.0660  0.0431  0.1793
31154W        W44568  15.243   0.298   4.171  0.1356 -0.0004 -0.2129
31155W        W44569   2.837   8.615   5.825 -0.0643 -0.2347  0.1010
31156W        W44570  10.400   5.558  14.076  0.0711  0.0470  0.1061
31157W        W44571  13.956  15.743   3.312 -0.0814  0.1901 -0.1884
31158W        W44572  12.507   8.851  12.673  0.0166  0.1112 -0.0024
31159W        W44573   6.526  16.411   0.363  0.0545 -0.0054  0.1372
31160W        W44574  15.754  12.470   5.188  0.1518 -0.2491  0.0790
31161W        W44575   0.352   0.073   4.634  0.0879  0.2093 -0.2009
31162W        W44576   2.599   1.371  15.043 -0.0738 -0.1141 -0.1014
31163W        W44577   7.149  10.386  15.856 -0.0972  0.0683 -0.2289
31164W        W44578   5.216   1.398  13.014  0.0263 -0.3333  0.1857
31165W        W44579  16.533  17.009  13.109 -0.0513  0.3043 -0.0886
31166W        W44580   0.881  15.786  13.600 -0.1843 -0.0417 -0.5859
31167W        W44581  14.510   3.720  11.764  0.0517  0.1124 -0.1215
31168W        W44582   1.793   2.780  11.521  0.4550 -0.1190 -0.1076
31169W        W44583  10.350  15.724   2.869  0.3368  0.0416  0.1097
31170W        W44584   1.520  13.289   3.363  0.3167  0.0567  0.0297
31171W        W44585   1.199  11.152   0.184 -0.2241  0.2704  0.1455
31172W        W44586   4.073   7.984  13.517 -0.0189  0.2772  0.1297
31173W        W44587   8.232   5.062  11.976  0.3072 -0.2217 -0.0289
31174W        W44588  17.625  15.008  15.337  0.0119 -0.2068 -0.1885
31175W        W44589   6.748   4.996   4.147  0.1461  0.0576  0.0231
31176W        W44590   9.394   7.216  12.874 -0.2306  0.0771 -0.0302
31177W        W44591   8.314  13.155  12.882  0.0394 -0.1471  0.2055
31178W        W44592   5.982   0.900  14.664  0.3988  0.1821 -0.0028
31179W        W44593  15.584   8.935   1.138 -0.1582 -0.0194 -0.1293
31180W        W44594  15.263   0.812   5.031 -0.6051 -0.2044  0.3278
31181W        W44595   1.346  10.392  11.313  0.0189  0.3017 -0.1066
31182W        W44596  12.303  14.296  11.687 -0.1490 -0.0745  0.0837
31183W        W44597   6.400  10.876   0.431  0.1979  0.0692  0.0584
31184W        W44598   8.706   2.971   2.606 -0.1893  0.0587  0.1449
31185W        W44599  17.615  11.314  16.343  0.0922 -0.2482 -0.2324
31186W        W44600   6.729  13.907   1.713 -0.0726 -0.0074 -0.2341
31187W        W44601   1.828  18.200   1.175  0.2578 -0.2496  0.0302
31188W        W44602  17.133   1.996   4.624 -0.2892 -0.1218 -0.0665
31189W        W44603  13.537   3.598  12.724  0.1354  0.3342 -0.2070
31190W        W44604   3.104   7.599   2.305  0.0911 -0.4144 -0.0209
31191W        W44605  17.399  16.787  10.983 -0.0191  0.0439  0.1178
31192W        W44606  10.026   7.870   3.280 -0.1617 -0.1360 -0.2658
31193W        W44607  12.616   3.998   5.801 -0.0454 -0.3200  0.1718
31194W        W44608   8.582  10.091  13.771 -0.0020  0.0219 -0.3343
31195W        W44609  11.360  15.383  15.653  0.1396  0.0594  0.0786
31196W        W44610  16.625   5.963  12.248 -0.3432  0.0950 -0.0713
31197W        W44611   4.385   5.094   4.716 -0.0239 -0.1012 -0.0232
31198W        W44612   8.440  17.625   0.442  0.0753  0.1015  0.1975
31199W        W44613  11.317  12.836   2.959 -0.3767  0.0487  0.0888
31200W        W44614   7.181  10.833   2.097 -0.0265 -0.1920  0.2814
31201W        W44615  17.223   9.673   4.850 -0.0194  0.0894 -0.0985
31202W        W44616  17.694  13.533   3.375 -0.1300  0.2128  0.1286
31203W        W44617   2.549  17.706   4.390  0.3362  0.0263  0.0776
31204W        W44618  10.821   7.081   2.019 -0.2892  0.2075  0.1444
31205W        W44619  15.675  12.341   0.045 -0.0620  0.2609 -0.1083
31206W        W44620   7.399   9.747   2.590  0.1054 -0.3621 -0.3004
31207W        W44621   6.452   4.667  12.457 -0.2023  0.0104 -0.1183
31208W        W44622   6.946   8.933  15.326 -0.3726  0.0816  0.0031
31209W        W44623   1.091   0.742   3.234 -0.1396 -0.0620  0.0990
31210W        W44624  10.653   6.956   5.827  0.2099 -0.1853  0.2723
31211W        W44625   3.572   9.221  15.083 -0.1707  0.2400  0.1366
31212W        W44626  14.784  12.045   5.421  0.0593  0.1511  0.1059
31213W        W44627   6.284   1.639   2.812 -0.2475 -0.0826 -0.2970
31214W        W44628  15.931  17.130  15.374 -0.1834 -0.0700  0.1079
31215W        W44629  10.175   8.500  13.157  0.2461 -0.0026 -0.0698
31216W        W44630   0.057   6.084  13.825  0.1254 -0.1009 -0.1911
31217W        W44631  17.080  14.730   4.496  0.0137 -0.1687 -0.0297
31218W        W44632  10.896   1.491  10.107  0.1684 -0.0112 -0.0953
31219W        W44633   7.109  11.744   1.170 -0.0967  0.0694 -0.2816
31220W        W44634  13.176   9.371   1.784  0.1348  0.0913 -0.1606
31221W        W44635   3.591   4.906  16.430 -0.2493  0.0036  0.4261
31222W        W44636   5.358   1.838  13.275  0.0725 -0.1951  0.0571
31223W        W44637   3.102  14.071   3.157 -0.0557  0.1936  0.3567
31224W        W44638   0.546  12.775   2.857  0.2822  0.0446  0.2974
31225W        W44639   1.272  10.067  13.161  0.1952  0.2193 -0.1808
31226W        W44640   0.326  16.306  12.861 -0.2925  0.2624  0.0487
31227W        W44641   7.218  11.647  12.396  0.2289  0.2019  0.0193
31228W        W44642  17.349   9.356   3.748 -0.4453 -0.1226 -0.0541
31229W        W44643   0.118   8.389  13.996 -0.0919 -0.0330  0.1471
31230W        W44644   4.759  11.107   1.046  0.2060  0.2343  0.3897
31231W        W44645  11.306   3.651   3.707  0.0373 -0.0273 -0.1648
31232W        W44646  11.209   6.347   0.083  0.1592 -0.1441 -0.2313
31233W        W44647  10.561   1.356   1.093 -0.0371  0.2056 -0.3476
31234W        W44648   8.495  12.420   3.573 -0.1231 -0.0676  0.2928
31235W        W44649   6.229  17.880  12.554  0.0189  0.2814 -0.2215
31236W        W44650   1.653   6.949  13.890 -0.1309 -0.0205  0.1026
31237W        W44651   0.382   0.696   5.165  0.2037 -0.0307 -0.1232
31238W        W44652  14.852   1.997   2.007  0.2307 -0.0549 -0.3528
31239W        W44653  10.491   5.195   5.784 -0.1719  0.2987  0.0094
31240W        W44654  15.209  14.988  15.504 -0.1365 -0.1658 -0.3897
31241W        W44655  11.007   8.083   1.446  0.1693  0.3510  0.0119
31242W        W44656   4.534   0.144  14.613 -0.0065  0.0221  0.1107
31243W        W44657   0.712  11.616  14.977  0.1002  0.1089 -0.1554
31244W        W44658  18.126   1.921  16.302  0.1799  0.5927 -0.0796
31245W        W44659   5.171   4.906   4.743  0.1971 -0.3570  0.3944
31246W        W44660   4.478   0.111  13.627  0.2097 -0.0499 -0.3913
31247W        W44661   8.040  16.693  11.344  0.0791  0.0982 -0.0926
31248W        W44662   5.314  14.146   3.522  0.1712 -0.0770  0.0698
31249W        W44663  10.835   4.165  15.627  0.1595  0.0725 -0.3031
31250W        W44664   9.775   0.559  14.041  0.1820  0.0377  0.1434
31251W        W44665   8.032   6.349  15.330 -0.0787 -0.0128  0.0186
31252W        W44666   1.881   6.045   1.511  0.1867 -0.0836  0.0708
31253W        W44667   4.691  16.077  14.368 -0.3163 -0.0974  0.0140
31254W        W44668   5.362   8.373   4.061  0.0053 -0.0762  0.2428
31255W        W44669  10.219  15.157  10.829  0.2096 -0.2346  0.0232
31256W        W44670  17.327   5.358   1.072 -0.0460  0.0840 -0.1069
31257W        W44671  15.435  10.189   3.255  0.0556 -0.2930  0.0939
31258W        W44672  14.945   3.136   4.158 -0.0492 -0.1397  0.3116
31259W        W44673  14.659  11.591  10.867  0.0555 -0.2114 -0.1858
31260W        W44674  18.070  14.958   3.898  0.1088  0.0909  0.0765
31261W        W44675   4.200   8.246   1.003  0.0377 -0.0269 -0.0166
31262W        W44676  11.631  15.984  10.502 -0.4172  0.0481 -0.0179
31263W        W44677   7.484  11.201  16.324  0.1879  0.2550  0.0082
31264W        W44678  15.764  17.058  15.961 -0.2222  0.0799  0.0341
31265W        W44679  12.201   7.443   3.030 -0.1058  0.2019  0.1006
31266W        W44680   4.407  11.881  14.264  0.2029 -0.0600 -0.0498
31267W        W44681   2.051  10.810  16.286 -0.1562 -0.0690 -0.1819
31268W        W44682   2.359   9.328   6.810  0.0935 -0.1039 -0.2370
31269W        W44683   6.666   4.890  14.702  0.0664 -0.2392  0.1728
31270W        W44684  11.373   1.080  14.742  0.0471  0.2820  0.1347
31271W        W44685   2.963   3.971  13.376  0.2900  0.2775 -0.3002
31272W        W44686   3.824  13.498   4.568 -0.0240  0.0509  0.2498
31273W        W44687  11.401  14.240  13.547 -0.2111 -0.1700  0.0714
31274W        W44688   5.558   5.162  13.308 -0.0769 -0.0814 -0.2538
31275W        W44689   0.056   1.857   1.864 -0.1797 -0.2637  0.2132
31276W        W44690  13.603   4.086   2.637 -0.3783 -0.1714 -0.2485
31277W        W44691  13.492   2.982   4.134 -0.2387  0.1334  0.3843
31278W        W44692   0.789  11.310  12.512  0.0089 -0.3943 -0.1088
31279W        W44693   2.221  10.853  12.878 -0.0267  0.0812 -0.2003
31280W        W44694   5.052  16.318   3.214  0.0461  0.0633 -0.1451
31281W        W44695   5.619   0.646   1.485  0.0023 -0.0526 -0.2414
31282W        W44696  13.369   8.251  13.612 -0.1039  0.2364 -0.0894
31283W        W44697   6.611  17.727  12.254  0.0477 -0.0065  0.0912
31284W        W44698   1.240  12.094  11.361 -0.1498 -0.0877  0.2197
31285W        W44699  12.690   8.188   2.690 -0.2803 -0.3109  0.1190
31286W        W44700   6.595   2.633   2.699 -0.1737 -0.2073  0.2020
31287W        W44701   7.395   3.137  10.867  0.0402  0.2863 -0.4784
31288W        W44702  12.337   2.160  14.313 -0.1616 -0.1649  0.0595
31289W        W44703   4.149   3.447   5.437 -0.0789  0.0266  0.0568
31290W        W44704   5.976  16.368  10.426  0.3426 -0.2289 -0.2092
31291W        W44705   1.022   3.362   4.752  0.0149 -0.1958 -0.1696
31292W        W44706   7.757   4.179   0.640  0.1272  0.1750  0.1822
31293W        W44707   9.574   1.891  11.135  0.2476  0.2286  0.4712
31294W        W44708   2.925   4.242   3.734  0.1977  0.0976  0.5267
31295W        W44709   8.201   3.399  11.313 -0.0858  0.1810  0.0192
31296W        W44710  11.543  12.515   6.006 -0.2173 -0.0067 -0.3201
31297W        W44711   4.239   5.385   6.823 -0.1264  0.0745 -0.0855
31298W        W44712  12.203   3.855   4.064  0.0426 -0.0335 -0.0473
31299W        W44713   1.028   2.934   2.496  0.1455  0.6955 -0.2509
31300W        W44714  17.426  16.306  14.961 -0.0454  0.1426  0.1144
31301W        W44715  10.700   5.117   1.537 -0.0151  0.1223  0.2424
31302W        W44716   8.478   8.187   5.418 -0.1127  0.0143  0.1819
31303W        W44717  10.526  10.239   0.150  0.1650  0.1447  0.0159
31304W        W44718   6.642  13.698  13.318  0.0416 -0.1788 -0.3745
31305W        W44719   3.607   2.492   5.898 -0.0622  0.1246 -0.0954
31306W        W44720   7.758  14.077  11.866 -0.1483  0.1929  0.0460
31307W        W44721   9.538  17.967  12.020  0.1091 -0.0445  0.3516
31308W        W44722   6.700  13.315   4.590  0.0670  0.1857 -0.0700
31309W        W44723  13.893   1.519   3.237  0.1602 -0.1909 -0.0860
31310W        W44724   1.554  13.821   2.516  0.2986  0.0144 -0.0157
31311W        W44725   9.326  10.784  16.053 -0.0582 -0.1271  0.1247
31312W        W44726   8.642  13.809   3.840  0.1824 -0.0958  0.0816
31313W        W44727  16.092  17.603  13.612 -0.0519  0.1517  0.1323
31314W        W44728  16.144   5.192  15.788  0.1791 -0.1055 -0.1600
31315W        W44729  12.067  10.759  13.912  0.3235 -0.2081  0.2300
31316W        W44730  10.632   8.334   5.981  0.3086  0.1411 -0.1084
31317W        W44731  17.490   3.496  12.853 -0.0962  0.4266  0.2267
31318W        W44732   4.387   6.183   2.335  0.1092  0.0993 -0.1452
31319W        W44733   8.505  11.979  12.402  0.0054 -0.0059  0.3814
31320W        W44734   9.225   4.303   0.857  0.0198  0.3667  0.0167
31321W        W44735  15.839   2.926  14.460  0.0983 -0.1926 -0.0671
31322W        W44736  17.423   7.444  13.508  0.1465  0.0082  0.0992
31323W        W44737  10.632  13.467  10.931  0.0814 -0.1439  0.1700
31324W        W44738  16.809  17.980   0.192 -0.0704  0.2182  0.0101
31325W        W44739   1.836  11.181  15.555 -0.4517  0.0142  0.0462
31326W        W44740  13.058   5.169   4.591 -0.2952  0.0885 -0.4128
31327W        W44741   2.935   7.462   0.649 -0.3574  0.1526 -0.0553
31328W        W44742   5.058  10.924   0.711 -0.1461  0.1579  0.4526
31329W        W44743   2.171   2.330   0.181  0.2027  0.0857 -0.1445
31330W        W44744   5.021  14.586  11.254  0.2048  0.1418  0.1927
31331W        W44745   9.030   1.738  14.889 -0.1908 -0.0222  0.2136
31332W        W44746   6.183   6.597  11.565 -0.0109 -0.2319  0.1262
31333W        W44747  11.522  14.976   3.357 -0.2321  0.5012 -0.3496
31334W        W44748   3.635  15.508   4.336  0.1480 -0.0958  0.3449
31335W        W44749  13.784  17.539  10.516  0.0288  0.0149  0.0980
31336W        W44750   0.341   9.300  16.509 -0.1516  0.3305  0.4282
31337W        W44751  15.025   1.969  14.908 -0.1394  0.0037 -0.1981
31338W        W44752   4.246  15.333  13.478  0.0616  0.3476 -0.0787
31339W        W44753  17.853  16.017  11.384  0.0667  0.3695 -0.0914
31340W        W44754   6.318   9.924  16.041  0.1704 -0.1326 -0.1905
31341W        W44755  11.420   2.655   4.704  0.1156  0.1445 -0.1681
31342W        W44756  14.932  12.027  16.290 -0.4946  0.0474  0.1425
31343W        W44757   6.243   1.386   1.602  0.1442  0.0946  0.0414
31344W        W44758  14.228  12.757   3.311  0.0470 -0.1122  0.2605
31345W        W44759   2.697  14.511  11.593  0.1557 -0.0332 -0.1402
31346W        W44760   5.490  13.992  16.461  0.1376 -0.0955 -0.0786
31347W        W44761  16.860   0.972   1.434  0.0117 -0.2132 -0.1816
31348W        W44762  15.112   6.670  14.026  0.0056 -0.3067 -0.2691
31349W        W44763   4.391  15.944   4.486 -0.1640  0.0089 -0.3114
31350W        W44764   3.505   8.234  14.472  0.2277  0.2288 -0.1778
31351W        W44765  16.359  14.031  13.775  0.1717  0.3150 -0.1173
31352W        W44766   4.154  11.748  13.365 -0.0089  0.0065 -0.1799
31353W        W44767  13.092  11.033  15.862 -0.0639 -0.2042 -0.2088
31354W        W44768   7.432  15.293   1.724 -0.1592 -0.1603 -0.3899
31355W        W44769  14.111   6.313   5.422 -0.0535 -0.0234 -0.3123
31356W        W44770  15.751  13.668  12.127  0.0863  0.1849 -0.2508
31357W        W44771   1.946  10.856  13.373  0.1701  0.1559  0.2625
31358W        W44772  13.602  18.017   2.138  0.1000  0.0602 -0.2074
31359W        W44773  12.454  11.390   5.596 -0.3775  0.0775 -0.1836
31360W        W44774   6.774  15.100   4.414  0.1280  0.0240 -0.0471
31361W        W44775   3.700   8.789   0.067 -0.0694 -0.0936  0.0700
31362W        W44776  13.898   8.116   0.417  0.1776  0.2292  0.1180
31363W        W44777   0.322   7.187  12.039 -0.0366 -0.1559 -0.2882
31364W        W44778  15.733  16.561  15.747  0.0158 -0.1178  0.1544
31365W        W44779   8.035  17.723  12.343 -0.1978  0.0544  0.2144
31366W        W44780  17.794  15.432  14.425  0.3034  0.0290  0.0951
31367W        W44781   2.619   9.362   2.225  0.2889 -0.1687 -0.0964
31368W        W44782  17.664  16.015   3.305 -0.2095  0.1140  0.1490
31369W        W44783  10.462  12.377  13.813 -0.0436 -0.0869  0.1283
31370W        W44784   4.325   4.095   6.201  0.1111  0.3737  0.0451
31371W        W44785   5.000   2.172  13.445  0.0139  0.0292  0.1905
31372W        W44786   0.692   7.678  16.061  0.0971 -0.2855  0.2008
31373W        W44787  10.945   0.741   2.479  0.0666  0.0710  0.1287
31374W        W44788  17.880   4.329  11.262  0.0112  0.3663  0.1228
31375W        W44789  17.221  17.256  11.321 -0.2598  0.0768 -0.3055
31376W        W44790   3.261  12.393  15.451  0.1767 -0.1485 -0.3309
31377W        W44791   8.930  10.177  14.798 -0.1424 -0.1350  0.1352
31378W        W44792   0.791  16.597   5.175  0.1687 -0.2165 -0.3118
31379W        W44793  17.010   9.261  13.559  0.0406 -0.0126 -0.0723
31380W        W44794   5.615  16.045   1.326 -0.2941  0.3857  0.1993
31381W        W44795   3.388   2.824  11.272  0.1491  0.2580  0.0594
31382W        W44796  16.606   0.235   0.186 -0.0696 -0.1670  0.1258
31383W        W44797  11.746   3.383  14.672  0.0139 -0.2159 -0.0341
31384W        W44798   3.306  12.958   3.796 -0.2869 -0.1780  0.1840
31385W        W44799   5.016   0.528  10.210 -0.0975 -0.2604 -0.1946
31386W        W44800   9.442  17.892  14.377  0.1003  0.1320 -0.3329
31387W        W44801   0.575  12.218  14.319 -0.1176  0.1182 -0.4098
31388W        W44802   4.398  12.850  10.932  0.3317  0.0223 -0.3130
31389W        W44803   4.578   2.549  10.781  0.1671 -0.3055  0.2080
31390W        W44804  14.843   5.532   1.498  0.0252  0.1611 -0.2499
31391W        W44805  11.533   5.448  12.474 -0.0390 -0.1204 -0.1601
31392W        W44806   5.989  16.067   1.807  0.1166  0.1180 -0.1072
31393W        W44807   3.308   2.074  12.223 -0.1322  0.0063  0.1700
31394W        W44808  12.917  15.423   4.141  0.0294 -0.3093 -0.2441
31395W        W44809   9.638   9.594   0.360 -0.1366 -0.0961  0.0435
31396W        W44810  10.420   9.858  16.343  0.0971 -0.1484 -0.1994
31397W        W44811   9.076   7.915   4.336 -0.0750  0.1086 -0.0604
31398W        W44812   5.587  11.381  16.460  0.1089  0.3718  0.0568
31399W        W44813   2.341   7.762  14.774  0.1718 -0.1078  0.1659
31400W        W44814  17.255  12.175  12.399 -0.0662 -0.1055 -0.2103
31401W        W44815   7.661  14.678   4.957 -0.0213  0.0759  0.0850
31402W        W44816   8.601   3.009   0.477 -0.1560  0.2984  0.0709
31403W        W44817  11.016   8.331   4.507 -0.0899 -0.0457 -0.1687
31404W        W44818  11.123   8.476  13.629 -0.0205  0.1949  0.1716
31405W        W44819  12.800   6.506  16.449 -0.1659  0.1790 -0.1962
31406W        W44820   1.366   0.465  13.527  0.0164  0.1354 -0.0286
31407W        W44821  14.164   7.268   0.214  0.2810  0.1792  0.0207
31408W        W44822   5.001  11.863   0.736  0.0925  0.1860  0.0614
31409W        W44823   1.003  11.862  14.624 -0.1841  0.3173  0.0194
31410W        W44824   2.935   0.581  13.400  0.1528 -0.0623 -0.3303
31411W        W44825   9.746  10.598   1.112 -0.0510  0.0556  0.0126
31412W        W44826   5.957  13.524   1.844  0.1586 -0.3751 -0.1096
31413W        W44827   3.865   5.892   4.194 -0.0115  0.1540 -0.0068
31414W        W44828   4.073   8.963   4.458 -0.1485  0.0284  0.5220
31415W        W44829  15.613  13.600  14.981 -0.0275 -0.2490  0.3821
31416W        W44830  16.515  15.082  13.021  0.2448 -0.1741 -0.1521
31417W        W44831  16.465  16.615  11.940 -0.0326  0.0404  0.1913
31418W        W44832  13.180   3.067  14.029  0.0858 -0.0538  0.0112
31419W        W44833  13.391   6.331   1.177  0.2227  0.1283 -0.2815
31420W        W44834  13.800   2.418   4.393 -0.0639  0.0456  0.0785
31421W        W44835  17.161   9.293   0.083  0.2068  0.0411 -0.1771
31422W        W44836   3.542   0.597  12.617  0.1463  0.0974 -0.0845
31423W        W44837   0.910  10.481  14.443  0.0879  0.0812 -0.0621
31424W        W44838   4.572  10.819   4.457 -0.2158  0.1814 -0.0182
31425W        W44839   6.051   4.151   6.403  0.0051  0.3010  0.0995
31426W        W44840   2.452   2.978   3.253  0.2168 -0.1082  0.0951
31427W        W44841  10.678   2.168  10.585  0.1084  0.1943 -0.1672
31428W        W44842   8.810   2.200   0.066  0.2758 -0.1126  0.1124
31429W        W44843  11.689  17.216   9.773 -0.2078 -0.0237 -0.1261
31430W        W44844   4.321  16.749  14.420  0.0282  0.2294  0.3088
31431W        W44845   1.301  15.131  12.943 -0.1562 -0.0459 -0.0141
31432W        W44846  15.975  15.775  12.784  0.0968 -0.1641  0.1609
31433W        W44847   6.787  15.883   4.796  0.0807  0.0151  0.0821
31434W        W44848  17.759  16.388  14.555  0.2761  0.1188 -0.1574
31435W        W44849  13.442  17.476  16.204  0.0620  0.1889 -0.2235
31436W        W44850   3.514   4.715  11.748 -0.2035 -0.3776 -0.1043
31437W        W44851  10.963   3.516  11.212  0.0985  0.0059  0.1148
31438W        W44852  11.644  13.285   4.524  0.0511  0.1875  0.1942
31439W        W44853   9.790  11.427  12.975  0.1450  0.0778 -0.2332
31440W        W44854  11.469   6.570   4.255  0.2332 -0.1625  0.1423
31441W        W44855   7.670  12.502  12.300  0.4903 -0.2071 -0.0935
31442W        W44856   0.506  15.455  15.774 -0.1058 -0.2124  0.0471
31443W        W44857   0.989   3.048   3.463 -0.0997  0.3203 -0.0697
31444W        W44858   3.172  12.064  14.719 -0.3079 -0.0881 -0.3018
31445W        W44859  18.038   4.845  14.711  0.0869  0.0964 -0.3970
31446W        W44860   1.265   1.276   1.122  0.1359 -0.2430 -0.3127
31447W        W44861   9.010   6.163   1.856 -0.1733  0.0045  0.1899
31448W        W44862  13.884   9.356   3.359  0.3669  0.2327  0.0385
31449W        W44863   4.077   4.538   6.205 -0.0499  0.1043 -0.0675
31450W        W44864  17.677   1.273   0.116  0.0339 -0.4890 -0.0028
31451W        W44865   6.452   9.431   3.432  0.1168 -0.0225 -0.0110
31452W        W44866   0.316   9.328   4.627  0.0693 -0.0560  0.3233
31453W        W44867  13.931  13.166  12.647 -0.0191  0.1149 -0.1664
31454W        W44868   9.801   0.883   4.474  0.4580  0.0441 -0.2251
31455W        W44869  15.573   5.318   5.584  0.2780  0.0312  0.1658
31456W        W44870   5.810  16.612  13.291  0.0792  0.0492 -0.1727
31457W        W44871  17.791  12.217  15.812  0.0044 -0.1789  0.2708
31458W        W44872   7.411  14.479   1.220  0.2584  0.0140 -0.2969
31459W        W44873  14.677   7.207   2.626 -0.2762 -0.0337  0.1855
31460W        W44874   5.818   0.317  13.676 -0.2497 -0.1625 -0.0533
31461W        W44875   5.080   4.257   2.951 -0.4361  0.2346  0.1859
31462W        W44876   9.620   9.244   1.752 -0.2052 -0.3918  0.4481
31463W        W44877   2.976   7.966   5.247  0.0116 -0.2000 -0.0396
31464W        W44878  16.745  15.404   0.326  0.0106 -0.0036  0.0572
31465W        W44879   8.175  17.956  11.384 -0.0375  0.0386 -0.2124
31466W        W44880   1.214  13.598  14.927 -0.1190 -0.0068  0.0337
31467W        W44881  10.076   5.318  10.926  0.2954 -0.0847 -0.0663
31468W        W44882  15.040  17.053  13.808 -0.0600 -0.1574 -0.1839
31469W        W44883   7.489   7.426   2.751 -0.0620 -0.1124  0.0202
31470W        W44884  16.611  12.252  11.265  0.1559  0.1654  0.2652
31471W        W44885   0.276   7.801   1.274  0.1290 -0.2093  0.1153
31472W        W44886   6.181   5.205  14.554  0.2340 -0.0015  0.0118
31473W        W44887  13.789  13.270   2.473  0.0668  0.2930  0.2229
31474W        W44888  16.423   6.181  16.298  0.1945  0.1976 -0.2061
31475W        W44889  17.490   5.620   3.591  0.2357  0.0504  0.1027
31476W        W44890  16.998  12.765  15.943 -0.0342  0.0866  0.3026
31477W        W44891  16.159  11.312  12.709 -0.0274  0.1896  0.1548
31478W        W44892  18.160  17.952  14.748  0.3028 -0.2509 -0.0134
31479W        W44893   5.912  18.072  12.172 -0.1509  0.0615  0.0011
31480W        W44894  12.815   1.134  13.293 -0.1957 -0.3549  0.2357
31481W        W44895   2.537  15.340   1.050  0.1856  0.1324  0.0688
31482W        W44896  14.705  11.199   4.210 -0.3261 -0.2483  0.3281
31483W        W44897   7.606   7.926  10.119 -0.1201 -0.0428  0.1376
31484W        W44898  15.438  11.467   0.230  0.1966 -0.1493 -0.1347
31485W        W44899  11.806  18.169   3.386 -0.1008  0.3776 -0.0740
31486W        W44900  12.989   6.413   3.570 -0.1107  0.1362 -0.5000
31487W        W44901  17.404  17.889   4.601 -0.1571 -0.1793 -0.0450
31488W        W44902   7.919   4.619  13.365  0.0951 -0.1433  0.1411
31489W        W44903   6.895   6.675   2.496  0.1465  0.1108 -0.1696
31490W        W44904   4.883  15.704   5.645  0.1655  0.0425  0.0763
31491W        W44905   2.527  10.803   6.314  0.0176  0.0676  0.0440
31492W        W44906  11.260  15.772   5.313  0.1661  0.2703 -0.1077
31493W        W44907  12.126  11.778   0.511  0.1800 -0.3265 -0.2720
31494W        W44908  10.572  10.889   3.141  0.0628 -0.1822  0.0967
31495W        W44909   6.017  17.621  11.661  0.2626  0.4892  0.1375
31496W        W44910   4.473  11.356   4.468 -0.3201  0.0373 -0.2100
31497W        W44911   4.814  13.087  12.778 -0.2062 -0.2987 -0.0175
31498W        W44912  17.949   6.036   0.486  0.1116  0.2193  0.1220
31499W        W44913   5.067   7.760  13.387 -0.1509  0.1148  0.5051
31500W        W44914   6.375  14.443  12.471 -0.2083  0.0236  0.1554
31501W        W44915  10.555   3.311   3.758 -0.3292  0.0556  0.1123
31502W        W44916   4.723  15.434  14.448  0.1095  0.1529  0.2528
31503W        W44917  16.924  11.553   5.130  0.1069 -0.1388  0.1878
31504W        W44918   3.055  16.444  16.298  0.0541  0.0640 -0.0948
31505W        W44919  15.994  12.219   3.321 -0.0712  0.2242 -0.1922
31506W        W44920  15.147   5.664   1.967 -0.0814 -0.1922 -0.2265
31507W        W44921  12.114   5.658  15.801  0.4345  0.1401 -0.0479
31508W        W44922  15.802   2.545   3.374  0.2687 -0.3368  0.1569
31509W        W44923   1.826   9.324   0.403 -0.2215 -0.1943 -0.0264
31510W        W44924  16.553   3.771   3.331  0.1773  0.0256 -0.1227
31511W        W44925   9.591  13.819  10.887  0.1983 -0.0594 -0.0538
31512W        W44926  14.812   2.393  14.871  0.0267  0.2102  0.0730
31513W        W44927   9.624  17.260   0.531 -0.1540  0.2011 -0.0686
31514W        W44928   8.464  15.488   3.903 -0.3469  0.0772 -0.0223
31515W        W44929  13.824   7.692  14.385 -0.0485  0.1860 -0.0404
31516W        W44930   3.653  12.099   5.097  0.0382  0.0433 -0.4534
31517W        W44931   9.942  16.782   0.507  0.0800  0.1022  0.2940
31518W        W44932   7.131   4.626   2.463 -0.2050  0.0507 -0.1471
31519W        W44933  13.116   7.955  16.367 -0.1206 -0.0230  0.1354
31520W        W44934   9.597  13.660   5.516  0.0112  0.0944  0.0710
31521W        W44935  15.756  14.240   6.606  0.0576  0.0918 -0.2748
31522W        W44936   9.982  13.459   0.715  0.0398 -0.1930 -0.0425
31523W        W44937   4.785  13.165   4.504 -0.0410 -0.1370  0.0317
31524W        W44938   7.655   9.591   4.695 -0.1246 -0.0007  0.1627
31525W        W44939  15.731   4.830  12.506 -0.0233 -0.0769 -0.0879
31526W        W44940  14.046  13.304  15.880 -0.2616  0.0839 -0.0074
31527W        W44941   9.091   0.971  13.676  0.2184  0.1139  0.2646
31528W        W44942   7.557  15.428   4.457 -0.2359 -0.3321 -0.0438
31529W        W44943  14.550  10.721   4.004  0.1206 -0.1515  0.2605
31530W        W44944  13.416   1.919   1.397  0.0823  0.2404  0.0656
31531W        W44945   6.779  14.817   4.796 -0.0911  0.4953  0.1874
31532W        W44946  11.535   9.649  11.283 -0.0441 -0.3173  0.0300
31533W        W44947   8.078  12.045  16.282  0.0913 -0.1556  0.2661
31534W        W44948   7.017  13.538  10.699  0.0453  0.0191 -0.1064
31535W        W44949   1.905   2.769   5.456  0.2863  0.3174  0.1292
31536W        W44950   6.638   3.208   2.639  0.0393 -0.2551  0.0639
31537W        W44951  11.637   5.697   5.465 -0.2859 -0.0916  0.0234
31538W        W44952   4.129  15.719  10.888 -0.2045 -0.0837 -0.0943
31539W        W44953   6.299  14.851  13.417  0.2228  0.1386  0.7004
31540W        W44954   5.861  10.489   2.956 -0.1519  0.1032 -0.0415
31541W        W44955  14.769   3.572   3.100 -0.2320 -0.1028  0.1521
31542W        W44956   5.687  15.951  12.261 -0.0113 -0.1097  0.2071
31543W        W44957   8.114  10.661  11.457 -0.0190  0.0286  0.0169
31544W        W44958   1.536  10.742  13.155 -0.2424  0.2602 -0.2089
31545W        W44959  14.878   3.496   4.644 -0.2812  0.2407  0.2893
31546W        W44960  12.930   3.950   0.259 -0.0199 -0.0205 -0.0532
31547W        W44961   0.587   0.887  15.114 -0.0933  0.0540 -0.2764
31548W        W44962  16.207   9.373   4.827 -0.0728 -0.0879 -0.2489
31549W        W44963  12.738   2.740   0.791 -0.3047  0.2013 -0.1448
31550W        W44964  16.085   4.493   4.696 -0.3141  0.1300 -0.0551
31551W        W44965   1.256  16.508  16.446  0.1775 -0.3081 -0.1739
31552W        W44966   9.073   4.542   0.190  0.0009  0.2085 -0.1858
31553W        W44967   0.936   3.921  15.308  0.2808 -0.0720  0.0966
31554W        W44968   6.662   5.215   1.224  0.0721  0.1534  0.0200
31555W        W44969  10.230   0.245  13.342 -0.3459 -0.2804  0.0773
31556W        W44970   3.553  17.956   4.166  0.0388 -0.2901  0.1835
31557W        W44971   7.694   9.600  15.709 -0.2435  0.1282  0.1400
31558W        W44972   9.313  13.022   4.921  0.2955 -0.1600  0.1610
31559W        W44973   2.061   6.487  14.138  0.3597  0.1035  0.0167
31560W        W44974  17.430   5.101  13.345 -0.3669  0.1080 -0.3729
31561W        W44975  10.751  18.006   4.380 -0.1308 -0.0661  0.1285
31562W        W44976   3.021  11.605  11.825  0.2846  0.1563  0.3270
31563W        W44977  17.345  11.785  11.998  0.1910 -0.3985  0.2579
31564W        W44978   1.110  12.180   5.421  0.1950  0.0392  0.0441
31565W        W44979   0.676   0.983   2.895  0.0940  0.1035 -0.3223
31566W        W44980  14.344   9.503   4.486 -0.0792 -0.3100  0.0660
31567W        W44981  14.789   4.044  16.406  0.0957  0.0611  0.1532
31568W        W44982  16.775   9.648   2.261  0.0623 -0.5035  0.0992
31569W        W44983   4.888   8.848  14.341  0.1113 -0.2075 -0.1838
31570W        W44984   2.230   6.248  10.681  0.1189 -0.0240 -0.2177
31571W        W44985  11.502   2.272   5.031 -0.0033 -0.0606  0.2972
31572W        W44986  10.663  11.835   0.260  0.2920 -0.0537  0.0138
31573W        W44987   0.610  17.068  10.232 -0.1551 -0.2635  0.3522
31574W        W44988  11.848  15.159   0.514 -0.0066 -0.0037 -0.1727
31575W        W44989   8.051  11.112  15.334  0.1103 -0.1874 -0.2683
31576W        W44990  18.002  17.216  16.219  0.2417  0.0232 -0.1508
31577W        W44991   7.296   2.208  13.711 -0.0061  0.1419  0.0681
31578W        W44992   6.138  13.211   1.037  0.2537  0.1769  0.2183
31579W        W44993  11.656   7.414  10.268  0.3772 -0.1759  0.0055
31580W        W44994  13.376   3.022  15.045  0.0208 -0.0179  0.0766
31581W        W44995   2.712  13.969   1.846 -0.2634 -0.5096 -0.0583
31582W        W44996  13.040   1.729   4.733 -0.2222  0.0599  0.0462
31583W        W44997  17.561   7.018  11.484 -0.2367  0.0838 -0.3107
31584W        W44998  12.806  12.006   1.080 -0.2521 -0.0708  0.2547
31585W        W44999  16.349   2.383  11.440 -0.0845  0.0235 -0.1216
31586W        W45000  16.892  10.560   5.628  0.3057 -0.0800  0.1096
31587W        W45001   1.840  17.644  14.361  0.0692 -0.1551  0.2283
31588W        W45002  12.541  10.931  14.617 -0.3249  0.1436  0.0984
31589W        W45003   9.747   4.245   5.237 -0.2008 -0.3092  0.3744
31590W        W45004   3.342   3.863   1.803  0.1399 -0.0337  0.1857
31591W        W45005   9.672  16.484  12.245  0.1977 -0.1143 -0.1566
31592W        W45006   1.811  16.540   0.082 -0.2480 -0.0166  0.1037
31593W        W45007  16.339   0.631   5.759  0.0892 -0.3502 -0.1097
31594W        W45008   2.243  13.717   1.833  0.0948 -0.0401 -0.2025
31595W        W45009  15.605  10.055   3.999  0.1343  0.0553 -0.1938
31596W        W45010   5.043   9.979   3.102 -0.2594  0.0670 -0.2159
31597W        W45011   5.280   6.915   1.531 -0.0985 -0.1403  0.0858
31598W        W45012   3.811  10.532   0.200 -0.3268 -0.1623  0.0313
31599W        W45013   5.798   3.835   2.494  0.0247 -0.0805 -0.2265
31600W        W45014   7.496   9.120  13.397 -0.0356  0.3557 -0.0746
31601W        W45015  12.904  12.796   0.014  0.1691  0.2862 -0.0268
31602W        W45016   4.362   3.175  11.265 -0.4652  0.1150 -0.0023
31603W        W45017  11.965   3.143   3.062 -0.2457  0.1091  0.2002
31604W        W45018   7.579   0.953   2.496  0.0347 -0.2129  0.1592
31605W        W45019   0.316  13.835  13.380  0.3274  0.0882  0.1651
31606W        W45020   0.717  11.860   2.741 -0.2450  0.0618  0.0664
31607W        W45021   8.064   3.514   1.105 -0.0142 -0.3253 -0.0021
31608W        W45022   5.792   5.679  15.917  0.0199 -0.0370  0.0356
31609W        W45023   6.651   5.804   2.108  0.0805  0.2058  0.3419
31610W        W45024   5.499   6.832  13.748  0.0934  0.1498 -0.3774
31611W        W45025  17.303  11.851  15.604  0.0597  0.2116  0.0903
31612W        W45026   2.813   2.749   2.337 -0.0946 -0.1319 -0.1036
31613W        W45027   8.602   0.093  11.249  0.3101 -0.1331 -0.1827
31614W        W45028   1.473  10.424  14.539 -0.0295  0.2109  0.1369
31615W        W45029   6.173  12.645   2.814 -0.0003 -0.0560 -0.0652
31616W        W45030   8.320  12.729  14.576 -0.0720 -0.0534 -0.1101
31617W        W45031  11.347  15.274  13.478 -0.1495 -0.2090 -0.1561
31618W        W45032  12.486   3.840  14.446  0.3194 -0.0559  0.0358
31619W        W45033  10.288   6.335  14.893  0.1856 -0.0393  0.2213
31620W        W45034  11.670  16.183   1.817 -0.1209  0.2164 -0.0641
31621W        W45035   1.788   1.648  13.947 -0.1330 -0.0010 -0.0486
31622W        W45036  14.089   4.938  12.278  0.3362 -0.1659  0.1030
31623W        W45037   5.359  14.071   4.275  0.0404  0.1044 -0.2056
31624W        W45038   5.060   2.456  10.481 -0.2303 -0.3249  0.1220
31625W        W45039   3.348   7.265   0.942  0.0796  0.4121  0.1520
31626W        W45040  13.409  15.071   1.637 -0.0066 -0.0128  0.0670
31627W        W45041   0.081  13.299  12.056 -0.0885  0.0750  0.1568
31628W        W45042   2.063  16.764  14.942  0.1516  0.2052 -0.1853
31629W        W45043   0.717   0.326   1.100  0.2986  0.1690 -0.1342
31630W        W45044   1.691  12.967   6.173  0.3384  0.1488 -0.0136
31631W        W45045   4.257   4.630   4.756  0.2314 -0.1413  0.0714
31632W        W45046   3.563   8.646   3.688  0.1525  0.1563 -0.1418
31633W        W45047   7.848  17.650  12.828  0.0490  0.1246  0.2379
31634W        W45048  14.287   5.405  14.914  0.2801 -0.2716 -0.0014
31635W        W45049   2.084  16.668  12.338 -0.2005  0.1515  0.0264
31636W        W45050  11.135  10.062   2.461  0.1219 -0.0024 -0.0288
31637W        W45051  11.730  14.821   1.960  0.4648  0.1058 -0.1278
31638W        W45052   8.931  14.988  13.380  0.2398  0.0718  0.2306
31639W        W45053   2.258   3.328  16.007  0.1617  0.0165  0.1024
31640W        W45054  17.469  10.289   0.017  0.1459 -0.4000  0.0212
31641W        W45055  12.432  12.708  10.347  0.1724 -0.0653  0.0443
31642W        W45056   6.035  10.808   0.825  0.1122 -0.0702 -0.0560
31643W        W45057   6.921   8.549   4.799 -0.2313 -0.1071 -0.0173
31644W        W45058   0.438   6.301  10.813 -0.1747 -0.2085  0.4556
31645W        W45059   0.860   4.841   4.415 -0.0818  0.1851  0.1271
31646W        W45060  10.448   2.497   0.154 -0.0649 -0.0214  0.2054
31647W        W45061   7.756   9.030   6.317 -0.1854  0.4585 -0.0536
31648W        W45062  15.678   0.122   3.966 -0.0425  0.2045  0.0898
31649W        W45063   7.623  15.905   0.305 -0.3293 -0.0170 -0.2107
31650W        W45064   6.693   6.060  11.169  0.1065  0.2644 -0.0499
31651W        W45065   5.526   9.395   4.162 -0.1185 -0.1013  0.1959
31652W        W45066  15.113   9.930  11.019 -0.0856 -0.0018 -0.1001
31653W        W45067   7.058  10.347   6.963  0.3141  0.0395  0.1216
31654W        W45068  11.069   8.001   0.400 -0.1364 -0.0585 -0.1178
31655W        W45069  15.747   5.452  15.969 -0.1239  0.1505 -0.3543
31656W        W45070  16.403   2.671   5.747 -0.1501  0.0625  0.0138
31657W        W45071   2.733   6.977   4.229  0.1364  0.4148 -0.0903
31658W        W45072  16.680  12.184   0.784 -0.1936  0.2134  0.1044
31659W        W45073  17.636  13.963  16.103 -0.1858  0.1497  0.2735
31660W        W45074   8.155  12.840  10.631  0.0391 -0.0003 -0.0567
31661W        W45075   3.194   8.521  10.567  0.1092 -0.2877 -0.1188
31662W        W45076   7.406   5.989   0.628 -0.1576  0.3013  0.0211
31663W        W45077   7.745  18.145  13.669 -0.1631  0.3253 -0.2754
31664W        W45078   8.869   6.733  14.868 -0.2297 -0.1141  0.2226
31665W        W45079   5.513   5.629   2.916 -0.2599 -0.0162  0.0001
31666W        W45080   9.764   1.585  10.724  0.0515  0.0003 -0.1011
31667W        W45081  16.299   3.506   1.980 -0.2106 -0.1373  0.0984
31668W        W45082   5.531   3.095  16.430 -0.0401  0.0345  0.1681
31669W        W45083   8.937  12.760  15.642  0.5443  0.1610 -0.2385
31670W        W45084  14.533  16.860  13.790  0.1197  0.0439  0.4312
31671W        W45085  10.508  13.458   0.637  0.1952  0.0539 -0.0703
31672W        W45086   0.174  12.357  15.756 -0.5623 -0.2516 -0.0237
31673W        W45087  13.079   6.206   2.037 -0.1920 -0.0293 -0.0390
31674W        W45088   1.191  10.820  14.225  0.3864 -0.1643 -0.2763
31675W        W45089  17.635  13.569  14.688 -0.1792  0.1398 -0.2224
31676W        W45090  18.069   1.379  10.298  0.2241  0.1294  0.2821
31677W        W45091   9.202   3.505  12.400 -0.1307 -0.0275 -0.2693
31678W        W45092   4.199  15.204   5.603 -0.0318 -0.1176  0.1308
31679W        W45093   8.571  11.541   2.291  0.2970  0.1007 -0.0640
31680W        W45094   2.067  15.149   2.063  0.2147  0.0594  0.0946
31681W        W45095  16.910   2.841  13.960  0.0530 -0.2303  0.1845
31682W        W45096  15.009  15.966  10.494 -0.2697  0.0052  0.3364
31683W        W45097  12.133   7.185   1.945  0.0834  0.1953 -0.0399
31684W        W45098   8.721   4.695  11.272 -0.0761  0.0751  0.1332
31685W        W45099   1.661   8.686  11.830 -0.1357  0.0278  0.2995
31686W        W45100  17.568  11.076   6.070  0.1352 -0.0889 -0.0498
31687W        W45101  17.585   8.249   1.039  0.0424  0.4205  0.0746
31688W        W45102   3.999  15.555  13.800 -0.1695  0.0236  0.3967
31689W        W45103   4.701  13.103   3.567 -0.1984  0.3347  0.0650
31690W        W45104  17.302  16.777  11.480  0.2035  0.0391 -0.1730
31691W        W45105  11.066   6.460  12.030  0.3014 -0.0505  0.0450
31692W        W45106   3.916   1.188   1.830  0.4097 -0.1547 -0.1579
31693W        W45107   9.589  10.868   1.628  0.1738 -0.1854  0.1445
31694W        W45108   1.816  12.478  14.405 -0.2368 -0.1126  0.0391
31695W        W45109  14.616   6.984  14.671 -0.1529 -0.1585  0.3124
31696W        W45110   4.885  13.663  14.594 -0.1607  0.1391 -0.2643
31697W        W45111  18.219   1.817   0.670 -0.0664  0.1377 -0.3207
31698W        W45112   2.166  13.006   4.781 -0.0390  0.0384  0.0338
31699W        W45113   8.808   3.243  16.332 -0.3810 -0.2252 -0.0986
31700W        W45114   8.657  16.742   0.535  0.0133 -0.1073  0.0293
31701W        W45115   3.533   4.019   5.768  0.0059 -0.1268 -0.0482
31702W        W45116   2.459   1.927  14.617 -0.0126 -0.0201  0.0512
31703W        W45117   9.682   3.252   0.319  0.0805  0.0370  0.0550
31704W        W45118   1.608  14.699   2.597 -0.2601 -0.1330 -0.0179
31705W        W45119   7.203  12.570   2.873  0.6219 -0.2660  0.1502
31706W        W45120  17.998  17.259  14.460 -0.0184  0.1503 -0.1864
31707W        W45121   8.731   6.674   4.761  0.0444 -0.0578  0.2135
31708W        W45122  17.744  14.447  10.987 -0.1921  0.0552  0.0635
31709W        W45123   1.453   4.671   1.960 -0.2801 -0.0572  0.2393
31710W        W45124  17.139  14.157  11.189  0.5137 -0.0710 -0.0780
31711W        W45125  17.717  16.415  13.884  0.1289  0.2285 -0.2116
31712W        W45126   6.480  17.645   4.939 -0.2887  0.0878  0.1761
31713W        W45127   6.630  10.713  16.206 -0.2231 -0.1169  0.1208
31714W        W45128  10.038  15.570  14.238  0.2482  0.0730  0.5109
31715W        W45129  16.108  16.313  13.917  0.2768  0.1778 -0.0204
31716W        W45130  17.177   3.678   0.747 -0.0072 -0.2579 -0.0737
31717W        W45131  15.354  11.612   3.552 -0.2249 -0.4818  0.0287
31718W        W45132  15.021  12.949  16.249 -0.1630  0.0873  0.0708
31719W        W45133  15.812  17.989  12.458  0.0826  0.1953 -0.0794
31720W        W45134   5.227   2.876  16.025  0.1546 -0.2372  0.0315
31721W        W45135   1.649  11.921   3.017 -0.2599 -0.2634 -0.1763
31722W        W45136  14.079  14.311   1.631 -0.0161  0.0451 -0.1936
31723W        W45137  12.422  16.573   3.477  0.2316 -0.0973  0.0110
31724W        W45138  10.175  14.430  14.671 -0.2323  0.1651  0.0375
31725W        W45139  10.348  14.260  11.555 -0.1687 -0.1518  0.0596
31726W        W45140   5.605  11.802  14.934  0.1428  0.0149  0.3019
31727W        W45141  14.176  12.816  16.061  0.1508 -0.0650  0.0617
31728W        W45142  14.466  13.807  15.592 -0.0513 -0.1823  0.1225
31729W        W45143   7.474   9.892  12.970  0.0650  0.0833  0.0418
31730W        W45144  11.157  14.045  13.195  0.1953 -0.2801 -0.0032
31731W        W45145   1.335   9.923   5.232  0.1421 -0.2628  0.0210
31732W        W45146  10.197   7.817  12.792  0.1262 -0.1487  0.0596
31733W        W45147   5.452  15.034  14.778 -0.3906  0.0926 -0.1690
31734W        W45148  13.948   5.679   4.620 -0.1714 -0.1557  0.0565
31735W        W45149  16.829   1.992  10.800  0.1393 -0.1103  0.2605
31736W        W45150   8.982   4.840   5.064  0.1406 -0.1580  0.0377
31737W        W45151   6.489  14.204  16.377  0.2344 -0.0260 -0.1403
31738W        W45152   0.749  15.707  12.430  0.0428 -0.0017  0.0845
31739W        W45153  17.907  10.774  14.052 -0.1075 -0.1555  0.3531
31740W        W45154   9.649   0.413   4.820 -0.1318 -0.0491 -0.1119
31741W        W45155   0.084  15.182  11.439  0.3159 -0.1049 -0.0065
31742W        W45156  14.376  16.775  11.608 -0.3325  0.0354  0.1770
31743W        W45157   7.837  16.091   5.694 -0.0861 -0.0375  0.0607
31744W        W45158   8.352  13.428   3.662 -0.2618  0.1465  0.1679
31745W        W45159  14.590   0.620   1.298  0.1597  0.1284 -0.1663
31746W        W45160   1.191   7.053  12.047 -0.0635 -0.1855 -0.5223
31747W        W45161   8.222  12.932   4.604 -0.3314 -0.1413  0.0633
31748W        W45162  14.694   1.898  12.668  0.0249  0.1005 -0.1675
31749W        W45163  10.602   4.868  12.344 -0.3565 -0.0786 -0.1579
31750W        W45164  16.077  17.082   6.254  0.5685  0.0132 -0.1027
31751W        W45165  15.166   2.385   1.034 -0.0502  0.1566  0.2202
31752W        W45166  15.397   7.645  15.533  0.0336  0.3195  0.1948
31753W        W45167  12.899   0.996   1.579  0.2334  0.0805  0.0011
31754W        W45168   2.639  12.512  12.714  0.0503  0.1595  0.0993
31755W        W45169   8.087  13.898  13.975 -0.2078  0.2380 -0.2429
31756W        W45170   9.480  12.193  10.926 -0.0047  0.3773 -0.1304
31757W        W45171  14.936  13.990  13.919  0.1973 -0.2310  0.0669
31758W        W45172   3.145  15.395  10.503 -0.1725  0.0456  0.0871
31759W        W45173   9.682  14.627  12.227 -0.2433  0.5013  0.0948
31760W        W45174   7.949  15.368   1.026  0.2028  0.0330  0.1600
31761W        W45175   3.192  15.266  11.566 -0.0779  0.0806  0.0206
31762W        W45176   8.317   8.632   5.709 -0.0963 -0.1691  0.0599
31763W        W45177   5.200   2.103  12.908 -0.0579  0.1674  0.2121
31764W        W45178   2.924   6.117  12.472 -0.2136 -0.3017  0.1519
31765W        W45179   1.093  17.195   2.582 -0.1935 -0.2638 -0.1939
31766W        W45180  17.037  16.576   0.882 -0.1651 -0.3554 -0.3457
31767W        W45181   2.909  17.027   2.660 -0.0838  0.0761 -0.1288
31768W        W45182  11.521   1.903  16.292  0.3576  0.1581  0.0439
31769W        W45183   6.734   0.546  11.872 -0.1351 -0.2856  0.2751
31770W        W45184   4.519  16.829   0.563 -0.0136 -0.0983  0.0777
31771W        W45185  17.377   0.903  14.863  0.0247 -0.1268  0.0819
31772W        W45186  10.133  16.401   0.771 -0.0526 -0.1101 -0.1936
31773W        W45187  10.370   4.540  10.265 -0.2766  0.1527 -0.1345
31774W        W45188   9.722   0.795  12.094  0.4644 -0.2411  0.3916
31775W        W45189  14.727  12.991  14.912  0.1028  0.1413  0.0103
31776W        W45190   5.041   2.537   4.315  0.0405  0.1959 -0.2252
31777W        W45191   4.437  16.547  15.894 -0.2640 -0.1531  0.3509
31778W        W45192   2.627  10.943   4.166 -0.0696 -0.1714  0.2376
31779W        W45193   9.125  17.206  11.001 -0.2664 -0.1224 -0.1412
31780W        W45194   9.007  18.071  11.374  0.4454  0.1096 -0.1046
31781W        W45195  15.575   0.384  14.870 -0.0419  0.0461 -0.2829
31782W        W45196  14.862  10.641  14.052  0.3221 -0.0055 -0.2486
31783W        W45197   2.496   3.102  12.025  0.1459 -0.1816 -0.0628
31784W        W45198   3.744   2.907   3.690  0.1267 -0.0683 -0.1689
31785W        W45199   3.533   2.936   1.006  0.0664 -0.2841 -0.0505
31786W        W45200  13.698   0.273   2.145  0.1380 -0.1007  0.0576
31787W        W45201   7.820   7.649  11.453 -0.0688 -0.1421  0.1586
31788W        W45202   7.465   3.068   3.244 -0.1132  0.4032  0.0002
31789W        W45203   6.689  11.163  13.790  0.0590 -0.0444  0.1571
31790W        W45204  10.973   1.130   0.749  0.2851 -0.1004 -0.3652
31791W        W45205  11.391   7.117   1.324 -0.2295  0.0546 -0.0117
31792W        W45206   3.729   1.177  14.256 -0.2115 -0.0261  0.1287
31793W        W45207   8.641  15.233   4.755 -0.2456 -0.1801  0.0387
31794W        W45208   0.359   5.458  14.421 -0.0603  0.0128 -0.1481
31795W        W45209  17.761  10.652   5.782  0.1457  0.0609  0.0188
31796W        W45210   7.774  14.946   0.151  0.4958  0.0394 -0.0075
31797W        W45211  17.295  12.193  11.693  0.2175  0.3322  0.1913
31798W        W45212  12.688  13.177  15.997  0.1209 -0.0900 -0.2418
31799W        W45213  14.782  13.919   5.147  0.1941 -0.2068 -0.1408
31800W        W45214   3.759  15.973   2.624 -0.1766 -0.1265 -0.4065
31801W        W45215  11.862   1.107  12.698  0.2623  0.3358  0.4522
31802W        W45216  14.986   2.623   4.381 -0.0519  0.0024 -0.1597
31803W        W45217  10.496   5.380   2.284  0.6284 -0.2666  0.0421
31804W        W45218  18.208   6.637  14.389  0.2994 -0.1438  0.2478
31805W        W45219   2.703   3.509  16.056 -0.0890 -0.2106  0.2735
31806W        W45220   5.360   8.175   2.838  0.0390 -0.0197  0.0408
31807W        W45221  11.496   4.113  12.682  0.0315  0.1756 -0.4299
31808W        W45222   6.774   2.707   3.748  0.1248 -0.0343 -0.0388
31809W        W45223  16.893   5.852   2.911  0.0077 -0.0792 -0.1826
31810W        W45224   2.892   6.135   2.243  0.0086  0.1863  0.1083
31811W        W45225   4.623  12.430  11.075  0.1302  0.0485  0.1913
31812W        W45226   7.389  17.770   2.711 -0.0147 -0.3667 -0.0757
31813W        W45227  13.840   4.738   0.924  0.4828  0.1901  0.1686
31814W        W45228   8.000  15.365  13.721 -0.4842  0.1922 -0.0352
31815W        W45229  17.191  13.326  12.410 -0.1616 -0.1358 -0.1025
31816W        W45230   7.150   9.839   4.545  0.0737 -0.1422 -0.3818
31817W        W45231  11.663   4.616  15.745  0.0089  0.0201  0.3703
31818W        W45232  11.702   6.659  12.594  0.2242  0.0500  0.2116
31819W        W45233   5.374   4.615   1.577  0.2727  0.1635 -0.0281
31820W        W45234  17.314   3.063   0.933  0.2634  0.0212 -0.2189
31821W        W45235  14.068   2.200  14.367  0.1561  0.1367 -0.1024
31822W        W45236  14.625  14.702  11.885  0.0436 -0.1598  0.1207
31823W        W45237  12.541   0.254   3.817  0.1263  0.1324 -0.1328
31824W        W45238   4.348  15.912  11.707  0.0857  0.3601  0.1414
31825W        W45239   7.814   0.198   9.869  0.0134  0.1226 -0.1458
31826W        W45240  15.394   9.770   1.043  0.0204  0.3070  0.2423
31827W        W45241  17.925  16.250   1.350  0.3265  0.0478  0.1041
31828W        W45242   0.143   2.306   2.867  0.0407 -0.4946  0.1216
31829W        W45243   9.497  12.399  12.513  0.0419 -0.0849  0.1597
31830W        W45244  16.823   4.304   2.215 -0.2762 -0.1028 -0.3549
31831W        W45245   5.628  16.085   0.502  0.2864  0.0058  0.2434
31832W        W45246  13.832   3.565  12.277 -0.0002 -0.0572  0.2570
31833W        W45247  15.513  10.619  11.330  0.0333  0.1567  0.0224
31834W        W45248   7.571   5.428   5.778  0.1464 -0.1357 -0.0242
31835W        W45249  12.970  18.220   4.736  0.1916  0.1802  0.1254
31836W        W45250  17.673   8.371   1.628  0.0097 -0.0447  0.2051
31837W        W45251  16.246  10.361  13.641  0.2692 -0.0213  0.1110
31838W        W45252  12.483  12.052  11.556 -0.0278 -0.0988  0.1776
31839W        W45253   7.283  18.046   4.971 -0.0609 -0.0434  0.1395
31840W        W45254   7.160   8.151   2.591  0.2849  0.4085  0.2864
31841W        W45255   7.952   7.181   2.933 -0.0814  0.0067  0.0213
31842W        W45256  14.919  15.692  16.357  0.1691  0.1065 -0.0047
31843W        W45257   0.580   0.716   4.421 -0.0523 -0.1487  0.2272
31844W        W45258  10.961   7.644   5.187  0.0471  0.0603  0.0781
31845W        W45259  13.388   8.940   3.695 -0.0721  0.2496 -0.3006
31846W        W45260   5.373   7.922  12.096  0.3312 -0.2667  0.0335
31847W        W45261   4.692   1.348  16.463 -0.2068  0.0682  0.1144
31848W        W45262  15.495   9.478  13.041  0.1863 -0.0307 -0.4145
31849W        W45263  12.513   0.036  15.871 -0.1384 -0.2617  0.0051
31850W        W45264  11.658   7.699   3.739 -0.2015  0.1140 -0.1352
31851W        W45265   0.208   6.465   3.862  0.0346 -0.0961  0.1644
31852W        W45266   6.053  17.365  13.837 -0.0611  0.1123 -0.2014
31853W        W45267  15.784   3.788  13.193  0.0407  0.0900 -0.0254
31854W        W45268  15.795   0.829   1.955 -0.0350  0.0878 -0.2470
31855W        W45269   1.639   7.989  12.520 -0.0341  0.0026 -0.1097
31856W        W45270  11.848   7.914   2.241  0.0570 -0.0644  0.0381
31857W        W45271  12.449  14.723   4.747  0.1099  0.0558  0.0601
31858W        W45272   0.935  14.257  14.563  0.0082 -0.1663  0.0184
31859W        W45273  14.176  13.155   5.789  0.1714 -0.0173  0.0653
31860W        W45274   5.861  12.112   5.429  0.1963  0.0925 -0.0778
31861W        W45275  15.518  18.133  14.173  0.0267  0.0225 -0.1671
31862W        W45276   3.570   5.314  15.108  0.0675 -0.1624  0.0213
31863W        W45277  10.852   0.224   0.030  0.1061  0.0061  0.0266
31864W        W45278  11.837   6.677   2.087  0.0075  0.2313 -0.2328
31865W        W45279   3.510   2.016   1.217 -0.2719  0.1236 -0.1355
31866W        W45280   4.500  11.093   5.888  0.0542 -0.3455  0.1236
31867W        W45281  12.982  18.216   1.644  0.0066  0.1058 -0.0424
31868W        W45282   1.390  14.600   3.551  0.0671 -0.0259  0.1975
31869W        W45283   0.006  17.459   5.062  0.1484 -0.3156  0.1488
31870W        W45284   3.255  12.115   1.871 -0.3064  0.1872  0.3506
31871W        W45285   5.039  13.162  14.595  0.1672  0.0171 -0.1924
31872W        W45286  16.804   5.060  14.768  0.0775  0.1791  0.0384
31873W        W45287  14.425  13.159   3.559  0.3086  0.0693  0.0082
31874W        W45288  12.796   0.882   4.461  0.1346  0.0564  0.2706
31875W        W45289   7.639   5.130   3.062 -0.3078 -0.1396  0.2371
31876W        W45290   7.124  10.206  11.756 -0.0701  0.0077 -0.2351
31877W        W45291   1.713   9.401  15.329  0.1421 -0.1638 -0.2925
31878W        W45292  10.168  16.464  14.244 -0.0031  0.0440  0.0277
31879W        W45293   5.514  18.038  10.729  0.0018 -0.1569 -0.0537
31880W        W45294  11.625   4.277  11.832  0.1830  0.0506  0.3885
31881W        W45295   7.543  10.647   2.411  0.1194  0.0393  0.0111
31882W        W45296  15.486  15.637   3.407 -0.0012 -0.1598  0.0339
31883W        W45297   1.809   5.015   6.232  0.0192  0.0882 -0.2445
31884W        W45298   6.704  13.265  16.391  0.0059  0.2524  0.1024
31885W        W45299   7.161  12.318  14.202 -0.0765  0.0248 -0.0090
31886W        W45300   4.655  16.007   3.399  0.2847  0.1045 -0.0020
31887W        W45301   8.057   3.897  11.285 -0.2020 -0.6161  0.1493
31888W        W45302   6.151  16.494  14.178  0.2213 -0.0008 -0.3105
31889W        W45303   1.365   9.336   4.749  0.0912 -0.0431  0.2265
31890W        W45304   7.888  15.435   2.051  0.0675 -0.2108  0.0456
31891W        W45305  13.594   5.923   0.344 -0.1331 -0.0095 -0.0230
31892W        W45306   5.375   7.095   0.422  0.2229 -0.1871 -0.0390
31893W        W45307  17.206   6.610  15.997 -0.0585 -0.3047  0.1785
31894W        W45308  11.832  11.023  10.602 -0.1158 -0.0340 -0.3240
31895W        W45309   1.719   8.400   2.210  0.0619  0.0850 -0.1279
31896W        W45310   1.332   4.126   1.287  0.1766  0.1123  0.1112
31897W        W45311   5.819  10.859   3.750  0.1348 -0.0040 -0.3887
31898W        W45312   1.380   9.949   3.845  0.0095 -0.0245 -0.1703
31899W        W45313  16.325   1.606  10.983  0.0429  0.0024  0.3591
31900W        W45314  17.025   9.249  13.005  0.1407 -0.0082 -0.0131
31901W        W45315   6.294  15.294   1.343 -0.0637  0.1515  0.0251
31902W        W45316   6.917  12.475  15.857  0.0421 -0.2315  0.3156
31903W        W45317  14.611   0.602  15.076  0.1064 -0.1696  0.0086
31904W        W45318  14.832  15.921   1.592 -0.0939 -0.4310 -0.2744
31905W        W45319   4.016  10.878  10.778  0.1532 -0.0837 -0.0733
31906W        W45320   8.291  14.464  14.501  0.2196  0.0506 -0.2354
31907W        W45321   7.920   1.687   0.546 -0.1012 -0.1685 -0.1619
31908W        W45322   2.493  14.987   5.643 -0.0303  0.0691 -0.1112
31909W        W45323  17.834  17.387  11.690 -0.2724 -0.1979  0.1339
31910W        W45324  12.825  17.042   0.885 -0.2870  0.1359  0.1960
31911W        W45325  15.495   7.114  11.299 -0.2844 -0.1587 -0.1670
31912W        W45326   6.372   1.088  11.567 -0.1191 -0.1467 -0.3257
31913W        W45327   1.675   1.679  13.459  0.0590 -0.1724 -0.1306
31914W        W45328   7.482   6.560  15.515 -0.0717  0.0254  0.0297
31915W        W45329  16.088  15.006   2.980 -0.2447  0.0927  0.2697
31916W        W45330   8.207   0.206  10.323 -0.1069 -0.0345  0.0881
31917W        W45331   7.000  17.920   2.401 -0.2864  0.1013 -0.0758
31918W        W45332   2.092   9.812   2.181 -0.1746 -0.1406  0.3772
31919W        W45333  14.392   1.035  13.001 -0.2375 -0.1279 -0.2610
31920W        W45334  12.837   1.343  10.594 -0.2670  0.2299  0.0944
31921W        W45335  11.758   6.907   1.656  0.0020  0.2674 -0.2627
31922W        W45336  10.467  12.827  12.657 -0.0163 -0.1147  0.1423
31923W        W45337   1.906   8.027  15.712 -0.0304 -0.0292 -0.0866
31924W        W45338   2.497   5.054  11.916 -0.3228  0.1049  0.0974
31925W        W45339   6.090   3.602   0.298  0.1504  0.3019 -0.0609
31926W        W45340  12.221   9.029   6.234 -0.2771 -0.3062  0.1358
31927W        W45341   7.883  14.320  10.844  0.0741  0.1633 -0.1416
31928W        W45342   6.063  17.193  12.972  0.0218 -0.0804 -0.0990
31929W        W45343   8.733   7.072   3.438  0.2598 -0.0005 -0.0788
31930W        W45344   0.825  12.565  15.325  0.0884  0.0382  0.1340
31931W        W45345   3.326   3.927  14.128  0.1020 -0.1678 -0.1109
31932W        W45346  15.828   8.510   5.025 -0.1333  0.1754 -0.1013
31933W        W45347   3.353  12.667  10.867  0.0070 -0.1439  0.0095
31934W        W45348  13.980   3.139   0.124 -0.2578 -0.0074  0.1948
31935W        W45349   1.257  13.054  11.452  0.1495  0.0758 -0.0052
31936W        W45350   2.569   2.783   2.792 -0.1190  0.1447 -0.2854
31937W        W45351   7.409  12.041   0.418  0.0167  0.0951  0.1902
31938W        W45352  13.293   0.959   2.821 -0.3155 -0.0241 -0.0286
31939W        W45353   1.826  10.291   3.063  0.2216  0.0008 -0.2490
31940W        W45354   8.716  15.595   2.164  0.0529 -0.1085 -0.1804
31941W        W45355   0.490   8.009   3.610 -0.0304 -0.0270 -0.0688
31942W        W45356  11.972  18.117  15.053 -0.2631 -0.3659  0.0573
31943W        W45357  12.993   2.489  11.878 -0.1425  0.2717  0.0968
31944W        W45358   4.487   5.834  14.151 -0.1771  0.0661  0.2394
31945W        W45359  14.218   5.589  13.919  0.4810 -0.2695  0.1652
31946W        W45360   4.401   5.028  15.377 -0.2460  0.0200  0.1494
31947W        W45361   2.299   3.594   1.384  0.0116 -0.1380 -0.1779
31948W        W45362   8.316   0.213   2.612 -0.2352  0.4127  0.1700
31949W        W45363   0.858   4.786   2.664 -0.0125 -0.2788  0.0096
31950W        W45364   1.673  17.388  12.959  0.0958 -0.2204  0.1706
31951W        W45365  11.919  15.712   9.911  0.3114  0.0736  0.0906
31952W        W45366   7.822  17.692  11.118 -0.4374 -0.1600  0.4573
31953W        W45367   1.270   2.758  11.518 -0.2118  0.3876  0.0831
31954W        W45368  17.878   0.811  12.277  0.0616 -0.0385 -0.1180
31955W        W45369   1.982   0.984  11.628  0.0890  0.0359  0.1429
31956W        W45370   4.545   7.743  13.400  0.0456  0.0001  0.2761
31957W        W45371  10.909   8.541  11.888  0.2434  0.2770 -0.4652
31958W        W45372  11.991   2.048   2.128 -0.2016  0.0548 -0.2253
31959W        W45373  15.284   6.083   1.561 -0.1714  0.1141 -0.0429
31960W        W45374  11.868   9.387  12.160  0.1791 -0.0566 -0.2067
31961W        W45375   1.784  11.447   3.029 -0.3940  0.1686 -0.1847
31962W        W45376   0.509   3.339  14.395  0.2099 -0.3206  0.0123
31963W        W45377   5.989  16.895  14.496 -0.1714  0.1887  0.1326
31964W        W45378   0.800   9.276  14.278 -0.4306  0.0239  0.0901
31965W        W45379  10.801  14.539   0.844 -0.0434  0.0994  0.1729
31966W        W45380   6.097   0.396   2.549 -0.0027  0.1238  0.2117
31967W        W45381   7.835   7.714   2.026  0.1010 -0.3770  0.0077
31968W        W45382   2.808  14.978  16.287 -0.1083  0.1824  0.2416
31969W        W45383   5.032  17.937  15.910 -0.1052 -0.1096 -0.1511
31970W        W45384   5.367   3.687   0.586 -0.0177  0.0361 -0.1590
31971W        W45385   9.712  12.450  12.083 -0.1442 -0.0680 -0.0623
31972W        W45386   2.565   9.468  12.256  0.0053  0.0294 -0.0498
31973W        W45387  13.556  15.136  11.179 -0.0033 -0.0314 -0.1558
31974W        W45388   0.522  17.826   4.636  0.2240  0.2124 -0.0862
31975W        W45389   1.419  13.384   1.345 -0.0199 -0.0187  0.1332
31976W        W45390   8.895   4.487   1.148 -0.1149  0.4804 -0.1001
31977W        W45391   0.768   6.497   5.033 -0.0530 -0.2563 -0.1353
31978W        W45392  15.733  13.043  14.977 -0.2771  0.2676  0.0417
31979W        W45393  11.816  12.210  15.153  0.1687 -0.2481 -0.0320
31980W        W45394   0.975   2.845   4.364  0.1605 -0.0199  0.1211
31981W        W45395   2.751  11.817   0.484  0.1217  0.0980 -0.1540
31982W        W45396   2.256  10.165   0.373  0.2529 -0.0595 -0.0699
31983W        W45397  12.358  10.948   1.238  0.1677 -0.0576 -0.3801
31984W        W45398   9.584   2.886  15.761  0.4821 -0.3290 -0.0452
31985W        W45399   9.678   1.895   9.759  0.2847  0.1668 -0.2937
31986W        W45400  15.908  14.662  11.365 -0.1410  0.0495  0.0262
31987W        W45401   3.021   3.085  13.715 -0.3673 -0.1136 -0.1069
31988W        W45402  12.162   5.148   1.103 -0.0904 -0.3855  0.3570
31989W        W45403   6.048   9.526   3.782 -0.0813 -0.2031 -0.3971
31990W        W45404  17.759  15.202   3.532  0.0099 -0.2419 -0.0740
31991W        W45405  15.919   5.610   6.294  0.0702 -0.2130 -0.1807
31992W        W45406   2.320  11.034  15.475  0.0689  0.0020  0.0641
31993W        W45407  13.102   8.611   3.384  0.0736 -0.2133 -0.0867
31994W        W45408   7.128  11.659  11.433  0.2177  0.1282 -0.0078
31995W        W45409  13.552  10.959   3.785  0.0925 -0.0283 -0.1717
31996W        W45410   0.282   4.313   0.756 -0.0044 -0.0399 -0.1522
31997W        W45411   6.070   1.017   0.217 -0.2658 -0.0280  0.0950
31998W        W45412  10.437  14.373   3.675  0.1884 -0.1852  0.0000
31999W        W45413   5.225   7.089   2.731  0.1498  0.0808  0.1020
32000W        W45414   6.893   7.809   3.534  0.1906  0.0362  0.1020
32001W        W45415  12.141  11.280  15.231 -0.0192 -0.0656  0.2196
32002W        W45416  18.130   3.500   1.986 -0.3161  0.0735 -0.0980
32003W        W45417   3.480   1.524   1.068  0.0938 -0.0356 -0.0370
32004W        W45418   5.852   7.814  12.801  0.0875 -0.1559  0.3513
32005W        W45419   1.627   4.657   3.106  0.0812 -0.1737  0.0243
32006W        W45420  11.670  10.731   2.228 -0.0232 -0.1815 -0.0263
32007W        W45421   0.136  14.281  14.269 -0.2932 -0.2707  0.0319
32008W        W45422   4.702   9.478   1.044 -0.1568  0.0930 -0.0320
32009W        W45423  17.112  13.385   3.403 -0.1747  0.0372 -0.0088
32010W        W45424  11.540   7.590   2.004  0.2364 -0.2251  0.3229
32011W        W45425   9.757   3.827   2.807  0.0161  0.2482  0.0774
32012W        W45426   7.651   3.145  12.753  0.1398  0.0119  0.0354
32013W        W45427  11.759   1.801  11.227  0.0565  0.1859 -0.2801
32014W        W45428  11.242  13.800   2.877 -0.0197  0.1647  0.0716
32015W        W45429   5.261  17.496  12.417 -0.1172  0.0510 -0.0593
32016W        W45430   2.454  13.322  13.495 -0.1461 -0.1202 -0.0968
32017W        W45431   3.221   3.335  10.359 -0.0118  0.0051 -0.1651
32018W        W45432  16.626   5.966  14.755  0.1748 -0.2373  0.1244
32019W        W45433   7.587   7.776   6.159 -0.0294  0.0914 -0.1127
32020W        W45434   4.215  16.069   5.508  0.4118 -0.4838  0.1527
32021W        W45435   1.063   0.996  12.731  0.0037  0.1982  0.0709
32022W        W45436   2.545   5.795   0.312  0.0114 -0.0598  0.3671
32023W        W45437   2.472  13.063  13.985  0.1083 -0.0660 -0.1389
32024W        W45438   1.934   2.369   3.848 -0.0253 -0.0458 -0.0017
32025W        W45439   6.845   4.176   2.689  0.1835  0.3905 -0.0774
32026W        W45440   4.100   4.893  11.342  0.0489  0.0421  0.0065
32027W        W45441  17.735  12.557  10.848 -0.0075 -0.0660  0.1758
32028W        W45442  10.065  15.083   1.224 -0.1511  0.2839 -0.1073
32029W        W45443  15.201   2.161  16.470 -0.0853 -0.2998 -0.2102
32030W        W45444  11.387   7.354  12.095 -0.3803  0.0369  0.0414
32031W        W45445   9.051   4.426  14.209  0.0380  0.2092  0.1809
32032W        W45446  15.441   8.137  10.404 -0.0086 -0.4863  0.4076
32033W        W45447  13.033   6.280   2.543 -0.0327  0.3239  0.2650
32034W        W45448   7.224   1.038  16.183  0.2088  0.0427  0.4938
32035W        W45449  17.328  16.320  14.247 -0.4311 -0.1611  0.1386
32036W        W45450   8.960   7.710  15.061  0.2308  0.0396  0.1577
32037W        W45451   3.072  18.106   6.111  0.1109  0.1578 -0.4733
32038W        W45452   1.879   8.578  14.897  0.4086  0.2640 -0.1503
32039W        W45453   8.612  11.757   5.473  0.3725  0.0494  0.1150
32040W        W45454   8.158  14.071   5.841  0.0921  0.3613 -0.1178
32041W        W45455   9.466   7.421   1.514 -0.0186 -0.0753  0.1329
32042W        W45456  17.583   9.338   4.276  0.0046 -0.2938 -0.2095
32043W        W45457  13.197  10.242   5.167 -0.0816  0.2457  0.2266
32044W        W45458  14.029   9.337   0.555  0.0613 -0.0447 -0.0522
32045W        W45459  16.317  13.481   1.394 -0.0945 -0.1537  0.0992
32046W        W45460   3.164  16.942   4.018 -0.3659 -0.0418 -0.3739
32047W        W45461   0.741   6.913  15.387  0.2947  0.3151  0.0336
32048W        W45462  17.634   2.030   5.251 -0.0793  0.2751 -0.5603
32049W        W45463   5.410   3.031  15.007  0.0466 -0.0664 -0.0303
32050W        W45464   7.627  17.816   1.673 -0.0491 -0.2953 -0.1668
32051W        W45465   7.737  12.853   4.210  0.1110  0.2678  0.0542
32052W        W45466   9.066   5.370  13.672  0.1500  0.1717  0.1744
32053W        W45467  10.539   8.586  11.112  0.0814  0.0230 -0.3022
32054W        W45468  12.923   5.438   2.604 -0.1110 -0.1243 -0.4593
32055W        W45469   1.497  14.074   1.393 -0.3186 -0.1215 -0.2849
32056W        W45470  15.712  11.346   4.366 -0.0819 -0.1299 -0.0448
32057W        W45471   6.532   7.077   6.718 -0.3743  0.4008  0.1359
32058W        W45472   9.169   2.724  10.078  0.1065 -0.0698 -0.2750
32059W        W45473  16.006  17.579  12.183 -0.1109  0.0530 -0.0892
32060W        W45474  14.811  11.551  12.647  0.2477  0.2074 -0.2709
32061W        W45475   5.309   6.708   3.135 -0.1904  0.1882 -0.3317
32062W        W45476  13.455   0.388  14.943 -0.0957  0.1820 -0.0148
32063W        W45477  12.642   5.185  12.106  0.0708 -0.1575 -0.3468
32064W        W45478  12.257   1.276   3.644  0.1968  0.1828  0.1081
32065W        W45479   6.209   3.135   2.135 -0.1761  0.4869  0.2939
32066W        W45480  15.794  15.460   2.871  0.0036 -0.1038  0.1428
32067W        W45481   0.678   4.378  13.611 -0.0095  0.0839  0.2134
32068W        W45482  15.747   7.159  14.589  0.4467 -0.2177 -0.0490
32069W        W45483  10.556  10.399   3.936  0.0203 -0.1207 -0.1062
32070W        W45484   0.965  14.051  14.068  0.1072  0.0278 -0.0628
32071W        W45485   5.956  10.149  13.025 -0.0600 -0.5097  0.0743
32072W        W45486  11.488   4.636   2.935 -0.2516 -0.1021 -0.0761
32073W        W45487   3.469   3.327  11.161  0.1435 -0.2625  0.2492
32074W        W45488  15.689   0.242  12.620 -0.0026 -0.1497  0.1234
32075W        W45489   2.279   2.413   5.520  0.1399 -0.2077 -0.1932
32076W        W45490   2.949   4.294  13.039 -0.1022 -0.5039  0.2921
32077W        W45491  18.195  14.513   6.129  0.0436 -0.1683 -0.1650
32078W        W45492  14.646   8.851  13.433  0.2019  0.0515 -0.1739
32079W        W45493  13.388   4.206  12.019  0.4962 -0.2993  0.2361
32080W        W45494   3.773  10.452   1.247 -0.0526 -0.4059 -0.0413
32081W        W45495  17.265  11.255  11.053  0.2863 -0.1799  0.0553
32082W        W45496   4.051   0.752  16.065  0.0409 -0.6296 -0.2099
32083W        W45497   3.018   1.672   2.828 -0.0762  0.0759 -0.0508
32084W        W45498   1.284  11.286   3.694 -0.0745 -0.1880  0.0906
32085W        W45499  13.671   7.922   2.156 -0.0801 -0.1641 -0.2717
32086W        W45500   1.966  14.161   1.050 -0.1449 -0.1781 -0.2207
32087W        W45501  14.639   5.528  13.448 -0.0111 -0.0565  0.1568
32088W        W45502   2.034  16.538  15.781 -0.2878  0.1467  0.0582
32089W        W45503  18.063  13.545   3.924  0.2375 -0.1598  0.1330
32090W        W45504  13.426   1.247  15.044 -0.2865 -0.0521  0.0324
32091W        W45505  10.214   9.863   6.377 -0.1643  0.0513  0.3557
32092W        W45506   5.403   2.003   1.583  0.0323  0.0539  0.1990
32093W        W45507   1.978   6.342  14.698 -0.1144 -0.1724  0.1127
32094W        W45508   2.050   3.132   1.871  0.0061  0.0213  0.2016
32095W        W45509  14.463  12.864  14.351 -0.3430  0.0153  0.1231
32096W        W45510   9.063   0.764   3.945  0.2333  0.0840 -0.0914
32097W        W45511  16.896   4.561   4.624 -0.1248 -0.3320 -0.0372
32098W        W45512  12.906  14.239  14.006 -0.0975 -0.1542 -0.2462
32099W        W45513   9.672   0.628   2.721  0.0836  0.2036 -0.1669
32100W        W45514  13.459   3.254  12.381  0.0996 -0.1004 -0.0597
32101W        W45515   9.364   2.464  12.713 -0.0921 -0.0329  0.2213
32102W        W45516  16.842  12.631  11.586  0.4246 -0.2154 -0.1352
32103W        W45517   8.977   2.412  14.532 -0.1021 -0.1019  0.0442
32104W        W45518  13.307  12.855   3.774 -0.0879  0.3062  0.0331
32105W        W45519   7.995  15.432   4.142 -0.0288 -0.2486 -0.3543
32106W        W45520  10.593   2.015   0.082  0.0002 -0.0922  0.3107
32107W        W45521   9.655  16.350  15.532  0.0276  0.0291  0.0893
32108W        W45522   4.218  14.335   2.399 -0.2682  0.2703  0.1512
32109W        W45523  17.689  10.173  14.945  0.1687  0.0208 -0.0605
32110W        W45524  16.791   9.103   5.167 -0.0004  0.3870 -0.0058
32111W        W45525   4.628   7.555  12.190 -0.2557 -0.0773 -0.2146
32112W        W45526   7.837  13.523  13.091 -0.1463 -0.1560 -0.3271
32113W        W45527   2.794   8.638  13.614  0.1079 -0.1800 -0.1730
32114W        W45528   5.357  13.240  10.909  0.1593 -0.0931  0.0534
32115W        W45529  14.453   1.933   2.350  0.0866  0.1976 -0.2263
32116W        W45530  14.546  17.964   3.069 -0.1020  0.0502 -0.1998
32117W        W45531  15.478  15.177  11.354 -0.1656  0.3010 -0.3911
32118W        W45532  15.058   1.013   4.438  0.0671 -0.1210  0.1911
32119W        W45533   1.172  16.697  11.907  0.0770  0.0173 -0.2711
32120W        W45534   3.868   8.197  15.470  0.1316 -0.0726  0.0531
32121W        W45535   4.279   0.088   1.194  0.1519 -0.3805  0.3332
32122W        W45536   3.748   0.806  12.215 -0.1361  0.0724 -0.0922
32123W        W45537   3.297  10.028   3.494 -0.2639  0.4479  0.1429
32124W        W45538  16.645  16.529   3.740  0.0872 -0.0000 -0.1673
32125W        W45539   1.033  11.590  11.405 -0.0629  0.2372 -0.2249
32126W        W45540   7.642  14.092   6.002 -0.0257 -0.0036  0.0419
32127W        W45541   7.990   3.345  13.783  0.1158  0.1554  0.0521
32128W        W45542  15.224   1.407   4.168 -0.1960 -0.0772 -0.4667
32129W        W45543   7.548  10.252   0.446  0.0134 -0.2404  0.1094
32130W        W45544  10.545  12.166   1.914  0.1426 -0.1041  0.0582
32131W        W45545   8.528  12.758  11.964 -0.2520 -0.1863  0.1383
32132W        W45546   9.889   2.908  16.229  0.0036 -0.0178  0.1695
32133W        W45547   0.526   0.820   3.894  0.0180 -0.1097  0.0683
32134W        W45548   0.027   4.024   1.626  0.0700  0.1523  0.2506
32135W        W45549   0.768  11.401   2.482 -0.2115 -0.2301  0.2517
32136W        W45550   2.271   1.359  15.826  0.0999 -0.4840  0.1035
32137W        W45551  11.474  13.345   4.023  0.1613 -0.1019 -0.1230
32138W        W45552  12.129  17.827  11.202 -0.2287 -0.1143 -0.0613
32139W        W45553   4.157  12.161  14.628  0.3716 -0.3249 -0.0716
32140W        W45554  15.521   0.731  14.479  0.1378  0.2840 -0.3663
32141W        W45555   0.903   8.775  14.332 -0.1353  0.1607 -0.3630
32142W        W45556  17.763   4.734  12.569  0.1579 -0.2905 -0.0982
32143W        W45557  11.036  16.535  11.011 -0.0422  0.1872  0.1574
32144W        W45558  13.164  16.280  11.490  0.2059  0.0996 -0.0206
32145W        W45559   8.015  10.082  14.457 -0.0605 -0.0308  0.0482
32146W        W45560   5.705  17.968   1.733  0.0538  0.0840  0.1753
32147W        W45561  13.589  13.968   0.107 -0.0519  0.2428 -0.1721
32148W        W45562   4.158   2.321  14.087  0.1341 -0.1591  0.0420
32149W        W45563   1.939   4.530  11.383  0.0877  0.0871  0.0381
32150W        W45564   1.254   1.951   5.610 -0.1851 -0.0717 -0.1410
32151W        W45565  16.494  17.213  14.638 -0.2953 -0.0930 -0.0063
32152W        W45566   3.032   8.668   1.711 -0.1148 -0.1286 -0.0139
32153W        W45567  16.770   0.480  11.192  0.1473  0.3773  0.2725
32154W        W45568  16.774   5.859  11.276  0.0023 -0.1770  0.1004
32155W        W45569  15.173  17.919  13.827 -0.1832  0.1482  0.3496
32156W        W45570  16.861  15.745   3.146  0.3249  0.0930  0.0160
32157W        W45571  11.854   8.042   5.289 -0.0395 -0.0829 -0.1335
32158W        W45572  16.190  17.328   5.257 -0.0118 -0.1980 -0.2469
32159W        W45573  14.243   3.968  10.943 -0.0543 -0.0338  0.3870
32160W        W45574  13.227   3.525  15.855 -0.2266 -0.1516 -0.0805
32161W        W45575   5.097   8.358  12.326 -0.3184  0.3133  0.0070
32162W        W45576   5.557   3.302  13.434 -0.1432 -0.0872 -0.0948
32163W        W45577   0.010  15.026   1.686 -0.0820 -0.2423 -0.2778
32164W        W45578  10.862  14.623   3.685 -0.1400 -0.1016  0.0104
32165W        W45579   5.198   8.125   6.488 -0.0558 -0.1333 -0.0690
32166W        W45580  15.886   4.092   5.133 -0.2285  0.0690 -0.1560
32167W        W45581  14.919   6.811   2.359  0.3128  0.1639  0.1614
32168W        W45582   2.672  15.956  15.728  0.2912  0.2050 -0.2575
32169W        W45583  12.394  12.952  14.293  0.0845  0.0408  0.0668
32170W        W45584  16.100   0.199   0.097  0.2919 -0.0964 -0.0421
32171W        W45585   6.697  10.330   2.583 -0.1120  0.0587  0.0343
32172W        W45586   1.558   0.990  15.214  0.3572 -0.1641  0.2967
32173W        W45587  11.456   1.160   4.718 -0.2064  0.0906  0.0658
32174W        W45588   3.423  13.515  14.062  0.6297 -0.0924  0.1890
32175W        W45589   3.503   5.564   3.010  0.0707  0.0777 -0.2231
32176W        W45590   0.486  11.696   3.777  0.0539  0.2913 -0.2217
32177W        W45591  13.254  13.346   3.711 -0.1750 -0.0732  0.0345
32178W        W45592  16.488   9.087   1.276  0.2320 -0.2759  0.0036
32179W        W45593   2.052   7.304  15.551 -0.0617 -0.3016  0.0831
32180W        W45594   6.923  13.116   6.159 -0.3842  0.0350 -0.2437
32181W        W45595   4.731   0.550   5.037  0.0757 -0.0468  0.3455
32182W        W45596  11.081   0.403  11.431  0.2585 -0.0327 -0.0120
32183W        W45597  12.687  14.447   3.289  0.0272  0.0265  0.2773
32184W        W45598   8.174   8.051  15.536 -0.4300  0.0474 -0.0769
32185W        W45599   7.194  15.461  13.995  0.2466 -0.2233 -0.0328
32186W        W45600   4.518   9.054   1.002 -0.1357  0.0989  0.1349
32187W        W45601   1.429  13.326   6.311 -0.0364  0.1613  0.0589
32188W        W45602   4.872  12.898  15.109 -0.0330  0.0343 -0.0546
32189W        W45603   7.436  16.598   1.349 -0.1279 -0.1458  0.0600
32190W        W45604   2.704   0.747   5.754 -0.0751  0.1182 -0.0440
32191W        W45605   2.121  10.263  13.353 -0.1785  0.2662 -0.3183
32192W        W45606   9.368   1.020   3.564  0.1659  0.0045  0.1353
32193W        W45607  17.076  13.061  13.350  0.1033  0.1122 -0.0925
32194W        W45608   1.689  18.002  16.484 -0.1321  0.1199 -0.1610
32195W        W45609  12.001  14.775   5.482  0.0141 -0.2614  0.1160
32196W        W45610   8.662   2.519   4.614 -0.1359 -0.1788  0.0130
32197W        W45611  16.521  14.581  15.018  0.0859 -0.1196 -0.0490
32198W        W45612  12.205  17.674   2.969 -0.0895 -0.0284 -0.1513
32199W        W45613   0.152  12.150   2.199 -0.0524  0.0384 -0.0184
32200W        W45614  10.375  16.633   5.764  0.1093  0.0541  0.0259
32201W        W45615  17.423  14.762   2.048 -0.0732 -0.0784 -0.1320
32202W        W45616   0.817  12.746  11.538  0.0181  0.1038 -0.1866
32203W        W45617   2.501  16.374   1.102 -0.0058 -0.1301 -0.0879
32204W        W45618   4.746  11.350   1.990 -0.0107  0.3834  0.1386
32205W        W45619   6.886   8.547   2.454  0.5767  0.1608 -0.0749
32206W        W45620   1.108   9.504   0.987  0.2951 -0.0949  0.2233
32207W        W45621  12.793  12.993  12.773  0.0187 -0.1417  0.0243
32208W        W45622   0.286   4.907  14.581  0.4877 -0.1673  0.1683
32209W        W45623   6.319   6.807   4.069 -0.0772 -0.0545  0.2147
32210W        W45624   7.504  11.269  13.326  0.0467  0.4143  0.0732
32211W        W45625   5.791   1.609  12.309 -0.0275  0.1573  0.3921
32212W        W45626  14.891   3.455  14.259  0.2335 -0.0364  0.3730
32213W        W45627   6.757   6.222  12.522  0.0162 -0.0621 -0.2269
32214W        W45628  12.750   9.121  11.694 -0.0966  0.1691  0.3309
32215W        W45629   8.080  16.865   1.984 -0.1040 -0.0730  0.1912
32216W        W45630  13.433  15.656   4.408  0.0424  0.2653 -0.0620
32217W        W45631  13.003  10.763  12.807 -0.5491  0.0433  0.1214
32218W        W45632  15.338   3.817  11.908  0.0802  0.1239 -0.1242
32219W        W45633  16.904   0.553   4.689  0.0882 -0.2495 -0.0153
32220W        W45634   8.613  13.937  14.967 -0.1316  0.0023  0.0562
32221W        W45635  15.928   7.086   2.165  0.0725 -0.1278  0.4131
32222W        W45636   5.330   7.802   2.479  0.0448 -0.0926 -0.2371
32223W        W45637   1.894  17.253   9.931 -0.0194  0.1146  0.0538
32224W        W45638   3.935   9.636   0.607 -0.4083 -0.1321  0.1076
32225W        W45639   5.604   7.998   4.794 -0.0513 -0.2340 -0.2890
32226W        W45640  14.338  12.708  15.155 -0.3985 -0.3267  0.0617
32227W        W45641   9.039  15.451  13.767  0.0441 -0.2929 -0.1529
32228W        W45642  15.937   2.421   6.528  0.0631  0.1081  0.0353
32229W        W45643   3.401  12.590  13.418  0.2038  0.2168 -0.3109
32230W        W45644   4.512  11.025   4.894 -0.0947  0.0497  0.0259
32231W        W45645   1.239   0.248  14.607  0.0173  0.0046  0.0044
32232W        W45646   0.640  10.392   2.239 -0.0511 -0.1178  0.1281
32233W        W45647  10.632  15.635  16.440  0.1701  0.0111 -0.1228
32234W        W45648   6.696   0.520   0.187  0.1129 -0.3046 -0.1056
32235W        W45649  10.378  18.179   1.255  0.0411  0.1648  0.1026
32236W        W45650  16.928  12.948   2.637  0.4927  0.1259  0.1761
32237W        W45651  12.683   5.578  15.762  0.3885  0.1307  0.0600
32238W        W45652  13.316  12.418   3.514 -0.1295 -0.1016 -0.2109
32239W        W45653   2.740  10.598  14.765 -0.1512 -0.0114 -0.3496
32240W        W45654  12.076   3.969   1.002 -0.0204  0.3042 -0.0578
32241W        W45655  12.413   0.560  15.598  0.0150 -0.1295 -0.0024
32242W        W45656  10.198   9.047   6.475  0.2601  0.1477  0.0240
32243W        W45657  14.806  10.104  12.719 -0.0881  0.0930 -0.1607
32244W        W45658   6.894   5.718   2.575 -0.2297 -0.0228 -0.2052
32245W        W45659  13.029   4.528  14.494 -0.0047 -0.0795  0.0607
32246W        W45660   6.382  10.834   1.516  0.2840 -0.0373  0.1497
32247W        W45661   5.631   1.917  15.792 -0.1512 -0.0858  0.1534
32248W        W45662   2.497   4.362  10.626  0.0238  0.2041  0.1021
32249W        W45663   1.893  15.873  12.435 -0.1433  0.1981 -0.0283
32250W        W45664  13.873   8.335  11.250  0.1713 -0.0967  0.3799
32251W        W45665   9.814  17.776   2.801  0.1411  0.0508  0.2828
32252W        W45666  11.205   3.960  14.025  0.1684  0.1929 -0.0134
32253W        W45667  10.397  13.513   2.568  0.0021 -0.1209  0.1589
32254W        W45668  16.311   1.685  14.500 -0.0415 -0.1199 -0.2491
32255W        W45669  13.661  13.235  15.017  0.0581 -0.5196  0.0367
32256W        W45670   6.593  16.850   0.720  0.2211 -0.1670  0.3064
32257W        W45671   9.853   5.084  13.481  0.2665  0.3173 -0.0174
32258W        W45672  17.070  10.811   4.343  0.2883  0.0342 -0.0189
32259W        W45673  11.666   7.826   6.720  0.3855  0.1786 -0.0051
32260W        W45674  10.017   5.583  11.774  0.0985  0.1682 -0.0641
32261W        W45675   8.184  18.146   3.882  0.1406  0.2021 -0.2339
32262W        W45676   6.440  11.290   3.217  0.0560  0.0667 -0.0032
32263W        W45677  17.315  10.774  12.158 -0.0867  0.1683  0.0476
32264W        W45678  10.898   9.274  13.199  0.1630  0.1983  0.1615
32265W        W45679   9.594  12.338  15.023  0.0634 -0.1207 -0.0983
32266W        W45680  10.528  13.773   5.655 -0.1258  0.0737 -0.3844
32267W        W45681  10.267  11.252   3.421  0.2540  0.2423  0.3142
32268W        W45682  14.091   8.082  16.203 -0.0118  0.2782  0.3414
32269W        W45683  15.350  17.861  13.254 -0.0468 -0.3314  0.0574
32270W        W45684  12.634   0.865   2.068 -0.2901 -0.1250  0.0702
32271W        W45685  14.418   1.430  12.682 -0.0204 -0.0494 -0.1959
32272W        W45686  16.414   5.845   5.163 -0.0147 -0.2954 -0.1723
32273W        W45687  14.652  13.486  14.791  0.4447 -0.0039 -0.2308
32274W        W45688  17.657   5.495   0.725 -0.3570  0.0926 -0.0167
32275W        W45689  12.347  17.194   1.184  0.0468  0.1141 -0.0825
32276W        W45690  10.766  13.699  15.854  0.0463 -0.0260  0.1134
32277W        W45691   2.931   0.485   6.187 -0.0804 -0.2482  0.2969
32278W        W45692  10.338  11.313   1.028 -0.2466 -0.2293 -0.1970
32279W        W45693  14.207   7.417  11.712  0.1934  0.3943 -0.1139
32280W        W45694  16.097   2.349   6.030  0.0988  0.2731 -0.2783
32281W        W45695   7.358   6.425   2.404  0.2191 -0.1460 -0.2039
32282W        W45696   1.676   3.595   0.018  0.0949  0.0197  0.1769
32283W        W45697  12.689   1.704  12.826  0.4184 -0.2186 -0.2890
32284W        W45698   1.885   6.415  11.094 -0.1760  0.0344  0.1875
32285W        W45699  14.829   8.440   6.033  0.1027 -0.2165  0.2810
32286W        W45700  16.098   3.620   2.475  0.0134 -0.0652 -0.0792
32287W        W45701   4.226   8.940   0.184 -0.0395 -0.0223  0.0782
32288W        W45702  12.075   6.418   2.484  0.0324  0.0498 -0.0260
32289W        W45703   7.795  14.509  11.577 -0.0189  0.1948 -0.0636
32290W        W45704  11.478  15.225  16.130  0.4315  0.2839 -0.1550
32291W        W45705   2.744   2.507  15.946 -0.2048  0.0410  0.2708
32292W        W45706   6.541   9.919   3.254  0.0188 -0.0196 -0.3956
32293W        W45707  11.441  13.415  11.719  0.1162  0.1223 -0.0091
32294W        W45708  14.857  11.275  13.285 -0.1926  0.3493 -0.0123
32295W        W45709  11.151  18.128   0.407 -0.1510 -0.0903 -0.0229
32296W        W45710  10.634   6.414  13.474 -0.0293  0.0946 -0.2811
32297W        W45711  16.939  14.815   1.976  0.2074 -0.0412 -0.0309
32298W        W45712   6.423  12.718  13.651 -0.2579 -0.0644  0.2222
32299W        W45713  11.602   1.160  13.114  0.3102 -0.0691 -0.2138
32300W        W45714   5.732  15.570   2.170  0.2015  0.1252  0.1025
32301W        W45715   2.934   8.076   5.763  0.2020 -0.2833 -0.0607
32302W        W45716   3.906   7.592  13.136 -0.3046 -0.1641  0.4364
32303W        W45717   7.053  14.169   4.779 -0.4252 -0.0315  0.3221
32304W        W45718  16.540   5.191   5.981 -0.0682  0.1394  0.0047
32305W        W45719   9.971  14.907  16.356 -0.3178 -0.0400 -0.0460
32306W        W45720  10.694   4.833  14.136 -0.0373 -0.0193  0.0795
32307W        W45721   2.764  14.079   5.494  0.3830  0.0002 -0.0621
32308W        W45722  17.224  12.015   0.371 -0.1549  0.0845  0.0139
32309W        W45723  12.431  16.044  16.095 -0.3359  0.1214  0.2465
32310W        W45724   0.561  17.300  15.665 -0.1960 -0.1199  0.1504
32311W        W45725  14.215  10.701  14.621 -0.0802  0.0161 -0.1716
32312W        W45726  10.826  14.211  13.526 -0.1257  0.1821  0.1105
32313W        W45727   8.429   4.318  11.432  0.2849 -0.2528 -0.1098
32314W        W45728   1.923  10.182  14.271 -0.3425  0.1493 -0.1852
32315W        W45729  12.439  15.869  11.825  0.2454  0.0042  0.1193
32316W        W45730   8.440   2.016  10.292 -0.3488  0.0875  0.0724
32317W        W45731  17.020  17.107   0.817 -0.2315  0.0213 -0.2412
32318W        W45732  12.597  10.856   3.124  0.0687  0.2755  0.1612
32319W        W45733   4.148  16.397  15.522 -0.3468  0.1550 -0.1224
32320W        W45734  16.100   1.029   0.246 -0.1023  0.1357  0.4342
32321W        W45735  12.134  10.680   3.480 -0.5494 -0.0061  0.2385
32322W        W45736   2.863   0.567  10.852 -0.2205 -0.0125  0.0342
32323W        W45737   5.827   8.260   0.231  0.2056  0.1889  0.3065
32324W        W45738  10.144   6.132  15.341  0.2493 -0.0921  0.0060
32325W        W45739   9.232  11.718  13.524  0.0189 -0.1950 -0.3007
32326W        W45740   1.709   4.995  14.662  0.3974  0.2294  0.0628
32327W        W45741  11.824  13.953   2.020  0.1284  0.0883  0.2240
32328W        W45742   1.800   1.896   3.730  0.0175 -0.0582 -0.1625
32329W        W45743   9.592  16.479  14.589 -0.1620 -0.0524  0.0842
32330W        W45744   1.588   7.102   5.042  0.0010  0.1642 -0.0418
32331W        W45745  11.553   9.190  10.994  0.2390 -0.1953  0.1008
32332W        W45746  13.316  13.412  14.278  0.1021  0.1558 -0.0169
32333W        W45747  12.096  11.454   2.558  0.0767  0.0560 -0.2331
32334W        W45748   4.768  15.382  11.392  0.2805 -0.2881 -0.0881
32335W        W45749   4.372  15.922   2.001 -0.1143 -0.1994  0.0372
32336W        W45750  16.066   4.914   1.871 -0.0974 -0.1189 -0.1088
32337W        W45751  13.667   0.675   1.796 -0.0674  0.2274  0.1954
32338W        W45752   2.036   5.085  12.860 -0.0504  0.0692  0.0984
32339W        W45753  16.215   6.475   1.418  0.1786 -0.5070  0.1310
32340W        W45754   2.271   8.876  11.100 -0.0179 -0.0537 -0.3040
32341W        W45755  17.621  18.035  13.280 -0.0748 -0.0662 -0.0391
32342W        W45756   8.431  13.088   5.511  0.1526 -0.1799  0.2648
32343W        W45757   2.003   1.308  13.232 -0.2239 -0.2018 -0.1154
32344W        W45758   5.724  14.126   4.602 -0.0569  0.0280 -0.0727
32345W        W45759  11.524  17.049  15.845 -0.6056  0.1447 -0.1663
32346W        W45760  11.380   9.292  13.302 -0.3166  0.0520 -0.1853
32347W        W45761   2.694   2.529  14.009 -0.3651 -0.0050 -0.1374
32348W        W45762  10.127   7.507   6.037 -0.1031 -0.0413 -0.3456
32349W        W45763  13.961   4.010   1.937 -0.1552 -0.2131  0.1482
32350W        W45764  15.281  13.592   0.362 -0.0934  0.1033  0.0167
32351W        W45765   2.169   7.701   6.103 -0.1328 -0.2598  0.0536
32352W        W45766   2.069  11.630   1.736 -0.2179 -0.0812 -0.4213
32353W        W45767   3.932  14.645  13.311 -0.3778 -0.2059  0.2016
32354W        W45768   0.542  11.014  14.399  0.2277  0.0726 -0.0859
32355W        W45769   6.160   5.757   3.377 -0.0736 -0.0574  0.0675
32356W        W45770  14.243   6.761  13.325 -0.1484 -0.0185  0.0769
32357W        W45771   6.231  11.315   0.718 -0.2458  0.0057 -0.2015
32358W        W45772   3.212   5.519  16.327 -0.1116 -0.0253  0.0275
32359W        W45773  14.449  14.919   9.453 -0.3023  0.1733 -0.2123
32360W        W45774  16.497  14.586  12.498  0.1183 -0.0824  0.0880
32361W        W45775   6.061   1.799   5.807 -0.0783  0.0870 -0.3367
32362W        W45776  14.124   2.066  11.819 -0.1884 -0.0475 -0.2664
32363W        W45777  11.738   4.907   1.109  0.0068 -0.1415 -0.0378
32364W        W45778   3.679  10.305  11.493  0.3388  0.2735 -0.0529
32365W        W45779  11.588   5.225  16.403  0.0597 -0.3322 -0.2605
32366W        W45780  16.732  14.285  15.371 -0.0266  0.0588  0.2545
32367W        W45781   4.383  12.938  15.953 -0.2410 -0.1040  0.1821
32368W        W45782  16.386  12.394   3.623 -0.0760  0.2029 -0.1003
32369W        W45783   2.401   8.108   1.874  0.1078  0.2778  0.0129
32370W        W45784   9.739   9.665  15.122 -0.0094  0.1692 -0.0961
32371W        W45785  15.996   9.709  13.063  0.1829  0.1310 -0.2860
32372W        W45786  16.350  13.304   3.914  0.0482  0.0119 -0.0026
32373W        W45787   9.876  15.460  15.813 -0.0004 -0.0990 -0.2111
32374W        W45788   9.877  10.234  14.351 -0.0003 -0.0340  0.5080
32375W        W45789   3.399  18.047  14.972 -0.1163 -0.1142  0.3962
32376W        W45790  11.192  14.977   5.230  0.0341  0.4334  0.1205
32377W        W45791   4.849  11.240   3.049 -0.0001 -0.1188  0.0986
32378W        W45792   2.828  17.350  10.803 -0.1054  0.0719  0.2814
32379W        W45793  10.820   7.586   6.522  0.3301 -0.0895  0.0385
32380W        W45794  14.246   9.542  13.828  0.0190 -0.0335  0.0079
32381W        W45795   5.940   9.175  14.367 -0.0224 -0.2170 -0.1277
32382W        W45796   5.081   8.705  14.755  0.3796  0.0469 -0.0528
32383W        W45797   3.974  17.109   0.693 -0.0185 -0.0674  0.3116
32384W        W45798  13.002  10.077  14.044 -0.1323 -0.2919 -0.1293
32385W        W45799  14.942   7.055   5.287  0.1712  0.1859  0.1462
32386W        W45800   8.414  10.539   0.248 -0.0259  0.0312 -0.0039
32387W        W45801  10.903  18.081  12.250 -0.3227 -0.0690  0.1063
32388W        W45802  17.134   3.468  11.485 -0.0516 -0.0768  0.0942
32389W        W45803  10.712   5.154  10.443 -0.0720  0.1366  0.1453
32390W        W45804   3.971  17.995  12.537  0.0173  0.1846  0.2529
32391W        W45805   6.137   4.369  16.185  0.4504  0.0785  0.1088
32392W        W45806   9.459   7.116  10.013 -0.0866  0.1111 -0.0927
32393W        W45807   9.501  10.327   0.778  0.0754 -0.1388  0.2369
32394W        W45808   0.385   8.901  10.694 -0.0676  0.2109  0.0161
32395W        W45809   3.665  10.138  11.957  0.0496  0.0324 -0.1200
32396W        W45810   1.529   0.958   2.303  0.0938 -0.2025  0.0224
32397W        W45811   3.320   6.988  14.951  0.0883  0.2183 -0.0302
32398W        W45812   3.884  14.211  13.106 -0.3009  0.1435  0.0650
32399W        W45813  12.993   4.045   4.158  0.2102  0.1226 -0.3665
32400W        W45814  15.046  10.268  15.000  0.0943  0.0251 -0.0766
32401W        W45815   0.045   7.239   3.001 -0.0509  0.2072  0.2081
32402W        W45816   2.704   4.637   0.712 -0.1432  0.0034  0.0116
32403W        W45817  10.871   9.799   4.623  0.4452 -0.1605 -0.0505
32404W        W45818   6.143   9.366  13.900 -0.1504  0.1331 -0.1800
32405W        W45819   0.922   3.600  16.402  0.0055 -0.0471 -0.0834
32406W        W45820   7.350   1.368  13.290  0.0918 -0.2297  0.0367
32407W        W45821   8.884   3.418  15.415 -0.2881  0.2785  0.0173
32408W        W45822  11.310  10.122   3.332 -0.1412 -0.0726 -0.1085
32409W        W45823  15.987   1.420   4.929  0.2119  0.0596 -0.2696
32410W        W45824  16.564  13.195  14.482 -0.2199 -0.1826 -0.1180
32411W        W45825  12.492  10.474   6.839 -0.2339  0.1459  0.0278
32412W        W45826   0.589   7.230  10.436 -0.3189  0.1517  0.0566
32413W        W45827  14.852   0.161  12.600 -0.1302  0.1623 -0.1417
32414W        W45828  11.282  10.879   1.074  0.0996 -0.1138  0.0498
32415W        W45829   7.049  15.489   4.569 -0.1719 -0.1085  0.1651
32416W        W45830   7.206  13.246  16.445  0.3246  0.2076 -0.0547
32417W        W45831   7.522  12.699  15.160  0.2815 -0.0589 -0.1279
32418W        W45832   0.998  16.877  11.448  0.0988  0.2922  0.0585
32419W        W45833   7.529  15.179  14.681  0.1859 -0.0601 -0.1727
32420W        W45834   0.774  12.469   4.357  0.2541  0.1152  0.1378
32421W        W45835  14.134  12.212   1.874  0.0394 -0.1346 -0.0200
32422W        W45836   6.840   4.719   3.264 -0.0597  0.0448  0.0565
32423W        W45837  16.285   0.142   1.494 -0.1653 -0.0293 -0.0184
32424W        W45838   1.897  14.440  12.833  0.3245  0.2986 -0.2693
32425W        W45839   5.298   4.945  13.644  0.3046 -0.2548 -0.2297
32426W        W45840   9.238   3.252   0.099  0.2103  0.1227  0.4793
32427W        W45841   1.297   5.181   5.552  0.1651  0.0006 -0.0852
32428W        W45842   3.730  11.435   3.791 -0.0922  0.0201 -0.0992
32429W        W45843   7.918  12.309   0.748 -0.0658  0.0712  0.3277
32430W        W45844   4.887   7.975   1.384  0.0074 -0.0338 -0.2520
32431W        W45845   0.591   6.233  11.367 -0.0578 -0.0558  0.0325
32432W        W45846   9.798   8.560   4.674 -0.1126 -0.1202 -0.0967
32433W        W45847   6.495   1.752  11.293  0.0054 -0.0779 -0.0796
32434W        W45848  14.587  15.776   4.584 -0.0373 -0.1797 -0.1461
32435W        W45849   2.165   7.517   1.708  0.1151  0.0241  0.2305
32436W        W45850   8.943   5.529  14.350 -0.1463 -0.1576 -0.2127
32437W        W45851   9.425   0.081  10.244 -0.1685 -0.0729  0.1389
32438W        W45852   3.993   1.864  12.052 -0.0057 -0.1734 -0.0067
32439W        W45853   2.515   2.960  14.044  0.0456  0.0873  0.1912
32440W        W45854  11.373  17.099  13.947  0.2938 -0.0424  0.1551
32441W        W45855   0.454  13.936   5.319  0.1446  0.0041 -0.0213
32442W        W45856  13.530   7.849  12.406  0.1545 -0.1261 -0.0509
32443W        W45857  17.575   0.746  15.933  0.1275 -0.1008 -0.0639
32444W        W45858  13.202  13.746   4.549  0.4029  0.0280  0.0649
32445W        W45859   6.129   8.443  13.683  0.1056  0.0322 -0.3066
32446W        W45860  15.614   2.174   1.151  0.3735 -0.0341 -0.0360
32447W        W45861  11.849   6.385  15.813  0.1728  0.2104  0.0428
32448W        W45862   9.866  11.020  11.758  0.2573  0.0381  0.1320
32449W        W45863   6.000   6.541   4.339  0.0225  0.1537 -0.3853
32450W        W45864   0.400  10.076   5.552 -0.1423 -0.2191 -0.2026
32451W        W45865   5.702   6.962   0.080  0.1212  0.0185  0.2322
32452W        W45866   9.133  11.985   1.435  0.2303 -0.1885  0.1416
32453W        W45867   1.760   8.961  14.539 -0.0975  0.1295  0.0131
32454W        W45868   8.976   9.572  10.894 -0.3129 -0.1471 -0.3946
32455W        W45869  12.765  15.442  15.525 -0.1080  0.2557  0.0577
32456W        W45870   2.891   0.462  14.170 -0.1967  0.1982 -0.0675
32457W        W45871   0.894   0.193   2.058 -0.1309  0.3361 -0.1489
32458W        W45872   1.019   1.548   1.843 -0.0581  0.0966  0.0071
32459W        W45873  16.908   2.184  12.653 -0.0224 -0.2496  0.0231
32460W        W45874   4.206   8.154   1.902  0.2089  0.0296  0.4125
32461W        W45875   1.273  18.037  11.533  0.0924  0.1735 -0.0431
32462W        W45876  17.586  12.314  15.321 -0.0915  0.0278 -0.2154
32463W        W45877   7.820   7.952  16.231  0.1873 -0.1404 -0.1276
32464W        W45878  14.455  11.294   1.160 -0.1569  0.0076 -0.3258
32465W        W45879  12.174  17.015   3.765 -0.0073  0.0611 -0.0590
32466W        W45880  11.639   2.695   3.296 -0.0252  0.1122  0.1839
32467W        W45881  10.659  17.877   2.600 -0.2283  0.0875 -0.1530
32468W        W45882   7.339  11.259   1.930 -0.0276 -0.0766 -0.0559
32469W        W45883   7.849   9.500   3.673  0.0186 -0.0499  0.1437
32470W        W45884  11.318   2.319  12.361 -0.1273  0.2607 -0.2541
32471W        W45885   3.508   0.167  11.676 -0.0700 -0.1574 -0.2728
32472W        W45886   6.767  13.077  14.226 -0.0981  0.1563 -0.0740
32473W        W45887   3.241  18.178   1.524 -0.0640  0.3970 -0.0693
32474W        W45888   8.505   3.322  11.830  0.1982 -0.1245  0.0985
32475W        W45889  15.345   0.097   5.509  0.2074  0.1090  0.2289
32476W        W45890   8.593   8.412  12.364  0.4558  0.0055 -0.1879
32477W        W45891   1.530  17.817   1.358 -0.2623  0.3104 -0.0508
32478W        W45892   3.187   8.185  10.957  0.0036  0.1437 -0.1752
32479W        W45893   5.330  10.817  12.985  0.1461 -0.0476 -0.1010
32480W        W45894  11.579  16.127   5.150 -0.3481  0.0128  0.4261
32481W        W45895   3.344  12.369   3.813 -0.5348 -0.0828 -0.0963
32482W        W45896   3.205  10.356   6.362 -0.0871  0.0669 -0.0197
32483W        W45897   5.344  11.175   0.367  0.0883 -0.0268 -0.0158
32484W        W45898  13.190   5.186  15.217  0.1300 -0.3152 -0.0778
32485W        W45899   0.075   2.981   5.384 -0.3848 -0.1003  0.0878
32486W        W45900   4.389   9.513   3.747  0.2559  0.2172 -0.0539
32487W        W45901   3.239  13.715  12.672  0.0709  0.3028 -0.1694
32488W        W45902  17.501   4.124   0.725  0.1216  0.0297 -0.1966
32489W        W45903   0.284   1.696  15.015  0.0153  0.1159 -0.0775
32490W        W45904   5.173   5.757  12.393 -0.1238  0.1786  0.0740
32491W        W45905   4.844   9.389  16.161 -0.0813  0.2713 -0.3939
32492W        W45906   6.101  15.845   2.260 -0.1807 -0.2173 -0.1092
32493W        W45907   3.785  16.882  11.699 -0.2178  0.0137  0.1242
32494W        W45908   7.777  11.495  15.097 -0.3993  0.3288  0.0890
32495W        W45909  14.165  10.420  11.797  0.1854 -0.0396 -0.0341
32496W        W45910   3.183  15.419   3.200 -0.0617  0.0692 -0.1707
32497W        W45911   5.148   7.976  15.485 -0.0539 -0.1772  0.1014
32498W        W45912   0.326  15.144  13.704  0.0753  0.0698  0.0154
32499W        W45913   5.388   6.477   2.282 -0.0649 -0.1853  0.3381
32500W        W45914   7.434  10.097  10.455  0.1513 -0.2636 -0.0740
32501W        W45915   2.166  11.313   5.623 -0.2415 -0.0164  0.0510
32502W        W45916  14.734   5.321   5.436  0.0608  0.0143  0.1076
32503W        W45917   1.836   8.192   5.569 -0.0149  0.2035 -0.1328
32504W        W45918  14.571   8.736  12.409  0.0681 -0.3765 -0.1503
32505W        W45919   2.854   8.488   2.207 -0.0413 -0.1172 -0.2422
32506W        W45920  10.036   0.065   3.469 -0.3520 -0.1955 -0.5250
32507W        W45921   8.381   7.689   5.424  0.0451 -0.0176 -0.0227
32508W        W45922  18.097  10.287  14.726  0.0554  0.0164 -0.2351
32509W        W45923   8.730   9.984  13.293  0.3091  0.0992  0.0103
32510W        W45924   8.128  14.244   2.299 -0.2334  0.0649 -0.3191
32511W        W45925  10.391  15.983  10.507  0.3101 -0.1307 -0.0360
32512W        W45926   5.623  15.651  13.556  0.1932  0.1570 -0.2743
32513W        W45927   2.393  15.767   0.266 -0.1461 -0.0610 -0.4154
32514W        W45928   8.214  14.446  15.715 -0.0721  0.0285 -0.2219
32515W        W45929   0.746   4.501  11.833 -0.1480 -0.0233  0.1973
32516W        W45930   8.786  15.401  11.428 -0.1331 -0.0666 -0.0172
32517W        W45931  17.538  17.184  13.810 -0.2923  0.2895  0.0751
32518W        W45932   3.977   2.013  13.192 -0.2222 -0.1313 -0.1146
32519W        W45933   9.307  16.146  14.260  0.1256 -0.0900  0.2414
32520W        W45934  10.662  10.830  12.149  0.2384 -0.1335  0.2604
32521W        W45935   4.216   5.615   2.359  0.0490  0.0643  0.1563
32522W        W45936   4.900   6.235   1.348  0.3312  0.0308  0.0179
32523W        W45937  16.595  13.723   0.619 -0.1996 -0.0398 -0.0617
32524W        W45938  12.798  18.151   3.490 -0.2141 -0.0627  0.1836
32525W        W45939  13.174  13.664  11.155 -0.0840 -0.0574 -0.1040
32526W        W45940  12.789  17.913  15.164  0.0956 -0.1300  0.2856
32527W        W45941  11.336  11.561  15.410  0.1888 -0.0764 -0.1941
32528W        W45942  13.694  17.654  14.354  0.0586 -0.0241  0.0899
32529W        W45943   3.172  15.656  13.443  0.1139 -0.0215  0.1119
32530W        W45944  13.418  16.994  16.507  0.1891  0.1898 -0.1078
32531W        W45945  15.534   8.361  13.993  0.0597 -0.3231 -0.2162
32532W        W45946   1.774   1.389  15.641 -0.3632  0.0913  0.0927
32533W        W45947  10.269   7.485   3.999 -0.0696  0.0950 -0.1032
32534W        W45948  15.705  12.337   5.686  0.0887  0.0920 -0.4763
32535W        W45949  10.281   0.149   0.815  0.1259 -0.0597  0.1807
32536W        W45950   7.160  13.203   4.391  0.2475 -0.0722 -0.1613
32537W        W45951  11.814   4.204   4.734  0.0892 -0.1156 -0.0923
32538W        W45952   1.998  16.360   2.384 -0.1629  0.3889 -0.1562
32539W        W45953   7.254   4.339   5.570 -0.2163 -0.1739  0.0901
32540W        W45954  17.923   5.253  13.252  0.3458 -0.2467 -0.3065
32541W        W45955   5.496   3.217  10.527  0.0576  0.0229  0.1188
32542W        W45956  15.347  13.305  16.064  0.0014 -0.1079 -0.0393
32543W        W45957  11.326   0.243  16.458  0.0592 -0.2293 -0.2909
32544W        W45958   5.542  12.807  11.888 -0.1863 -0.1534  0.2795
32545W        W45959   5.367  13.312  11.950 -0.0060 -0.0189 -0.2033
32546W        W45960  10.916  15.972  12.594  0.2159 -0.1188  0.1668
32547W        W45961  15.349  18.203   1.512  0.0117 -0.2263 -0.3121
32548W        W45962   5.958   1.371   3.060 -0.1432 -0.0578  0.1870
32549W        W45963  16.630   6.097   2.171  0.0721 -0.0577  0.1670
32550W        W45964   3.447  16.837  15.634  0.0385 -0.1009 -0.0533
32551W        W45965   4.337   4.121  12.224 -0.0689  0.2411  0.1459
32552W        W45966  14.294   2.912   1.989 -0.1486  0.2115  0.1241
32553W        W45967   4.668  17.166   4.777  0.2590 -0.1589  0.3291
32554W        W45968  17.850   8.474   3.651 -0.2265  0.0379 -0.1523
32555W        W45969  12.825   5.567   4.259 -0.0053  0.1302 -0.0942
32556W        W45970   9.759  13.243   3.945  0.0256 -0.1280  0.0908
32557W        W45971   6.216  13.143  12.693  0.1214  0.3669  0.1721
32558W        W45972   2.687   7.644   2.771 -0.2111  0.0201 -0.0164
32559W        W45973   6.717  15.143  13.358 -0.0823 -0.1774  0.0066
32560W        W45974   3.164  14.732   0.522 -0.1014 -0.0868  0.1534
32561W        W45975   5.482   5.485  10.899 -0.0185 -0.2196 -0.3776
32562W        W45976   6.952   0.451   1.898  0.3728  0.0522  0.1715
32563W        W45977   1.456   2.252  12.824 -0.0424 -0.0161  0.4371
32564W        W45978   6.582   8.229   0.935  0.0702 -0.2189  0.0806
32565W        W45979  15.159   0.943   0.541 -0.0302  0.0070 -0.2026
32566W        W45980  12.104  16.637   4.539 -0.2477  0.2112  0.0404
32567W        W45981  14.483   2.177   3.175  0.1492 -0.0208  0.0459
32568W        W45982   2.243   0.949  13.470  0.2947  0.0647  0.1268
32569W        W45983   3.875  13.152   5.763  0.0341  0.0401  0.0911
32570W        W45984  17.277   7.293  12.428  0.2606  0.2513  0.0261
32571W        W45985   8.795  14.564  11.687  0.1084 -0.0151  0.1997
32572W        W45986   4.960   6.643   0.216  0.1484  0.4362 -0.4113
32573W        W45987  17.265   6.161   1.049  0.1147 -0.1842 -0.0744
32574W        W45988  10.716   7.013  13.142  0.0921 -0.2235  0.1035
32575W        W45989  17.511  11.679   0.168  0.0272 -0.2558 -0.4022
32576W        W45990   7.945  11.493  14.596 -0.2423  0.0924 -0.3485
32577W        W45991   2.046   8.505   1.783  0.0899 -0.1820  0.1648
32578W        W45992   5.541  14.593   1.565  0.0164  0.0045  0.0796
32579W        W45993  10.523  11.859   4.175  0.3453  0.0238 -0.0668
32580W        W45994  17.174  13.877   5.065 -0.0482 -0.1508  0.2032
32581W        W45995  16.634   4.543  13.334 -0.1946 -0.0084 -0.1449
32582W        W45996   7.643   8.886  11.148 -0.1757  0.0425  0.2888
32583W        W45997   8.352  16.867   3.624 -0.1384 -0.0337 -0.1129
32584W        W45998   3.077   8.260   3.688  0.0875 -0.1264 -0.2301
32585W        W45999  15.979  13.588   2.708  0.0899 -0.0094  0.1474
32586W        W46000   8.531   2.306  13.414  0.0698 -0.1174 -0.0728
32587W        W46001   4.978  10.910   3.704 -0.0194 -0.0669 -0.0440
32588W        W46002   8.227  15.931  10.744  0.0642 -0.3005 -0.1041
32589W        W46003  16.435  11.247   4.242  0.1185 -0.1282  0.4031
32590W        W46004  12.332   2.711  15.804  0.0914  0.2616 -0.2744
32591W        W46005   5.578   9.633   2.309 -0.1101 -0.1950 -0.2159
32592W        W46006   7.812  13.511   1.569 -0.3141  0.0793 -0.1853
32593W        W46007  14.872   1.130  12.825 -0.1534 -0.1362 -0.2260
32594W        W46008   0.025  12.810  16.079 -0.2748 -0.4386 -0.2540
32595W        W46009  10.357   8.265   2.148  0.2054  0.1072 -0.2752
32596W        W46010   3.636   6.869   4.409 -0.0065  0.1175  0.0503
32597W        W46011   7.460   7.535   1.102 -0.1160 -0.0587  0.0906
32598W        W46012  12.947   7.162   3.647  0.0417  0.1662 -0.2385
32599W        W46013  10.542  10.326   2.675 -0.1716  0.0904 -0.0082
32600W        W46014   5.509   3.140  14.483 -0.2064  0.1374 -0.2261
32601W        W46015   4.330   0.794  14.777  0.2089 -0.0195 -0.0991
32602W        W46016  12.641   1.880   5.544  0.0407  0.0740  0.1199
32603W        W46017   8.063   4.388   0.053 -0.0298  0.1435  0.2480
32604W        W46018   5.028   4.035   6.687 -0.0335  0.1057 -0.0652
32605W        W46019   9.749  14.705  14.615 -0.1548 -0.1610  0.1264
32606W        W46020  12.616   7.649   0.693  0.2075 -0.0148 -0.0162
32607W        W46021   3.072   1.186   4.474  0.1733  0.2144  0.0751
32608W        W46022   2.938   2.442   2.715  0.1098  0.1266  0.0682
32609W        W46023  17.024  10.534  14.964  0.3398 -0.5657 -0.0057
32610W        W46024   5.565   0.255  11.001 -0.0218 -0.3328  0.0901
32611W        W46025  12.135  11.901   2.222 -0.2970  0.0243  0.0412
32612W        W46026   9.410  11.762   4.884  0.0422 -0.0751 -0.0595
32613W        W46027   0.480  12.349  10.348 -0.0059 -0.0204  0.3592
32614W        W46028   9.773   5.403  14.908 -0.1248 -0.2724  0.1193
32615W        W46029  12.177   9.872   4.103  0.1044 -0.2679  0.0796
32616W        W46030   4.698   4.702  15.202 -0.0063 -0.3233  0.2277
32617W        W46031  16.338   5.235   5.124  0.1302 -0.0257  0.1161
32618W        W46032   0.318   3.787   5.988  0.0820  0.0004 -0.0217
32619W        W46033   0.040  16.168  16.112  0.1029 -0.2961  0.1556
32620W        W46034  17.648  13.996  11.233  0.0410  0.3631  0.0228
32621W        W46035  14.236   6.597   4.278  0.0827 -0.0528  0.1004
32622W        W46036   6.724  11.583  16.402 -0.0782 -0.0538 -0.1164
32623W        W46037  14.587   9.996  13.206 -0.1465  0.1172 -0.0485
32624W        W46038  15.508   6.955  16.367 -0.0242  0.2436 -0.3364
32625W        W46039   1.735   2.729  10.797  0.2357  0.0081  0.1739
32626W        W46040   7.570  13.782  15.970  0.0752 -0.1210 -0.1419
32627W        W46041   5.043   5.001   0.170  0.0543 -0.0896  0.0070
32628W        W46042   4.526  13.749  12.525  0.0791 -0.0454 -0.1494
32629W        W46043   6.120  16.881  15.391  0.0236 -0.2298 -0.1825
32630W        W46044  15.885   9.767   1.148  0.1450 -0.1686  0.0004
32631W        W46045  16.028   7.135  12.970  0.1064  0.0189  0.2145
32632W        W46046   8.058  11.009  14.357  0.0227  0.0900 -0.1916
32633W        W46047   7.795   8.017  14.298  0.1816 -0.1544  0.0324
32634W        W46048  15.895  14.451   3.743 -0.0102  0.1124  0.1778
32635W        W46049  10.590  14.199  15.911  0.0007 -0.0432 -0.0059
32636W        W46050   1.646  16.459   4.845  0.1342 -0.0185  0.2205
32637W        W46051   5.600   6.699   2.729 -0.4846 -0.0552 -0.1667
32638W        W46052   7.986   4.282  12.480  0.1275  0.0945 -0.1153
32639W        W46053   5.506   1.511   1.864  0.1616  0.2214  0.2148
32640W        W46054  15.790   2.327  16.131 -0.0661 -0.2565 -0.0424
32641W        W46055  17.795  17.717   1.170  0.0398 -0.0218  0.1633
32642W        W46056   1.433  16.592  11.461 -0.2597  0.0158  0.2532
32643W        W46057  10.974   4.809   6.230  0.0089  0.0487  0.0360
32644W        W46058   5.053   5.370   3.847 -0.1536  0.0213  0.1411
32645W        W46059   9.718   3.028   3.327 -0.3421 -0.2697 -0.1288
32646W        W46060   8.221   7.034  11.709  0.2925  0.0425 -0.3486
32647W        W46061  17.600  11.539   5.274 -0.1398  0.1344 -0.2762
32648W        W46062   4.513   9.035   2.795  0.2188 -0.0470 -0.1923
32649W        W46063   0.742  11.274  13.918 -0.1218  0.3892 -0.3344
32650W        W46064  15.750  11.527   0.643 -0.0430  0.0444 -0.2459
32651W        W46065  12.228  12.143  15.586  0.1075  0.0348  0.1324
32652W        W46066  15.295  14.821  12.399 -0.1168  0.2631  0.0919
32653W        W46067   6.870   5.489   1.734 -0.0242 -0.2464  0.0662
32654W        W46068  12.704   2.504  13.455  0.0759 -0.0454 -0.1803
32655W        W46069   4.739   3.518  11.719  0.1784 -0.1388 -0.0428
32656W        W46070   0.495  17.416  15.052  0.1274 -0.0687 -0.2281
32657W        W46071  14.523   0.802   4.371 -0.0807 -0.2100  0.0933
32658W        W46072   6.175  13.979   3.976 -0.2648 -0.0730  0.0698
32659W        W46073  11.171   4.204  16.460 -0.0721 -0.3366 -0.3272
32660W        W46074   4.676   7.862   4.103 -0.2865 -0.1183  0.1595
32661W        W46075  17.948  11.278  11.756  0.0768 -0.2007 -0.1142
32662W        W46076   7.006   7.315  15.896 -0.0730 -0.3968  0.4514
32663W        W46077   1.489   8.746  13.603  0.0875  0.0958  0.0838
32664W        W46078   1.781   9.939   4.193 -0.1506 -0.3623  0.0940
32665W        W46079   7.863   8.097  11.797 -0.0333 -0.1371  0.1819
32666W        W46080  14.260  12.759  10.270 -0.3596 -0.0093  0.1717
32667W        W46081  10.481  17.229   2.578 -0.2309  0.0251  0.1643
32668W        W46082  11.595  10.845   3.234 -0.0776  0.0368 -0.1177
32669W        W46083  17.949   1.578  14.450  0.0163 -0.2269  0.1351
32670W        W46084  12.433   7.179   4.564  0.1363 -0.2059  0.4393
32671W        W46085  15.497   6.425  16.384 -0.2081 -0.1274 -0.0018
32672W        W46086  16.826  17.012  15.943 -0.1311 -0.2626  0.0518
32673W        W46087  11.961  14.509  14.338  0.0054 -0.0494  0.2340
32674W        W46088  13.844  14.994   5.387 -0.1633  0.0026 -0.2364
32675W        W46089   1.459   3.205   3.358  0.4766 -0.0775 -0.0726
32676W        W46090  13.273   2.755   2.008 -0.1117 -0.0852 -0.0508
32677W        W46091  15.646   4.085   0.401  0.2298  0.0790 -0.0509
32678W        W46092  16.640  12.195  14.544  0.0726  0.0543 -0.2124
32679W        W46093   5.664  11.299  11.678 -0.0379 -0.0801  0.1543
32680W        W46094   4.006   1.485  13.343 -0.0859 -0.1256 -0.3357
32681W        W46095   0.226   0.531   0.233 -0.1354  0.2022 -0.1113
32682W        W46096  18.010   8.573   2.968 -0.0240 -0.2457 -0.1882
32683W        W46097  16.184   6.328   5.392  0.1073  0.2082 -0.0759
32684W        W46098  17.597   6.358   0.783 -0.0042 -0.2025  0.1736
32685W        W46099  14.999   8.548   6.880  0.0729  0.0679 -0.0756
32686W        W46100   1.894   1.780   1.688  0.3005  0.1337 -0.1225
32687W        W46101  14.886   7.666   2.518  0.1278 -0.2731 -0.0378
32688W        W46102   0.899   0.391   4.172  0.3125  0.0634  0.4408
32689W        W46103   5.932  10.881   2.595  0.4377 -0.1399 -0.1786
32690W        W46104  13.708  12.354  10.992 -0.0126 -0.0676  0.1212
32691W        W46105   1.850   5.946  14.963  0.2211  0.0918 -0.0151
32692W        W46106   6.314  12.812   1.247  0.1413  0.3605  0.0186
32693W        W46107   5.082   0.519  16.112  0.1662 -0.1572 -0.2090
32694W        W46108   6.712  15.512  13.761 -0.2132 -0.1803  0.1547
32695W        W46109   8.935  14.020  10.567 -0.2615 -0.1909 -0.0538
32696W        W46110   1.484   9.557   1.330 -0.1866 -0.0766  0.2187
32697W        W46111  13.814  15.827  10.678 -0.0421 -0.1877  0.1686
32698W        W46112   2.967  15.523   6.217 -0.0773  0.2123  0.0688
32699W        W46113   3.595  14.737   5.388 -0.1281 -0.3477  0.0782
32700W        W46114  11.195   9.687   3.684  0.2260 -0.3263  0.0895
32701W        W46115  11.286   0.935   2.176 -0.0457 -0.1419  0.0401
32702W        W46116   4.242  16.487   4.362 -0.0357  0.0266  0.1491
32703W        W46117   9.635   6.006   4.348 -0.0782  0.0436  0.0716
32704W        W46118   6.490   9.450   5.135 -0.0240 -0.3037  0.0750
32705W        W46119   4.459   4.498   5.178  0.0249 -0.1243 -0.1271
32706W        W46120   5.223   6.908  15.470 -0.0236  0.1212 -0.0080
32707W        W46121   8.747   8.880   1.404  0.0715  0.4205  0.1102
32708W        W46122  16.525   2.479   2.342 -0.0437 -0.2263  0.2813
32709W        W46123   1.368   2.738   3.494  0.1912  0.1657  0.3507
32710W        W46124  17.038   7.938   5.975 -0.2644  0.2415 -0.1198
32711W        W46125   2.611   1.733   3.121 -0.0568  0.2585  0.0830
32712W        W46126  14.170   3.447  15.303 -0.0260  0.3177  0.2021
32713W        W46127  17.394   0.867  13.029  0.2528 -0.0252 -0.2915
32714W        W46128   9.027   9.398  12.182  0.0550 -0.0302 -0.1054
32715W        W46129  16.702   5.735   3.380 -0.0816  0.1910 -0.0241
32716W        W46130   8.336  17.184   9.578  0.1794  0.0068 -0.1760
32717W        W46131  13.759   9.696   6.477  0.3032  0.3339  0.1401
32718W        W46132  13.138  17.511  11.000  0.0551 -0.0172 -0.0215
32719W        W46133  16.168   9.005  14.102  0.2374 -0.0238 -0.2582
32720W        W46134  10.156  10.738  13.445  0.1518 -0.1714 -0.1220
32721W        W46135  16.307   5.626  12.123 -0.1817 -0.0869 -0.0178
32722W        W46136  13.089  13.496  14.731  0.3494 -0.2347 -0.2600
32723W        W46137  16.826   6.382  13.169  0.0361  0.3887 -0.1943
32724W        W46138   8.573  11.163   0.804  0.3369  0.0018 -0.2315
32725W        W46139   2.696   8.991   0.022  0.1790  0.1956  0.1018
32726W        W46140   7.843   6.875   0.532  0.0421 -0.0763 -0.0607
32727W        W46141   7.570   9.408  12.885  0.1516 -0.0142 -0.3058
32728W        W46142  15.933   0.686   1.499 -0.0896 -0.1360 -0.1318
32729W        W46143   1.088   4.358  13.280  0.1528  0.0977 -0.0402
32730W        W46144   2.257   3.495   4.887  0.4115  0.3688 -0.2007
32731W        W46145   7.373  13.438   0.363  0.0398 -0.0853  0.0071
32732W        W46146   9.687  13.143   6.156 -0.0903 -0.2198  0.1681
32733W        W46147   6.000   6.491   0.155  0.0496 -0.0071 -0.1468
32734W        W46148  13.139   4.323  10.798 -0.5026  0.1818  0.2370
32735W        W46149   9.373   8.756   5.381  0.0621  0.1738  0.0021
32736W        W46150  15.567   5.500   3.943  0.1266 -0.3811 -0.0043
32737W        W46151   0.637   7.962  13.206 -0.0820 -0.1460  0.1861
32738W        W46152   5.280  14.743  14.080 -0.1170  0.0935  0.1243
32739W        W46153   4.876   9.864   5.311 -0.1796  0.1187 -0.0588
32740W        W46154   6.320   4.723  14.410 -0.0959 -0.0621 -0.1563
32741W        W46155   9.916   9.047  11.768  0.0910  0.0718 -0.0936
32742W        W46156   4.893  18.089  14.948  0.0153 -0.1373  0.0225
32743W        W46157   7.294   8.405  14.888  0.1422  0.4029  0.2061
32744W        W46158   5.171   8.927  12.144  0.0131  0.1979 -0.1024
32745W        W46159   1.288  12.614   5.185  0.1299  0.1947  0.1444
32746W        W46160   2.733  17.238   5.329 -0.3634  0.0683  0.1316
32747W        W46161  17.251   7.467   0.423  0.3245  0.0895 -0.1223
32748W        W46162  11.314   3.633   4.961  0.1691  0.0068 -0.1405
32749W        W46163  12.797   8.141  15.197  0.1884  0.1016 -0.1402
32750W        W46164  16.549   8.389   5.615  0.2662 -0.1410 -0.0371
32751W        W46165  16.466  11.032   2.561  0.0433 -0.0021  0.1968
32752W        W46166   1.196  14.774   0.299 -0.0192 -0.0171  0.0774
32753W        W46167   1.374   9.522   5.727 -0.2509 -0.2160  0.0460
32754W        W46168   8.703   2.425   0.531  0.0522 -0.0070  0.1943
32755W        W46169   6.414  15.065   2.593 -0.0766  0.1831 -0.2227
32756W        W46170   5.179   8.227  14.042 -0.0607 -0.4187 -0.0747
32757W        W46171   1.520   9.696  14.019 -0.0240 -0.0851 -0.0835
32758W        W46172   8.586  18.013  13.509 -0.0168  0.1931 -0.0791
32759W        W46173   5.180   7.984   5.156 -0.3283  0.1025  0.3083
32760W        W46174  15.712  15.104  13.307 -0.0629  0.0090 -0.0633
32761W        W46175  10.261   7.914  12.047  0.1345 -0.3167 -0.0285
32762W        W46176  12.378   3.536   3.627  0.0630 -0.0774  0.4159
32763W        W46177  13.326   1.446   4.995 -0.0257  0.0902 -0.1418
32764W        W46178  11.494   5.237   5.650 -0.1365 -0.4113 -0.0616
32765W        W46179   2.096   4.484  14.373  0.2450  0.1657  0.4493
32766W        W46180   3.776  16.559  10.407 -0.2990 -0.1809  0.2797
32767W        W46181   8.269  10.740  13.407 -0.0759  0.0297  0.0862
32768W        W46182   4.386   2.690   1.094  0.2592 -0.2654 -0.2440
32769W        W46183   0.237  14.609   3.957  0.1904  0.1139 -0.0410
32770W        W46184  16.970  17.185  14.470  0.1200  0.1902  0.0478
32771W        W46185  16.925   6.498  11.213 -0.2022  0.0813  0.2680
32772W        W46186  13.793  17.837   2.695 -0.1319  0.1019 -0.0290
32773W        W46187   7.249  10.494  11.335 -0.2476  0.2616 -0.2326
32774W        W46188  11.029   9.734  11.585  0.1586 -0.1285 -0.0727
32775W        W46189   8.935  11.927  11.158 -0.0715 -0.0078  0.2640
32776W        W46190  14.880  16.289   5.313 -0.0801  0.0063  0.0074
32777W        W46191  14.783   9.214   0.170 -0.0688 -0.0685  0.1813
32778W        W46192  16.366  14.486   3.451  0.0901  0.0515  0.1817
32779W        W46193   9.428   7.493   6.683 -0.0400 -0.2127  0.0585
32780W        W46194   4.000   4.869  15.578 -0.0822 -0.0891  0.2430
32781W        W46195  16.788  11.224   1.651  0.1217  0.0664 -0.0630
32782W        W46196   2.986   2.031  14.830  0.1460  0.2365 -0.1837
32783W        W46197  12.232   6.340  14.083  0.1408  0.0085  0.1590
32784W        W46198  11.281   8.002   3.946  0.1984 -0.2499 -0.0837
32785W        W46199  12.910   1.720   9.435 -0.2171  0.1139 -0.1681
32786W        W46200  10.233   8.225  13.598  0.3254 -0.0772  0.1699
32787W        W46201   8.960  11.789   2.550  0.1337  0.0083  0.3098
32788W        W46202   2.850  17.342  12.256 -0.0744  0.1730 -0.0618
32789W        W46203   4.847  16.213   4.241  0.0766  0.4635 -0.1855
32790W        W46204   9.755   7.961  15.556  0.0244  0.5087 -0.1855
32791W        W46205  11.154   1.301  11.750  0.0695 -0.5366  0.0981
32792W        W46206  15.962   4.961   4.298  0.1865  0.4053  0.4056
32793W        W46207   3.442   9.049   3.313  0.0078 -0.2292  0.0314
32794W        W46208  12.257  17.391  14.977 -0.0237 -0.0638 -0.1038
32795W        W46209   1.428  11.987   0.631 -0.0112  0.0191 -0.3031
32796W        W46210  14.973  14.617   3.825 -0.0369 -0.0130  0.2744
32797W        W46211  18.182  13.243  15.755  0.0035  0.0095  0.1557
32798W        W46212   1.073   4.384   1.803 -0.0837  0.2050 -0.2698
32799W        W46213  11.115  10.947   5.811  0.1972 -0.3351 -0.1821
32800W        W46214  15.796  13.998   6.148  0.1363 -0.1986  0.0662
32801W        W46215   5.064   7.136  14.129 -0.2147 -0.0706 -0.0671
32802W        W46216   1.687   6.200  10.639  0.1182 -0.1868 -0.1612
32803W        W46217   4.764   0.854   3.717 -0.0202  0.1023 -0.1067
32804W        W46218   1.877   6.394   4.002 -0.3032  0.0046  0.0077
32805W        W46219   6.782  11.076   2.825  0.1615  0.2826  0.0200
32806W        W46220   1.495  14.032  11.230 -0.0366  0.0096 -0.0987
32807W        W46221   8.519   3.021   0.993  0.0793 -0.0956  0.1215
32808W        W46222  11.871  17.938   1.770 -0.2015 -0.1273  0.2827
32809W        W46223   3.994   6.961  13.280 -0.1701 -0.1520 -0.1248
32810W        W46224   5.495  16.115   2.027 -0.0433  0.1905  0.2794
32811W        W46225   0.120  16.515   0.643 -0.2667 -0.3370  0.2320
32812W        W46226  13.587   8.297  15.518 -0.2056  0.0812 -0.1017
32813W        W46227  16.546   1.565   3.487  0.0780 -0.0261  0.0894
32814W        W46228  15.490  12.612  14.963 -0.3587 -0.1854  0.2286
32815W        W46229  13.731  17.773  15.748 -0.2431  0.1731 -0.1857
32816W        W46230   8.186  10.166  15.991  0.0508 -0.1634  0.1826
32817W        W46231   9.102  17.052  16.268 -0.0564 -0.1992 -0.0373
32818W        W46232   7.617   3.627  13.030 -0.1902 -0.0565 -0.0524
32819W        W46233   5.329  13.034  12.790  0.2172 -0.1492 -0.0303
32820W        W46234   6.351   1.895  12.933 -0.1341  0.2620  0.3416
32821W        W46235   5.940   8.226   5.838 -0.4411  0.0085 -0.0959
32822W        W46236  17.101  13.509  13.635  0.1493 -0.4773 -0.3264
32823W        W46237  15.444  16.064   0.461 -0.0497 -0.1297  0.1459
32824W        W46238   7.915  12.888  16.492 -0.1115  0.1405 -0.2973
32825W        W46239   7.394  12.797   1.441  0.1154  0.0712 -0.2847
32826W        W46240   9.145   1.974   0.990  0.2334 -0.1957 -0.1554
32827W        W46241  12.418  13.161  11.263 -0.2194 -0.0712 -0.2701
32828W        W46242   4.189  10.712  15.115  0.1817  0.0329  0.2271
32829W        W46243   7.450   7.726  14.947  0.2300 -0.1589  0.3292
32830W        W46244  12.258   8.465  16.481 -0.1038  0.1492  0.1485
32831W        W46245   0.305  10.094  13.125 -0.0579  0.1134  0.2985
32832W        W46246   5.436   5.804   1.212  0.0725  0.3176 -0.1581
32833W        W46247  15.542   3.835   4.258 -0.0952 -0.0659 -0.0146
32834W        W46248   2.900   4.275   0.279 -0.1148  0.0013  0.1333
32835W        W46249   2.847   2.292   2.006  0.1730 -0.1933  0.0765
32836W        W46250  18.157   7.009  13.962  0.4106  0.3098  0.0406
32837W        W46251   1.045  10.349   3.814  0.2040 -0.2176  0.0621
32838W        W46252   3.109   5.139  11.050  0.3673  0.0084  0.1449
32839W        W46253   7.606   5.179   4.180 -0.0749  0.0502  0.0372
32840W        W46254  13.325  17.683   2.491 -0.1224  0.1097  0.4988
32841W        W46255  18.097  15.140  14.182 -0.0344 -0.3900  0.0313
32842W        W46256  11.350   3.841  10.488 -0.3249  0.0010 -0.0299
32843W        W46257   4.600  17.106  14.213  0.0237  0.1916 -0.0681
32844W        W46258  17.753   5.055  15.597  0.1888  0.0941  0.1077
32845W        W46259  14.476  11.419   6.262 -0.0965  0.2204  0.2667
32846W        W46260  15.311  14.468   4.557  0.2959 -0.5300  0.1710
32847W        W46261   5.352   6.730  14.405  0.2014  0.2365 -0.1027
32848W        W46262  15.002   8.721  12.182  0.2448 -0.6063 -0.2832
32849W        W46263   7.707   9.190   3.271 -0.1255 -0.2762  0.0231
32850W        W46264   8.175   0.213   1.046 -0.2184 -0.0505  0.1896
32851W        W46265   1.776   4.857  13.236  0.0951  0.1153 -0.0635
32852W        W46266   5.848   0.062  16.480  0.0291 -0.2254 -0.0183
32853W        W46267   9.178  10.711   0.832 -0.1404 -0.0155 -0.3645
32854W        W46268  13.512   4.858   2.378  0.0421 -0.1016 -0.0517
32855W        W46269   7.383   0.763  12.598 -0.2880 -0.1552  0.1013
32856W        W46270   0.083   8.357   6.046 -0.3278  0.1132 -0.0335
32857W        W46271  15.068  16.614   4.896  0.1443  0.1446 -0.1766
32858W        W46272  14.636  10.314  16.341  0.1973  0.0966  0.0660
32859W        W46273   6.908  11.422   4.523 -0.2540  0.1112 -0.0671
32860W        W46274   7.857  12.799   0.587  0.0569  0.0047 -0.1983
32861W        W46275  14.112  13.920  12.396 -0.1851  0.2304 -0.2789
32862W        W46276   3.078   5.642  15.069  0.1487  0.0035 -0.0649
32863W        W46277   8.480   3.962  14.839 -0.0903 -0.3751  0.0456
32864W        W46278   9.078   2.749   0.266  0.0006 -0.2228 -0.0764
32865W        W46279  15.956   1.500  14.061  0.1991  0.1475  0.1355
32866W        W46280  14.850   0.909   1.932 -0.4111 -0.2014  0.1403
32867W        W46281   7.760  14.288  12.341 -0.2926  0.2150 -0.1813
32868W        W46282  16.203  10.747  12.736 -0.0699  0.0827  0.4411
32869W        W46283   8.296   3.838   4.749  0.2979 -0.2042  0.4031
32870W        W46284  15.403  11.502   3.059  0.0547  0.2157 -0.0329
32871W        W46285  14.434   6.581  13.792 -0.1892  0.4401  0.2048
32872W        W46286   5.114   6.229   4.519 -0.0179 -0.1198  0.1996
32873W        W46287  11.659  12.376   3.791 -0.0234 -0.1462 -0.0115
32874W        W46288   6.204  10.408   1.763  0.0576 -0.4445  0.1083
32875W        W46289   1.192   9.597  15.070  0.1873 -0.1011 -0.0225
32876W        W46290  11.952  14.054   1.111  0.2036  0.1849  0.2350
32877W        W46291   9.491  15.783  10.037  0.0045  0.0624 -0.1735
32878W        W46292  10.260  13.302  16.096  0.1941  0.1357  0.0070
32879W        W46293   4.199  11.613  12.870  0.2432 -0.0923 -0.1382
32880W        W46294   6.155  13.203  13.856  0.0477  0.1392 -0.0147
32881W        W46295   0.389  18.159   0.878 -0.1821  0.3429 -0.1349
32882W        W46296  17.587   5.263   2.704 -0.2273  0.6467  0.1308
32883W        W46297   5.300  17.772  14.961  0.0659 -0.3235  0.0403
32884W        W46298   7.061   2.982   2.400  0.0476  0.4848 -0.2953
32885W        W46299   9.635   5.384  16.464 -0.0804  0.0490 -0.3366
32886W        W46300  11.535   6.512   2.419  0.1465 -0.1364 -0.0525
32887W        W46301  12.744  12.412   2.827  0.2398  0.2054 -0.1230
32888W        W46302   3.882   2.614  15.827 -0.2878  0.3049 -0.2806
32889W        W46303   0.230  13.681  12.337  0.0237 -0.0299  0.0120
32890W        W46304   7.708   1.957  16.293 -0.0250  0.0723  0.0746
32891W        W46305  17.876  16.448   3.279  0.3562  0.0213  0.1018
32892W        W46306  18.088   9.121   0.123 -0.1040 -0.0966 -0.3466
32893W        W46307   6.165  17.501  12.175  0.1703 -0.0157  0.0055
32894W        W46308   1.752  10.076   1.583  0.1264 -0.0865 -0.3249
32895W        W46309   3.499   3.260   2.690  0.1205  0.1497 -0.1032
32896W        W46310  11.032   1.376  12.596  0.1944 -0.3768  0.0188
32897W        W46311   5.464   7.525  16.108  0.1855 -0.0012 -0.0502
32898W        W46312  12.606  14.980  13.978  0.1363  0.1815 -0.0287
32899W        W46313   3.410  17.841  15.738 -0.4478  0.1246 -0.0358
32900W        W46314  15.363   6.321  14.944 -0.1639  0.1388 -0.1997
32901W        W46315  14.319  10.348  15.490 -0.0453 -0.0020 -0.4208
32902W        W46316  17.799   9.021   0.692 -0.1956  0.1915 -0.3895
32903W        W46317   0.778  13.882  13.580  0.0496 -0.1371  0.2623
32904W        W46318   6.106  13.129   2.748 -0.1212  0.0356  0.0404
32905W        W46319   1.201   6.595   0.339 -0.0739 -0.0403 -0.3114
32906W        W46320   0.788  11.305   5.911 -0.2662  0.0983 -0.1502
32907W        W46321   4.272  12.703  13.873 -0.0826 -0.0471  0.1558
32908W        W46322  15.708   3.681  11.121  0.3006 -0.0180 -0.1848
32909W        W46323  10.721   3.395  16.116  0.3227  0.4489 -0.1530
32910W        W46324   6.351   8.863  16.148 -0.0659  0.0925 -0.0501
32911W        W46325  15.732   0.024  11.083 -0.0661 -0.0122  0.0916
32912W        W46326   4.252   3.014  10.691  0.1256 -0.2201  0.2928
32913W        W46327  12.464  17.836   0.565  0.0592 -0.0818  0.3001
32914W        W46328   8.037   0.780  11.659  0.1416 -0.1159  0.0231
32915W        W46329  10.409  16.132   4.918  0.0470  0.2183  0.2080
32916W        W46330  16.420  14.768   5.716 -0.0596 -0.0668 -0.1809
32917W        W46331   6.661   4.703   0.349  0.5513 -0.0647 -0.0904
32918W        W46332  13.796   5.385  15.129 -0.0341  0.4552 -0.1224
32919W        W46333  12.405   0.215   0.383 -0.1326  0.2258  0.0387
32920W        W46334   9.084   3.434  13.741 -0.0383  0.0281  0.3954
32921W        W46335   2.103  13.837  14.163 -0.2332 -0.0196 -0.1133
32922W        W46336   1.771   4.439   4.211 -0.2856  0.1497 -0.0933
32923W        W46337   1.807  13.546   0.645 -0.1283 -0.3436  0.1012
32924W        W46338  17.706  12.263   0.811  0.1096  0.2150 -0.1720
32925W        W46339  15.064   9.176   4.839 -0.1446  0.0206  0.1249
32926W        W46340   5.983   4.835  16.480  0.1261 -0.1766  0.0499
32927W        W46341  14.427  15.623   1.983 -0.0670  0.1754  0.0565
32928W        W46342  17.776  14.445  11.475  0.0236 -0.0339  0.0564
32929W        W46343  11.609  14.742  13.424 -0.0508  0.1173  0.1311
32930W        W46344  15.437   2.913  15.986  0.3337 -0.2694  0.0343
32931W        W46345   1.643  11.501   2.015 -0.1862 -0.0333 -0.0815
32932W        W46346  11.040   0.287  12.027  0.0488 -0.0306  0.0124
32933W        W46347   4.531   9.213  14.842  0.1652 -0.1059  0.1744
32934W        W46348  17.774   2.512   5.453 -0.2088  0.3411 -0.2212
32935W        W46349  13.028  14.449   3.720 -0.1520  0.2436 -0.1931
32936W        W46350  17.312  16.659  12.468 -0.0779  0.0621 -0.2043
32937W        W46351   4.855  13.792  15.066  0.0274 -0.4427 -0.0729
32938W        W46352   6.377  11.762  16.039 -0.1079 -0.2814  0.1369
32939W        W46353   4.284   0.073  12.237 -0.0477 -0.0340 -0.0775
32940W        W46354  16.565   3.049   5.280 -0.0598  0.4855  0.1500
32941W        W46355  13.426  16.232   4.255  0.0137  0.2098 -0.1184
32942W        W46356  12.110   6.929   0.112 -0.3210 -0.1813 -0.1345
32943W        W46357   2.968  18.104  12.787 -0.2743  0.1315  0.1284
32944W        W46358  17.165  15.845  10.705 -0.0238 -0.3349 -0.0902
32945W        W46359   2.466  10.589   0.016  0.1543 -0.0726 -0.2008
32946W        W46360  11.951  11.707  12.503  0.0889 -0.0592 -0.6426
32947W        W46361   8.686   5.231  11.134 -0.0183  0.3956  0.1473
32948W        W46362   4.839  16.754  12.760 -0.2144  0.0342  0.1237
32949W        W46363   1.107  11.341  12.922  0.0352 -0.0182  0.2594
32950W        W46364  16.320   1.492  16.194 -0.0715 -0.3153 -0.1426
32951W        W46365   1.289   3.469  11.169  0.1196 -0.2285 -0.2105
32952W        W46366   3.662   3.158   4.499 -0.1554  0.0156  0.0311
32953W        W46367   6.159  15.913  10.343  0.1447 -0.0470  0.1877
32954W        W46368   5.568  12.481  16.291 -0.0241 -0.4755  0.1930
32955W        W46369  11.811   0.855  10.749 -0.0386  0.2621  0.0084
32956W        W46370   0.326   9.152   1.638  0.1632  0.1449 -0.1435
32957W        W46371  15.857  16.616  13.242  0.0366 -0.5181 -0.2015
32958W        W46372   5.020   6.646   1.122  0.0862 -0.1909 -0.0640
32959W        W46373   3.344   4.344   2.827  0.1703 -0.0761 -0.1226
32960W        W46374  17.739   5.257  12.757 -0.0287 -0.2955 -0.0038
32961W        W46375  15.526  13.266   1.583 -0.2527  0.1004  0.3632
32962W        W46376   7.282  13.603  15.121 -0.0629  0.3229  0.2858
32963W        W46377  15.222  10.104  15.750  0.1025 -0.0922  0.1462
32964W        W46378   5.771  15.633  16.272 -0.0475 -0.1847  0.4425
32965W        W46379   8.386  11.161   4.422 -0.1514  0.1062 -0.0047
32966W        W46380  14.359  16.476  14.911 -0.0662  0.0026  0.2115
32967W        W46381  14.958   4.289  13.354 -0.0028 -0.1520 -0.1801
32968W        W46382   2.071   1.895  16.020  0.1055  0.0177 -0.2168
32969W        W46383   6.964   2.486   2.337 -0.1712 -0.2574 -0.0183
32970W        W46384   9.181   4.806  13.901 -0.0718  0.1182  0.1869
32971W        W46385  11.429  14.565  15.999 -0.1543  0.0008 -0.3013
32972W        W46386  14.359  10.944  11.708 -0.1076 -0.2214 -0.1259
32973W        W46387   7.814  15.837   4.369  0.1087 -0.1689 -0.0139
32974W        W46388  14.099   9.169   5.214 -0.2154 -0.0187 -0.0123
32975W        W46389   9.265   8.372   4.377 -0.0600  0.2856 -0.1883
32976W        W46390  16.898   4.048   2.856  0.0709  0.1261  0.1098
32977W        W46391  13.622   8.411   2.128 -0.4314  0.1089 -0.3981
32978W        W46392  14.284  12.532   1.527 -0.0389 -0.1692  0.3733
32979W        W46393  15.144   0.339   2.492 -0.0601 -0.0087 -0.0349
32980W        W46394   0.936   7.019  13.082 -0.2581  0.3234  0.2567
32981W        W46395  15.065  12.244  14.015  0.2331  0.3748 -0.0579
32982W        W46396   0.034   0.409  11.369  0.1378  0.1919 -0.0167
32983W        W46397  11.533   7.468  14.214  0.1373 -0.0978  0.0573
32984W        W46398  12.750  11.792  13.637  0.4068 -0.1835  0.3018
32985W        W46399   6.124   7.658  13.205 -0.2565  0.3255 -0.3610
32986W        W46400   7.218  10.345   4.358 -0.0501 -0.1365  0.1669
32987W        W46401   2.037   2.997  13.791 -0.3642  0.0066 -0.0995
32988W        W46402  10.532   4.058  11.281  0.1141 -0.1019  0.0133
32989W        W46403  15.347   7.585   4.430 -0.1159 -0.0820  0.2075
32990W        W46404  15.516   0.435   1.605 -0.0962 -0.0211 -0.0962
32991W        W46405   3.234   8.313  13.699  0.1069 -0.1000 -0.1770
32992W        W46406  13.821   9.332  12.543 -0.1212  0.0678 -0.1783
32993W        W46407   4.638   1.781  11.075 -0.1971 -0.2279 -0.0349
32994W        W46408   9.319   4.253   3.346 -0.0229 -0.0175 -0.0411
32995W        W46409   6.424  16.248   3.900  0.3084 -0.1368 -0.1189
32996W        W46410  12.603   4.886   0.209  0.2618 -0.3159  0.0995
32997W        W46411   4.335   2.318  15.904 -0.0287  0.0519 -0.5579
32998W        W46412  13.706   0.657   1.273  0.2163  0.1480 -0.2332
32999W        W46413  10.893  17.688  11.388 -0.0940 -0.2627  0.3619
33000W        W46414  15.618  18.161  11.582  0.1706  0.2490 -0.0449
33001W        W46415   8.024   9.799   5.639  0.1490  0.0595 -0.3551
33002W        W46416   5.071  14.166  15.292  0.1590 -0.1285  0.0683
33003W        W46417   0.650  13.501  13.198  0.1061  0.2629 -0.1890
33004W        W46418   6.104  10.913   3.020 -0.2358  0.0144 -0.1057
33005W        W46419   6.275   0.858  12.057  0.0569 -0.1150 -0.0592
33006W        W46420   1.635  15.571   5.750 -0.0232 -0.2774 -0.0696
33007W        W46421   2.055  14.699   3.879 -0.0902  0.1689 -0.0605
33008W        W46422  15.374   3.544  14.644 -0.1345 -0.2244 -0.2795
33009W        W46423  12.835  11.529   0.285  0.0134  0.0986 -0.0470
33010W        W46424  15.738  16.461   4.098 -0.1786  0.1400 -0.1789
33011W        W46425  17.110  14.594  14.002 -0.0867 -0.0037 -0.2476
33012W        W46426   9.163   5.652  12.275 -0.2647 -0.2180  0.3200
33013W        W46427   2.128  14.959   1.153  0.2802 -0.0495 -0.0002
33014W        W46428  15.606   0.634   4.543 -0.1521  0.2570 -0.0177
33015W        W46429   5.101  15.810   2.915 -0.0104 -0.0291 -0.1334
33016W        W46430   5.082   2.608  12.506 -0.0888  0.0663 -0.2962
33017W        W46431   1.593   9.421  14.783 -0.0148  0.1079  0.0364
33018W        W46432   0.275   1.070  14.518  0.0894 -0.1680  0.0106
33019W        W46433  17.257   1.785   3.597  0.2057 -0.5034 -0.3314
33020W        W46434  16.542   4.124  12.341  0.2295 -0.0695  0.2156
33021W        W46435   3.055  11.851   3.082 -0.0316  0.1655  0.0568
33022W        W46436   0.433   9.033   4.076 -0.0120  0.0838 -0.5106
33023W        W46437  14.024   6.393   3.846  0.1907 -0.0364 -0.3268
33024W        W46438   5.812   4.107  11.868 -0.0277  0.0871 -0.0837
33025W        W46439  17.410  14.601   5.858  0.0055  0.2665  0.0019
33026W        W46440  14.433   6.996   1.627  0.0497 -0.0615  0.0904
33027W        W46441   8.322  15.569   4.533 -0.1246  0.1027  0.1003
33028W        W46442   3.928   5.257  11.001 -0.1156 -0.2114  0.0661
33029W        W46443   2.874  11.309  13.425 -0.3695  0.1200  0.1102
33030W        W46444   5.333  10.402   3.055  0.2083  0.2352 -0.2951
33031W        W46445   8.625  10.050  15.241  0.1304  0.0395 -0.0815
33032W        W46446   9.729   6.110  14.945  0.1997 -0.3741 -0.0600
33033W        W46447   5.712  14.001   0.727  0.2170  0.2391 -0.2537
33034W        W46448   3.529  11.921   3.761  0.1207  0.1441  0.2119
33035W        W46449   1.880   9.358   1.733  0.0818 -0.0072 -0.0078
33036W        W46450  18.163  16.966  11.358 -0.0417 -0.0751 -0.0548
33037W        W46451   9.833   8.243   2.062  0.0885  0.0573 -0.1039
33038W        W46452   9.168   3.300  11.136 -0.1451  0.1059  0.0175
33039W        W46453  17.684  12.982  13.756  0.0128  0.1534 -0.3318
33040W        W46454   3.715  10.363   4.021  0.0523  0.0695 -0.0815
33041W        W46455   3.352   6.937   0.552  0.0178  0.3280  0.1888
33042W        W46456   3.906  10.933   4.080 -0.1700 -0.0159 -0.2032
33043W        W46457   5.954   7.387  14.401 -0.0242  0.1459  0.2420
33044W        W46458   8.832  12.311   0.516  0.1322 -0.1700  0.0215
33045W        W46459   0.939  15.889  10.386 -0.0795  0.2241 -0.0736
33046W        W46460   5.428  12.581   5.434  0.0073 -0.0550  0.0536
33047W        W46461  14.947  14.443  13.969 -0.0577 -0.3255  0.0557
33048W        W46462   0.967   8.980  11.300  0.0074 -0.2813  0.1312
33049W        W46463  10.638  15.805   6.216  0.3642 -0.1926 -0.0077
33050W        W46464   1.868   0.148  11.349  0.1024 -0.1396 -0.1573
33051W        W46465   2.590  17.721   1.307  0.3362  0.1249  0.1043
33052W        W46466  15.994  15.112   1.729  0.1218  0.0487  0.2376
33053W        W46467   6.091  13.976   1.127  0.0070  0.0195 -0.0651
33054W        W46468  17.742   8.995   4.664  0.3793  0.2529  0.2240
33055W        W46469  17.164  17.221  10.802 -0.1531  0.2250  0.0685
33056W        W46470  16.299  14.402  13.474  0.2995 -0.1080 -0.2375
33057W        W46471   8.071  10.130  15.022  0.2071  0.1039  0.2096
33058W        W46472   8.325   3.246   2.647 -0.2296  0.0515  0.0734
33059W        W46473  12.533   2.033  15.717 -0.1914  0.2461 -0.1006
33060W        W46474   8.467   3.332  12.605  0.0142  0.0029  0.0296
33061W        W46475   2.059   6.886   0.994 -0.2534  0.0554  0.1439
33062W        W46476  17.961  13.940   1.664 -0.0562  0.1898  0.2607
33063W        W46477   8.903   1.884  13.427  0.2025 -0.2909 -0.2108
33064W        W46478  10.163   1.342  10.827  0.0942 -0.1892 -0.0126
33065W        W46479  16.679   8.353   1.542  0.0494 -0.1887  0.1222
33066W        W46480   7.639  15.077  13.457 -0.0255 -0.1494  0.4478
33067W        W46481   5.187   7.440  12.122 -0.1461 -0.0538  0.1456
33068W        W46482  14.185  17.589  14.183  0.0457  0.0779 -0.1126
33069W        W46483   8.428  12.502  12.384 -0.0753 -0.0260  0.0611
33070W        W46484   7.687  17.732  13.381  0.0531 -0.1071  0.1446
33071W        W46485   2.762  12.630  14.721 -0.0400  0.1990 -0.3160
33072W        W46486   5.403  14.146  10.468  0.1119 -0.1578  0.0133
33073W        W46487   6.815   7.642  13.963  0.0319 -0.1007  0.0295
33074W        W46488   7.677   5.311   5.141  0.0506 -0.0901  0.0547
33075W        W46489   2.379  14.255  15.263 -0.0985 -0.1613  0.1334
33076W        W46490  17.916   3.531   3.467 -0.2289 -0.0172 -0.2608
33077W        W46491  11.932  14.190  10.228 -0.0044 -0.0803  0.0457
33078W        W46492  18.185   4.608  11.622  0.1484 -0.2929 -0.0595
33079W        W46493   4.741   8.773  15.486  0.2732 -0.0241  0.2031
33080W        W46494  14.747   4.339   5.125 -0.1146 -0.1945  0.3440
33081W        W46495  13.137   8.135   2.411  0.0309 -0.0795  0.0489
33082W        W46496  12.578  16.432  10.119  0.2085 -0.2922 -0.2542
33083W        W46497  14.248   5.681  15.798  0.0099 -0.1429 -0.1279
33084W        W46498   8.212   3.422  14.708 -0.2894  0.2033  0.1626
33085W        W46499  10.521  10.082  14.951  0.1188  0.1475 -0.3235
33086W        W46500   8.736   0.118  14.202  0.1026 -0.2187  0.0601
33087W        W46501   4.808   4.781  13.481 -0.0122  0.0078  0.0527
33088W        W46502  14.287  15.938   2.332 -0.1115  0.0723  0.1156
33089W        W46503   1.941   7.626  13.302  0.1889  0.0261  0.1088
33090W        W46504  13.523   2.467   0.161  0.0697 -0.0165  0.4616
33091W        W46505   0.267   3.433  10.337  0.4422  0.1966  0.1699
33092W        W46506  14.270  10.923   1.397 -0.1259  0.4353 -0.1059
33093W        W46507  10.461  10.817   2.640 -0.2019 -0.1045  0.2944
33094W        W46508  13.500  14.615  12.747  0.1367  0.2853 -0.0866
33095W        W46509  15.997   8.711   4.618  0.0178 -0.0269 -0.0241
33096W        W46510   7.858   2.080   4.039  0.0747  0.1500 -0.2125
33097W        W46511   6.828  16.647  11.342 -0.0475  0.1408  0.1926
33098W        W46512  12.726   0.209  11.225 -0.1283  0.0332 -0.2069
33099W        W46513   9.368  16.497  13.856  0.0210 -0.0491  0.0146
33100W        W46514   8.813   0.059  10.315  0.0172 -0.2932  0.0242
33101W        W46515   5.287  10.746  15.700 -0.1011 -0.0798 -0.1360
33102W        W46516   2.430   7.817  13.266 -0.0511 -0.0590  0.1425
33103W        W46517   3.341   6.632  15.596  0.1411  0.4125 -0.1506
33104W        W46518  16.347   8.535   4.278  0.1926 -0.0007  0.0698
33105W        W46519  15.785  16.774   2.776 -0.0844 -0.4579 -0.0665
33106W        W46520   2.151  17.613  10.208  0.0917  0.1763 -0.0292
33107W        W46521   3.101  15.384   5.698 -0.0061 -0.1065 -0.0394
33108W        W46522   5.478  16.872  13.724 -0.1538 -0.1818 -0.3809
33109W        W46523  13.445  14.352   1.570 -0.0281  0.2001 -0.1593
33110W        W46524  11.191  12.977  15.526  0.0376  0.0815  0.5229
33111W        W46525  15.542   9.786  13.996  0.0759  0.0740 -0.0344
33112W        W46526  17.261   9.315  12.538  0.0109 -0.1561 -0.2784
33113W        W46527  10.744   0.650  12.283 -0.0511 -0.2295  0.1971
33114W        W46528  13.536   4.928   1.891  0.2230  0.1932 -0.0950
33115W        W46529  17.625  12.443   1.848  0.0007 -0.0555  0.0312
33116W        W46530  16.344   8.962   6.327  0.2429  0.1723  0.1226
33117W        W46531  11.668   5.468  15.995 -0.1548 -0.0010  0.1544
33118W        W46532   7.137   0.010  10.908  0.2511 -0.2212 -0.1895
33119W        W46533  15.721  11.084  11.272 -0.0110 -0.3204  0.2721
33120W        W46534  13.107  16.662  16.230  0.1852  0.0083  0.0351
33121W        W46535   3.683   1.547  13.948 -0.0151 -0.3926  0.0172
33122W        W46536   2.866   4.491   4.692  0.0922  0.0828  0.0231
33123W        W46537  15.772   8.862   2.504 -0.1126  0.3581  0.2552
33124W        W46538  12.541   4.564   4.599  0.0458  0.2647  0.1276
33125W        W46539   4.556  12.619  13.360  0.0525  0.1491  0.2486
33126W        W46540   1.811   6.417   6.385  0.1169 -0.1034  0.1789
33127W        W46541   8.336  15.770   6.088  0.1428  0.0769  0.2385
33128W        W46542  10.692   9.869   3.984  0.2072 -0.2495  0.1100
33129W        W46543  15.430   9.767   3.568  0.0455  0.1771 -0.1277
33130W        W46544  12.024   8.793   4.850 -0.2305 -0.0237  0.0637
33131W        W46545  15.949   1.955  13.257 -0.1942 -0.2477 -0.1915
33132W        W46546   5.433   1.034   2.044 -0.0188 -0.2632  0.0950
33133W        W46547   5.486   8.690  12.468  0.0902  0.0452 -0.0259
33134W        W46548   1.712  15.121   2.863 -0.0369  0.0633 -0.0349
33135W        W46549   8.878   5.135  14.820 -0.1795  0.1433 -0.0677
33136W        W46550  14.088   1.081  12.133 -0.0093  0.0949  0.0557
33137W        W46551  16.128   4.607   3.981 -0.1944  0.0050  0.1876
33138W        W46552  13.392  12.687  14.225 -0.2065 -0.2461 -0.2137
33139W        W46553   4.780   9.808   6.317  0.0631 -0.3499  0.0167
33140W        W46554   8.465  13.137  14.841 -0.1523  0.1414 -0.0399
33141W        W46555   6.774  11.673  11.937 -0.0803 -0.0363  0.2279
33142W        W46556  13.882   9.291   6.050  0.2467 -0.2903  0.2382
33143W        W46557  14.854   6.532  13.584  0.1957  0.0361  0.1429
33144W        W46558  17.075   7.394  11.024  0.0203 -0.2050 -0.1454
33145W        W46559  11.620   9.517   5.838  0.3571 -0.0833  0.1299
33146W        W46560   1.986   7.657   3.921 -0.1195 -0.0191  0.0678
33147W        W46561   1.188  13.758   1.609 -0.1596  0.2224 -0.1914
33148W        W46562  16.806  16.674  13.828  0.2238 -0.2723 -0.3166
33149W        W46563  11.654  10.757   2.740  0.1046 -0.0258 -0.0767
33150W        W46564  11.956   1.369  13.432  0.3162 -0.2113 -0.0647
33151W        W46565   5.766   4.392   1.262 -0.1733 -0.0397 -0.0592
33152W        W46566   9.371   0.732   1.424 -0.0687 -0.0931 -0.0608
33153W        W46567   6.192   0.423   0.151  0.0068 -0.0659 -0.0763
33154W        W46568  10.503   2.588  10.507  0.4395 -0.1269  0.1006
33155W        W46569  11.999   2.959  12.209 -0.0007  0.5726 -0.1803
33156W        W46570  17.334  11.847  11.295  0.0166  0.2232  0.1728
33157W        W46571  11.370  15.017  13.037  0.1814  0.0418  0.0200
33158W        W46572   0.079  11.632  13.156 -0.0333 -0.3139 -0.1500
33159W        W46573  15.215   3.339   3.161  0.0664 -0.2703  0.3182
33160W        W46574  16.397  16.415   2.134 -0.1626  0.0056 -0.1451
33161W        W46575  14.625  12.007   0.531 -0.0761 -0.0790 -0.0755
33162W        W46576  12.561   8.032  14.719  0.3108 -0.0294 -0.2150
33163W        W46577   6.377   8.177  11.139 -0.0312  0.0971 -0.2156
33164W        W46578   3.880   1.105  12.563 -0.2015  0.1175 -0.0553
33165W        W46579  12.977  13.493   1.280  0.1577 -0.0155 -0.3488
33166W        W46580   2.958   2.235   4.777  0.1356 -0.0839 -0.0581
33167W        W46581  16.147   7.534  10.556 -0.0089 -0.2531 -0.2596
33168W        W46582  15.895   7.081  12.442  0.0454 -0.0719  0.2461
33169W        W46583  11.152   3.361  10.763 -0.2027 -0.0557 -0.3788
33170W        W46584  14.081   0.387   3.065 -0.1208  0.1055  0.3029
33171W        W46585   8.853   7.863   1.019 -0.1623  0.1715  0.2036
33172W        W46586   4.179   7.920   2.368  0.2396 -0.3412 -0.0841
33173W        W46587   2.750  12.893  13.540  0.3091 -0.3514  0.1078
33174W        W46588   6.113  11.136  13.958  0.0496  0.0415  0.1019
33175W        W46589   2.781  10.105   5.532  0.1664  0.1868 -0.3415
33176W        W46590  17.495   7.053  15.690  0.3093 -0.1633  0.2776
33177W        W46591  13.152   4.304   5.130  0.1790 -0.2457  0.3568
33178W        W46592   4.137  12.465   4.115 -0.0108  0.0226  0.0850
33179W        W46593   0.048  14.903  12.393 -0.2521  0.1884  0.1336
33180W        W46594   5.868  16.242  10.949 -0.1484  0.1089 -0.0369
33181W        W46595   5.673   0.551  13.230 -0.1746  0.2279  0.0443
33182W        W46596  17.883   3.807  12.970  0.0839 -0.0172 -0.1181
33183W        W46597   4.758   2.335   0.881 -0.0396 -0.0267  0.3168
33184W        W46598  11.335   5.468   5.038 -0.0198 -0.1566 -0.3645
33185W        W46599   5.547   9.852  11.216  0.0970  0.2574 -0.3643
33186W        W46600  11.736  15.311  15.283  0.2563 -0.0795  0.4127
33187W        W46601   7.781  17.740   4.054  0.1487 -0.0406 -0.1768
33188W        W46602   2.587   2.296   1.548  0.1596 -0.2639 -0.2304
33189W        W46603   4.470   9.499  13.058  0.0915 -0.0904  0.0359
33190W        W46604  15.163   3.706  15.540  0.0015  0.1358 -0.1683
33191W        W46605   3.318   1.445  13.009 -0.0329 -0.0320 -0.0548
33192W        W46606   6.417   8.378   2.348  0.3068 -0.0803 -0.0106
33193W        W46607  11.386   2.184   6.016 -0.0480  0.3647  0.0080
33194W        W46608   9.965  11.474   0.665  0.1311  0.0001  0.1323
33195W        W46609   4.559   1.628  15.263 -0.2974 -0.0505  0.4756
33196W        W46610   6.671   4.246  10.285 -0.0251  0.1080 -0.1238
33197W        W46611   2.869   4.736   2.289 -0.0109  0.0605 -0.3351
33198W        W46612  13.165   5.226  13.312 -0.0384  0.3257  0.0648
33199W        W46613   1.343   7.365   1.404 -0.0410 -0.1612 -0.0776
33200W        W46614  14.715   6.152  11.807 -0.0789  0.0770  0.2068
33201W        W46615  10.989   4.407  14.124 -0.1261  0.0348  0.2212
33202W        W46616   2.319   7.146   3.059  0.3462  0.4238 -0.0645
33203W        W46617  15.352   3.701   0.680  0.0363 -0.0141 -0.1401
33204W        W46618  10.275   9.497  13.879  0.3263 -0.1381  0.0893
33205W        W46619  14.885  13.545  12.879  0.1487  0.0889  0.2007
33206W        W46620   7.007   0.165   2.336 -0.1168 -0.1567 -0.0760
33207W        W46621   3.413  13.668   4.043 -0.0260  0.0507  0.2558
33208W        W46622   4.656   1.300   0.804  0.1473 -0.0905  0.2090
33209W        W46623  14.343  14.172  10.151  0.0108 -0.1175 -0.1221
33210W        W46624   9.271   9.770  12.382 -0.0423 -0.1075 -0.0146
33211W        W46625   3.869   6.445   1.792 -0.0976  0.0502  0.1516
33212W        W46626  15.625   3.983  15.370 -0.0559  0.2488 -0.1103
33213W        W46627  11.495   4.273  13.231  0.0829  0.1257  0.3976
33214W        W46628   4.162   1.273   5.897 -0.1571 -0.0411  0.2957
33215W        W46629   7.758   8.996   2.541  0.1425 -0.0551 -0.0114
33216W        W46630  16.033   7.693  11.081 -0.2059 -0.2530 -0.2376
33217W        W46631   0.470   1.995   3.423 -0.3316 -0.0765  0.0767
33218W        W46632   4.358   7.168  16.188  0.1297  0.1235  0.2815
33219W        W46633   5.878  10.771  14.180  0.0209  0.0724 -0.1070
33220W        W46634   1.259  16.815   4.937  0.1817 -0.1098 -0.0970
33221W        W46635   9.511   5.146  11.744  0.0569 -0.0671 -0.0417
33222W        W46636   2.790  11.867   4.571 -0.1891  0.2393 -0.0213
33223W        W46637   6.562   8.168   4.454 -0.0176  0.1915  0.1989
33224W        W46638   2.044   3.308   2.391  0.0715  0.0217 -0.1490
33225W        W46639  10.775  12.532   6.533 -0.0925 -0.1161  0.2242
33226W        W46640  14.227  11.813   3.018 -0.0426 -0.3851  0.2091
33227W        W46641   8.575   6.238   3.728  0.1140 -0.1369  0.4291
33228W        W46642  10.131   9.756  12.679  0.0453  0.2821 -0.1413
33229W        W46643  12.046  15.608  12.669 -0.2154 -0.0081 -0.1018
33230W        W46644   0.018   8.774   3.374 -0.0061  0.3589 -0.1154
33231W        W46645  13.158   9.844  11.998 -0.0809 -0.2890 -0.0910
33232W        W46646   1.229  12.704  14.841 -0.1662  0.1444 -0.1652
33233W        W46647  17.615  10.523  14.423  0.2220 -0.0043 -0.2438
33234W        W46648   8.048  13.041  11.584  0.0143 -0.1534 -0.2642
33235W        W46649   2.575  13.743  13.090  0.1078  0.2453 -0.1265
33236W        W46650  10.551   3.706   2.494  0.1180  0.3306 -0.1360
33237W        W46651   7.521  12.183  14.986 -0.0423  0.1853  0.4605
33238W        W46652  15.529  13.243  14.443 -0.2223 -0.2397 -0.0079
33239W        W46653   7.954   4.432   5.589  0.2890  0.0902  0.1160
33240W        W46654   2.672  12.968  13.032 -0.0017 -0.2808  0.3897
33241W        W46655   8.496   9.745  12.906 -0.0061 -0.0661  0.2719
33242W        W46656  10.629   8.820   1.326 -0.1078  0.2011  0.0627
33243W        W46657  17.224   0.600  11.373  0.0433 -0.3087  0.2513
33244W        W46658   6.627   2.529  15.821 -0.1022  0.0681 -0.2242
33245W        W46659   1.910   3.445   3.103 -0.5571  0.0027  0.0527
33246W        W46660  16.937   4.378   1.652 -0.2114  0.0366  0.2629
33247W        W46661   7.188   0.469  10.695 -0.1089  0.3769 -0.0012
33248W        W46662  10.111   3.279  15.303  0.0544 -0.1258  0.1705
33249W        W46663   8.764   3.618  14.057  0.0107  0.0482 -0.5239
33250W        W46664  13.528   7.578  13.412 -0.1860 -0.0725 -0.1233
33251W        W46665  12.518  17.389   1.791 -0.2011  0.2756  0.0389
33252W        W46666  10.800   8.585  13.271 -0.1345 -0.0956  0.0056
33253W        W46667   3.354   1.059  12.013  0.0024  0.0954  0.3292
33254W        W46668  13.195   8.782   4.600  0.0581  0.2503 -0.1327
33255W        W46669  15.512  15.661   5.684  0.1309 -0.0029  0.2907
33256W        W46670   6.256   6.790  13.445 -0.5015  0.0165  0.1794
33257W        W46671  13.298  17.367   5.944 -0.0371 -0.1081  0.0303
33258W        W46672  13.559   3.393  15.478  0.0073  0.1903 -0.3085
33259W        W46673   2.327  15.721  10.847  0.0820 -0.1083 -0.1769
33260W        W46674   6.652   5.943   5.079  0.2746 -0.0528  0.2143
33261W        W46675  14.291   0.166  14.786  0.1444  0.1640 -0.1814
33262W        W46676  14.815   4.862   0.152  0.1636  0.0690 -0.2456
33263W        W46677   5.799  13.251   4.353 -0.2051  0.1083  0.0176
33264W        W46678   2.546  14.703   1.043 -0.2664  0.0772 -0.4550
33265W        W46679   5.503   8.934  13.461  0.0160  0.1291 -0.3453
33266W        W46680   6.046  13.516   1.384  0.0777  0.0484 -0.2671
33267W        W46681   2.454   0.664  14.187 -0.0111  0.2256  0.0797
33268W        W46682   5.088  11.990   2.687  0.0230 -0.2625  0.0982
33269W        W46683  15.252   0.431  10.193 -0.2142 -0.2717  0.4422
33270W        W46684  14.253  15.229  11.619  0.0141  0.1005 -0.1763
33271W        W46685  17.764  12.141   0.295 -0.0865  0.1604 -0.0606
33272W        W46686  11.367   7.512   4.154 -0.2951 -0.5013 -0.4263
33273W        W46687   2.591  12.836   5.960 -0.2210  0.3257  0.0980
33274W        W46688  14.300   4.482   2.629  0.0199  0.1583 -0.0874
33275W        W46689  10.824   0.963  14.671 -0.0119 -0.1368  0.1478
33276W        W46690  12.119   3.713  14.831  0.0150  0.0899 -0.1237
33277W        W46691  17.892  17.908  11.754  0.0836 -0.0656 -0.3091
33278W        W46692  10.043   4.778  11.612  0.2175  0.3158  0.0243
33279W        W46693  13.542   0.045   1.655  0.2370 -0.2127  0.0943
33280W        W46694   9.092   1.577  12.179 -0.0126  0.0927 -0.0723
33281W        W46695   9.559  16.774  12.713 -0.0452  0.1471  0.3877
33282W        W46696  15.101  14.567   5.444 -0.2401  0.1304 -0.3902
33283W        W46697  12.952   3.387  13.214 -0.1736  0.2012  0.1095
33284W        W46698   2.314   5.908  14.725 -0.0169 -0.0786  0.0530
33285W        W46699  12.973   3.711   4.555 -0.0078  0.1665  0.1065
33286W        W46700   1.441   1.286  13.994 -0.0095 -0.4213  0.3224
33287W        W46701  10.466   9.384  15.452  0.1666 -0.1501  0.2945
33288W        W46702   4.494   2.359   5.689  0.3069  0.1217  0.3028
33289W        W46703   0.373  13.980  11.385  0.2025 -0.1563  0.3312
33290W        W46704   0.699   0.412   3.007 -0.0725  0.4566 -0.0295
33291W        W46705   9.796  13.482   4.382 -0.1494  0.2297  0.2276
33292W        W46706   9.364  17.601   3.995  0.1406 -0.3643 -0.2104
33293W        W46707   6.447   7.585   5.947 -0.1867  0.2170  0.0502
33294W        W46708  13.637  12.837  12.840  0.1076 -0.1015  0.0065
33295W        W46709   3.863   1.566   3.369 -0.1121 -0.3107  0.1925
33296W        W46710   8.048  17.138  10.068 -0.0775 -0.0533  0.1874
33297W        W46711  12.155   1.561   0.503 -0.1282 -0.3440  0.0337
33298W        W46712   3.447   7.110  12.518  0.2846 -0.1239 -0.0553
33299W        W46713   0.929  17.432  15.316  0.2387  0.0081  0.2452
33300W        W46714  10.916   1.761   0.402 -0.1903 -0.0224 -0.1800
33301W        W46715  12.781   6.173  16.075  0.0617 -0.5981 -0.3900
33302W        W46716  12.370   9.126  13.096 -0.0623  0.2416 -0.0419
33303W        W46717  16.993   8.754   0.109  0.1446  0.1586 -0.1290
33304W        W46718  18.148   1.302   2.576  0.0396 -0.0404 -0.4835
33305W        W46719   0.141  16.803  16.251 -0.0564 -0.3590 -0.0418
33306W        W46720  15.274   3.740  14.118  0.2687  0.2033  0.1634
33307W        W46721   7.422   0.668   0.931 -0.0728 -0.2065  0.0296
33308W        W46722  12.574   5.539   2.058  0.0427  0.0395  0.2234
33309W        W46723   9.078  10.266   1.090 -0.2127  0.0194  0.1404
33310W        W46724  10.075   2.933   0.184  0.0266  0.0100  0.0595
33311W        W46725   4.535   6.286  11.900 -0.0026  0.2450 -0.2104
33312W        W46726  17.580  17.621  12.571  0.0760  0.3513  0.2449
33313W        W46727  10.868  17.481  13.668  0.1272  0.0572 -0.2036
33314W        W46728  12.180   1.738  15.515 -0.1876  0.0537  0.2764
33315W        W46729   6.424   2.026  14.060 -0.0445 -0.0898 -0.1175
33316W        W46730   2.538   5.519   5.729  0.0528 -0.0550  0.3230
33317W        W46731  17.238   1.029   4.987  0.2288 -0.0213  0.2301
33318W        W46732  10.929  15.062   4.726  0.0302 -0.1222 -0.0178
33319W        W46733  11.399  11.009  13.818 -0.0716  0.0706 -0.3313
33320W        W46734   0.262   9.816   4.589  0.0837 -0.0519  0.2302
33321W        W46735   4.562   0.961  13.771  0.0832 -0.0098  0.0447
33322W        W46736  10.354   2.124   9.825  0.1305 -0.1775  0.2062
33323W        W46737   9.363   6.370  11.557  0.5699  0.0406  0.2178
33324W        W46738   0.816  16.250  15.982 -0.0014 -0.0981 -0.2523
33325W        W46739   4.252   4.266  11.404 -0.0928  0.0883 -0.0801
33326W        W46740  15.948  11.879  15.188 -0.0315 -0.3219  0.0828
33327W        W46741  17.017   8.279   5.625  0.1294  0.1459  0.2162
33328W        W46742  17.103  10.186   1.225  0.1510 -0.3217  0.0208
33329W        W46743   8.471   6.332   0.959  0.0543  0.0034 -0.0243
33330W        W46744   6.276   3.228  14.750 -0.0355  0.2539 -0.0654
33331W        W46745  12.261  17.869   4.264  0.0071  0.2057 -0.1591
33332W        W46746  12.740   7.369  13.652 -0.2758  0.0312 -0.1098
33333W        W46747  12.260   6.156  12.011 -0.0065 -0.0566  0.0546
33334W        W46748  12.876   4.736  16.348 -0.0471  0.0036 -0.1046
33335W        W46749  16.699   7.980  14.584 -0.0350 -0.1853  0.1828
33336W        W46750  12.435   4.666  11.968  0.0863 -0.2314 -0.1645
33337W        W46751   7.035   6.136  11.928 -0.0709  0.0557 -0.2140
33338W        W46752  11.036  13.984   2.409 -0.1339  0.2124  0.0752
33339W        W46753  13.963  16.250  13.578  0.1210 -0.2458 -0.2247
33340W        W46754  10.949  13.969   5.326  0.0631  0.1090  0.0079
33341W        W46755   5.994   7.325  14.906  0.0336  0.1646 -0.0130
33342W        W46756  12.289   7.183   6.606  0.4218 -0.0521  0.2050
33343W        W46757  13.994  14.024  16.348 -0.1679  0.1410  0.3588
33344W        W46758  14.271  11.478   1.960 -0.5107 -0.1415  0.3518
33345W        W46759   7.618   9.919   4.302 -0.1761  0.0895  0.1210
33346W        W46760   4.366   9.550   2.589  0.0870  0.0355 -0.0979
33347W        W46761   8.340  17.499  11.498 -0.2402 -0.0437  0.3965
33348W        W46762  12.104   4.621   5.829 -0.0989  0.1934 -0.2921
33349W        W46763  11.236  17.385  11.592 -0.1306 -0.0025  0.5088
33350W        W46764  17.707   3.845   3.801  0.0257 -0.2821  0.0427
33351W        W46765  15.765  13.065   4.613 -0.0592 -0.2476  0.0439
33352W        W46766  16.894  11.042  13.270 -0.0470 -0.0932 -0.2839
33353W        W46767   4.881   1.675  13.445  0.0003  0.0897  0.0749
33354W        W46768   3.478  12.010   6.818 -0.0868  0.0776  0.2372
33355W        W46769   2.395   9.649   2.777  0.3333 -0.2089  0.1154
33356W        W46770  18.179  12.877   2.751  0.0235  0.2077 -0.0635
33357W        W46771  11.910   7.697   6.207  0.2311  0.2247 -0.1506
33358W        W46772   7.900  14.855  10.621 -0.1239  0.2796  0.1229
33359W        W46773   8.589   6.924  16.037  0.0857  0.0212 -0.3109
33360W        W46774   6.717   3.989  14.601 -0.2732 -0.3058  0.2317
33361W        W46775   6.028   0.899  10.985 -0.1549  0.1823  0.1172
33362W        W46776   4.113   0.145   1.628  0.0721 -0.2027 -0.2274
33363W        W46777   8.955  15.132   0.754 -0.0736  0.0957 -0.1974
33364W        W46778   3.489   7.587   3.002  0.1116 -0.1078  0.0395
33365W        W46779   2.484  17.491  14.365  0.1129 -0.4415  0.2111
33366W        W46780  11.830   5.638  12.793  0.1364  0.1562 -0.0404
33367W        W46781  11.447   2.322   1.101 -0.2127 -0.0767  0.1920
33368W        W46782   3.513  15.720  15.684 -0.0507  0.0632 -0.0329
33369W        W46783  13.413  10.450   3.608 -0.3117 -0.0147  0.0673
33370W        W46784   2.130   5.204   5.484  0.3204 -0.0185  0.1646
33371W        W46785  14.233   0.259  14.279 -0.0429 -0.0949 -0.0981
33372W        W46786   1.533   9.141  13.220  0.0428 -0.0201 -0.0210
33373W        W46787   0.857   0.289  12.392  0.0568  0.3792 -0.3118
33374W        W46788   1.781  16.167  16.253 -0.1018  0.1016 -0.1951
33375W        W46789   7.727   5.754   4.395 -0.0742  0.1037 -0.0311
33376W        W46790   2.271  10.224   4.609  0.0467  0.0779  0.0863
33377W        W46791   5.326   7.957   1.611  0.0110  0.2514 -0.1856
33378W        W46792  18.115  13.719   0.309 -0.0870 -0.1363 -0.1633
33379W        W46793  11.779   5.646  14.246  0.0447  0.0061  0.2227
33380W        W46794   9.878  14.870   0.685 -0.0478  0.2223 -0.2146
33381W        W46795  16.060   5.369  11.737 -0.1553  0.1723 -0.0525
33382W        W46796  11.577  17.732  10.583  0.0625 -0.0052 -0.0232
33383W        W46797  17.204  14.553  10.839 -0.0255  0.1746  0.3059
33384W        W46798   7.746   3.835  15.916 -0.4525 -0.2468 -0.0654
33385W        W46799   9.933  10.036   2.780  0.0181 -0.0136 -0.1242
33386W        W46800   7.901  15.209   1.580 -0.1235 -0.1071 -0.2801
33387W        W46801   7.827   7.277   4.596 -0.0017  0.3011 -0.0175
33388W        W46802  13.109   1.699  15.295 -0.0953 -0.0283  0.1942
33389W        W46803  13.660   2.182   2.741  0.2320  0.2153  0.1847
33390W        W46804   2.204  16.255  12.647  0.4698 -0.4215  0.0097
33391W        W46805   1.461   3.911   0.868  0.1194 -0.2356 -0.0004
33392W        W46806  11.009  15.419  16.074 -0.1769 -0.1705  0.2450
33393W        W46807  10.381  13.847  16.182  0.2087  0.2532 -0.2715
33394W        W46808  17.830   2.143   0.172 -0.1662  0.0651 -0.1918
33395W        W46809   6.562  10.933  10.836 -0.1212  0.2206  0.0820
33396W        W46810   4.176   3.621  13.755 -0.2268 -0.1454  0.1719
33397W        W46811   3.125  14.808  11.279  0.1068 -0.0636  0.0315
33398W        W46812   3.325  15.861   6.230  0.1575 -0.1288  0.3968
33399W        W46813   2.440  14.170  12.171  0.2060  0.1934 -0.0162
33400W        W46814  13.211  10.765   1.371 -0.0117  0.0634  0.3236
33401W        W46815   2.273   6.615  16.347 -0.0974  0.0914  0.0276
33402W        W46816  17.227  16.741  13.056  0.2833 -0.0242  0.0554
33403W        W46817   3.714  13.361   1.422 -0.0214  0.1535  0.1733
33404W        W46818   0.920   7.293   5.705  0.0854 -0.2890 -0.1699
33405W        W46819  17.844  17.962  15.671 -0.2650 -0.0695  0.3191
33406W        W46820   1.865   5.768  15.941  0.1060  0.0983  0.0457
33407W        W46821   5.487   2.884   5.014  0.0548 -0.1338 -0.1310
33408W        W46822   7.607  14.179   3.452 -0.2225 -0.0699 -0.2738
33409W        W46823  17.151   0.862   1.003 -0.1525  0.1798  0.0439
33410W        W46824   7.233   8.966   4.840 -0.0818  0.3016 -0.0340
33411W        W46825   8.509  17.303   3.169 -0.1817  0.2847 -0.0984
33412W        W46826   1.850  13.769   5.650  0.0305  0.2919 -0.0907
33413W        W46827   5.228   1.518  11.744 -0.0132 -0.1845  0.0521
33414W        W46828   9.913  13.394  11.203  0.2176  0.1842 -0.0016
33415W        W46829  10.818   2.254   0.548 -0.1049  0.4365 -0.0638
33416W        W46830  17.640   6.343   5.021  0.1106  0.1847  0.2074
33417W        W46831   7.542   3.892   1.830 -0.1981  0.1827  0.0251
33418W        W46832  11.998  12.588  15.448  0.2712 -0.1855  0.2197
33419W        W46833  14.116   0.881   1.152 -0.1180 -0.0144  0.2328
33420W        W46834  10.967  15.506  12.346 -0.2069  0.1084  0.2411
33421W        W46835  13.382  17.280  12.451  0.0259  0.1078  0.1467
33422W        W46836   1.199   2.032  13.296 -0.0247  0.2381 -0.1333
33423W        W46837  16.220   1.241   9.967  0.0452 -0.0135 -0.0421
33424W        W46838  14.853  12.877   0.921 -0.0310  0.1548  0.1050
33425W        W46839   6.059  17.887  10.318  0.1053 -0.0405 -0.0796
33426W        W46840  17.622   0.164  16.492  0.0937  0.1311 -0.1004
33427W        W46841   1.436   4.007   5.207  0.1623  0.0095  0.0355
33428W        W46842   0.944  13.685   3.512  0.2008  0.0191  0.3026
33429W        W46843   3.179   2.751   1.965 -0.2807  0.0293  0.0970
33430W        W46844   4.345  14.304  12.079 -0.0093 -0.2985  0.0620
33431W        W46845  12.203   8.807  15.222  0.1424 -0.0253  0.0528
33432W        W46846  13.173   8.562  13.338  0.1901 -0.1441 -0.2298
33433W        W46847   2.137   3.661  15.660  0.0101 -0.0146 -0.0325
33434W        W46848  15.886   8.527  14.793 -0.0916  0.0871  0.0242
33435W        W46849   2.499   6.459   0.923 -0.4457  0.1351  0.0768
33436W        W46850  17.802  13.012  10.869 -0.0689  0.0421 -0.1561
33437W        W46851   5.422  16.920  13.154 -0.0242 -0.0881  0.0664
33438W        W46852   9.025   0.436  11.087  0.1119 -0.1182  0.0127
33439W        W46853  11.549  12.438   3.303 -0.2167 -0.2549  0.1651
33440W        W46854  15.863  16.075  12.395 -0.0582 -0.1717 -0.0194
33441W        W46855   4.311   6.820  10.380  0.0111  0.1348  0.0721
33442W        W46856  10.032   9.169   4.555 -0.1349 -0.0243 -0.1865
33443W        W46857   9.106  14.901  13.886 -0.1779 -0.1539  0.0479
33444W        W46858   9.498   9.560  14.263  0.1435  0.1073 -0.0657
33445W        W46859  11.950   8.254   4.836  0.0646  0.1404  0.3536
33446W        W46860   0.838  14.839  13.589 -0.1834 -0.1681  0.1125
33447W        W46861   5.066   8.262   2.389  0.1106  0.1796  0.0512
33448W        W46862  16.262   7.174  15.200  0.1805 -0.2397  0.0182
33449W        W46863  14.764   2.563   2.901 -0.0314  0.0193  0.0625
33450W        W46864  11.944   0.698  11.862 -0.2509 -0.2064 -0.0150
33451W        W46865  11.351   7.729   0.978 -0.1777  0.0750  0.2278
33452W        W46866   1.021   2.280  10.899  0.0375 -0.1939 -0.1824
33453W        W46867   3.436   7.622   0.613  0.1094  0.0937  0.2809
33454W        W46868  16.996   0.903   2.758  0.1088  0.1692 -0.0465
33455W        W46869   0.403  14.909  11.088 -0.0281 -0.1031 -0.3026
33456W        W46870   5.781   3.937  14.722  0.0253  0.0572  0.0743
33457W        W46871  13.720   4.394  11.679  0.0049  0.2578 -0.0906
33458W        W46872   7.661  11.916  16.523  0.1369 -0.1843 -0.2166
33459W        W46873   1.095   2.048   0.192  0.0011  0.0944  0.0154
33460W        W46874  16.258  17.875   1.971 -0.1471  0.3419  0.1617
33461W        W46875   3.126   9.528  13.903 -0.2091  0.0961  0.2616
33462W        W46876   7.574  15.767   1.840  0.0676 -0.1652 -0.2804
33463W        W46877   7.199   7.925   3.985 -0.1719  0.0768  0.0834
33464W        W46878   9.387   5.523  11.458 -0.2753 -0.2099  0.0686
33465W        W46879   9.092  15.559   5.213  0.0057 -0.1326 -0.0469
33466W        W46880   2.100   5.327  16.129 -0.1181 -0.0128 -0.0712
33467W        W46881  18.027   4.425   4.437 -0.1219 -0.0018  0.0245
33468W        W46882   6.250   3.109   2.892 -0.0090 -0.2179 -0.0678
33469W        W46883  13.646   0.862   5.503  0.1279 -0.1091  0.2930
33470W        W46884   0.201   2.596   3.274 -0.4391 -0.3474 -0.2935
33471W        W46885   3.613   8.049   6.062 -0.2253  0.1826  0.1936
33472W        W46886   7.755   5.863  13.479  0.3724  0.0658  0.0817
33473W        W46887   5.030  10.124  15.586 -0.0987 -0.1331 -0.1469
33474W        W46888   2.901   0.530   3.231 -0.0278  0.1437 -0.2224
33475W        W46889   4.344   6.711   3.043 -0.0849 -0.3535 -0.0864
33476W        W46890  10.086  17.761  11.885 -0.1744 -0.1245 -0.1134
33477W        W46891   0.142   9.714  12.171  0.1109  0.0777  0.0983
33478W        W46892   0.637   0.696  14.467  0.0611 -0.2892 -0.2265
33479W        W46893  14.160  10.366  13.462 -0.2497 -0.2471 -0.1288
33480W        W46894  16.179   3.693   5.090 -0.1096  0.2420 -0.0543
33481W        W46895   9.895   8.083  14.013 -0.3722  0.0163  0.0808
33482W        W46896  16.346   2.906   4.461  0.2571 -0.0585 -0.0358
33483W        W46897   9.599  16.554  11.317  0.0727 -0.0644  0.2629
33484W        W46898  11.811   1.375   3.295 -0.0560  0.3514 -0.0918
33485W        W46899   1.084   9.372  12.099  0.0713  0.2204 -0.0569
33486W        W46900   3.376  11.469  11.147  0.3214 -0.2603  0.0556
33487W        W46901  15.800  11.662  13.424 -0.0738 -0.2835  0.0494
33488W        W46902   4.632  17.223   5.739  0.0967  0.1394  0.3805
33489W        W46903   1.633   8.587   0.104  0.0319  0.1565  0.2288
33490W        W46904  10.557   4.433  13.282  0.0805  0.2806 -0.0012
33491W        W46905   6.966   8.968   6.021  0.2252  0.2233 -0.0074
33492W        W46906  15.765   6.420  11.872 -0.1375 -0.0068  0.0575
33493W        W46907  17.297   2.569   5.884 -0.0923 -0.1808 -0.0442
33494W        W46908   6.429  10.718   2.672  0.1806 -0.1518 -0.2964
33495W        W46909   8.682   7.488   0.397  0.2468 -0.0344 -0.0691
33496W        W46910   9.030   2.519   4.973  0.1308 -0.1598 -0.2393
33497W        W46911  15.840   8.387   0.079  0.2083  0.2136  0.0246
33498W        W46912   5.480   3.746  15.765  0.2842  0.2291  0.1700
33499W        W46913  13.272  10.084   3.004  0.2467 -0.0473  0.0281
33500W        W46914  10.869  10.060   3.558 -0.0232  0.0954 -0.1742
33501W        W46915   5.354   5.867  16.081 -0.0895  0.3157  0.1323
33502W        W46916   6.708   6.437   2.071  0.2724  0.0938  0.0023
33503W        W46917  17.825   8.197   0.075  0.1999 -0.3674  0.0798
33504W        W46918   9.523  16.295  10.052  0.0865  0.1407 -0.1575
33505W        W46919   6.173   6.862  12.001  0.1822  0.2301  0.3040
33506W        W46920   4.429  14.915  13.759  0.0926  0.0098 -0.2541
33507W        W46921  11.835   6.870   3.313  0.3631  0.0574  0.2460
33508W        W46922  11.841   0.394   1.112 -0.0629 -0.2044  0.0965
33509W        W46923  14.006  16.571  12.601 -0.1140  0.1214  0.1637
33510W        W46924   3.518   5.705  13.244  0.0205  0.0328 -0.0251
33511W        W46925  18.171   1.868  12.342 -0.1081  0.0674 -0.3597
33512W        W46926  10.319  11.010  14.377  0.0725  0.3797 -0.0738
33513W        W46927   3.589   7.643   6.948  0.2655 -0.1033 -0.3017
33514W        W46928  15.623   7.386   1.859  0.3288 -0.4575  0.0492
33515W        W46929   6.877   3.102  10.967  0.1801  0.2179  0.3092
33516W        W46930   3.755  15.772  12.524 -0.2464 -0.0518  0.0725
33517W        W46931   3.093  11.773   0.097 -0.0889 -0.2509  0.2361
33518W        W46932   3.541   7.174  16.246  0.2066  0.1355  0.3047
33519W        W46933   8.849   4.081   0.002  0.2677 -0.1361  0.0692
33520W        W46934  15.609  13.767  13.259 -0.0653  0.1928 -0.3139
33521W        W46935   4.427  15.352  14.012 -0.3472  0.1254 -0.1105
33522W        W46936  16.688   6.220   5.356  0.1795  0.1070  0.2257
33523W        W46937  15.497   5.316   3.475  0.2400  0.3508  0.0609
33524W        W46938  16.741  15.904   5.247  0.2499 -0.1591  0.2584
33525W        W46939  16.182  18.038  11.195  0.0686  0.0235 -0.2953
33526W        W46940  15.668   2.645  14.822 -0.0887  0.1275  0.1306
33527W        W46941  17.721  11.179   5.603  0.1305  0.0283 -0.0754
33528W        W46942  11.980  14.586   2.685  0.1911 -0.1466 -0.0371
33529W        W46943  15.850  13.279   0.102 -0.0055 -0.2902  0.2387
33530W        W46944  14.640   0.735  16.058 -0.0449  0.1369  0.0261
33531W        W46945  16.675  17.903  11.197  0.0179 -0.2248  0.0936
33532W        W46946   9.414   2.860   2.035 -0.0475 -0.2843  0.0158
33533W        W46947  12.522  15.383   5.115 -0.0014  0.4628 -0.3519
33534W        W46948  17.859   2.379   0.625  0.2775  0.1954 -0.0108
33535W        W46949  14.154   1.426   1.721  0.3676 -0.4749 -0.1752
33536W        W46950  13.573  11.375  13.232  0.1849 -0.1003  0.1143
33537W        W46951  15.470   9.015   3.844 -0.1626  0.2448  0.2481
33538W        W46952   7.894  18.076  15.662 -0.2771  0.0277  0.1057
33539W        W46953  15.800   8.041  14.497 -0.0312 -0.2740  0.0342
33540W        W46954   5.951   7.593  16.051  0.0712  0.0656  0.0602
33541W        W46955  17.601   7.977  15.363 -0.0874 -0.0531 -0.0481
33542W        W46956  15.585  12.861  15.461 -0.0437  0.1636  0.3581
33543W        W46957   9.343   5.411   2.291  0.1119 -0.2708 -0.0911
33544W        W46958   5.391   0.463   0.579  0.1855  0.1751  0.0018
33545W        W46959   5.508   9.305   5.194 -0.0007 -0.1989 -0.2170
33546W        W46960  15.783   6.863  15.494 -0.2819 -0.0465  0.2615
33547W        W46961  14.978  15.892  12.387 -0.1280  0.1896 -0.0067
33548W        W46962   8.591  10.931  12.147 -0.1390  0.0228 -0.1114
33549W        W46963  13.490   7.576   4.921 -0.1925 -0.0602 -0.1706
33550W        W46964   8.780  17.714   4.376 -0.0695  0.0488 -0.0730
33551W        W46965   3.644  14.666  15.101  0.2946  0.0037 -0.1463
33552W        W46966  14.826  13.324   2.746 -0.1117 -0.2172  0.1141
33553W        W46967  14.793  15.320   5.465 -0.3914 -0.1539 -0.0715
33554W        W46968  15.628   4.311  10.250  0.1258  0.1211 -0.0099
33555W        W46969  11.228   8.351  10.703 -0.2442 -0.0603 -0.0316
33556W        W46970   4.382   4.870   5.526 -0.5064  0.3371 -0.0802
33557W        W46971  17.375   7.555  16.015 -0.1306 -0.2733 -0.2642
33558W        W46972  16.761   6.512   2.444 -0.0527 -0.3967 -0.1831
33559W        W46973  16.092   3.178  15.301  0.0770  0.0420  0.0937
33560W        W46974  15.166  16.911   0.339 -0.1264  0.1632 -0.0170
33561W        W46975   2.750   8.252  13.168 -0.0014 -0.0797 -0.0150
33562W        W46976  14.510   9.100  15.176  0.2016  0.1416 -0.1283
33563W        W46977   9.811   1.531   1.277 -0.1644  0.0469 -0.0615
33564W        W46978  13.924  12.554  14.284  0.0940 -0.1736  0.0476
33565W        W46979   0.682   5.328  16.316 -0.0185  0.1149  0.0206
33566W        W46980   3.844  17.758   3.804 -0.2224 -0.1495  0.0433
33567W        W46981   8.972   8.688   0.031 -0.0455 -0.1475 -0.2509
33568W        W46982   8.387  15.819  14.366 -0.3462  0.0915 -0.2145
33569W        W46983  15.461   7.422   4.941  0.0428  0.1503 -0.1324
33570W        W46984   7.785  18.200   0.697 -0.2669 -0.0675 -0.0965
33571W        W46985   0.593  12.912  13.319 -0.0009  0.1882  0.1524
33572W        W46986   0.583   0.694  16.421  0.1240  0.0012  0.1005
33573W        W46987   0.982  15.511  11.200  0.3590 -0.1715  0.0342
33574W        W46988  12.465   0.503  16.130  0.1696  0.0380 -0.0025
33575W        W46989   0.051  14.193  12.235  0.0164  0.0558 -0.0738
33576W        W46990  12.799  13.955   3.299  0.0531 -0.1704  0.1648
33577W        W46991   0.531   6.370   0.129  0.0257  0.1906  0.0617
33578W        W46992   0.924  12.383   2.162 -0.5826 -0.1203 -0.3133
33579W        W46993  16.196   5.977   1.169  0.0951  0.0007  0.0135
33580W        W46994  17.279  16.968   1.710  0.0430 -0.0788  0.0110
33581W        W46995  17.230   6.881  11.137  0.0717  0.0006 -0.0267
33582W        W46996   8.802  17.464   9.635 -0.0095 -0.3525  0.1566
33583W        W46997   5.429   9.701  16.446  0.0176  0.2950  0.2637
33584W        W46998  12.368   9.691  15.243  0.0407 -0.2405  0.1931
33585W        W46999   1.001   9.462   1.528  0.5509 -0.0200  0.1201
33586W        W47000   1.201  14.899   5.760  0.2227 -0.1067  0.0931
33587W        W47001  15.821  15.421   1.362  0.4750  0.1338  0.0130
33588W        W47002   6.773   9.506   1.511 -0.2329 -0.2564 -0.1650
33589W        W47003  12.569   6.483  13.685 -0.1030 -0.2593 -0.1014
33590W        W47004   9.404   2.214  15.735  0.2462 -0.2215  0.0029
33591W        W47005   8.195   6.026   2.771  0.0986 -0.2541  0.0969
33592W        W47006   8.390   9.399  10.835 -0.0582  0.1631 -0.1902
33593W        W47007   6.495   3.501   4.135  0.1825  0.0482 -0.0048
33594W        W47008  10.773   9.436  13.723  0.0550  0.2056  0.0534
33595W        W47009  10.084  12.332  15.319 -0.0396 -0.2556 -0.2687
33596W        W47010   2.905   3.934  16.434  0.1561 -0.1063 -0.0926
33597W        W47011   1.148  18.124  12.777 -0.1220  0.0931 -0.1447
33598W        W47012  11.549  13.279  12.638 -0.3063  0.0623  0.0271
33599W        W47013  18.056  15.931   2.131  0.2225 -0.1063 -0.1116
33600W        W47014   1.160  18.048  14.221 -0.2820 -0.2652  0.0067
33601W        W47015   9.724   3.160   3.985  0.1233  0.0713  0.0438
33602W        W47016   0.470   8.676   0.679  0.1031 -0.1687 -0.0342
33603W        W47017  16.135   8.438   3.208  0.1517  0.0614 -0.0447
33604W        W47018  12.606   4.409   6.065  0.1381  0.2397 -0.3057
33605W        W47019  11.162   0.774  16.361 -0.0369  0.0836  0.1117
33606W        W47020  15.705   3.936  12.299  0.0748 -0.0889  0.4701
33607W        W47021   9.359  12.591  10.322  0.2131 -0.1363 -0.0544
33608W        W47022  10.274  17.799  10.047  0.1478 -0.0429 -0.2470
33609W        W47023   3.375  17.331  10.847 -0.0169  0.0070 -0.1024
33610W        W47024  14.260  16.116  15.776  0.0987 -0.2116  0.0471
33611W        W47025   3.778   7.950   1.956  0.1382  0.3020 -0.4752
33612W        W47026   8.521   3.335   1.401 -0.2481  0.0547  0.0747
33613W        W47027   8.944  15.149  15.459 -0.1357  0.0477 -0.2476
33614W        W47028   9.435   8.677  15.996 -0.0904 -0.1939 -0.2686
33615W        W47029   1.978  17.571  15.843  0.2586 -0.0699 -0.2444
33616W        W47030  12.434   1.923   9.873  0.4447 -0.3246 -0.0478
33617W        W47031  11.921  11.491   3.065  0.1375  0.0307  0.1094
33618W        W47032   6.705  15.667   0.749  0.1213 -0.4155  0.2468
33619W        W47033  13.453  14.697  16.083 -0.2038  0.0061  0.1069
33620W        W47034  17.134  11.113   2.080  0.3437 -0.1754  0.0806
33621W        W47035   7.552  15.319  15.911 -0.3432  0.0603  0.1501
33622W        W47036   0.514   3.564  12.319  0.1059 -0.2687  0.3949
33623W        W47037  10.519   1.544  13.392  0.0179 -0.3559 -0.0634
33624W        W47038   3.796   5.300  11.504  0.0132  0.0103  0.0869
33625W        W47039   2.135   2.098   4.242 -0.1550  0.0318 -0.0493
33626W        W47040   9.608  12.732  12.909  0.0416  0.1350  0.0834
33627W        W47041  11.945   7.385  16.043 -0.1465 -0.1883  0.0442
33628W        W47042  16.837   8.899   0.652 -0.1835 -0.0512 -0.3106
33629W        W47043  12.930  14.020  12.150 -0.0607  0.1735  0.0775
33630W        W47044   0.107   3.180  11.300 -0.0535 -0.3237  0.0350
33631W        W47045   5.430   7.648   3.499 -0.0409  0.2027  0.0126
33632W        W47046  12.597   5.354   0.010  0.2072 -0.2411 -0.0315
33633W        W47047   6.335   0.769   0.970  0.1722  0.0409 -0.0847
33634W        W47048  14.738   5.890  15.997 -0.3934  0.0431 -0.0121
33635W        W47049  14.955   1.064   2.804 -0.2064 -0.1509 -0.1531
33636W        W47050   7.041   9.938  11.346 -0.0554 -0.3570  0.0931
33637W        W47051  12.500  17.292  12.758 -0.2367 -0.3206 -0.0572
33638W        W47052  14.222   4.495  11.591 -0.0035  0.1558 -0.2265
33639W        W47053   0.673   4.384  13.025  0.1444 -0.0870  0.2796
33640W        W47054   1.194   5.088   2.891 -0.0183 -0.2136  0.2106
33641W        W47055   6.170   1.248   9.644  0.0932  0.0557  0.3880
33642W        W47056   6.038  11.129  12.839  0.1998  0.0847 -0.1693
33643W        W47057  14.770  13.562   1.375 -0.2242  0.2144 -0.1214
33644W        W47058   7.618  10.336  15.068  0.1765  0.1320 -0.2015
33645W        W47059   5.210   4.911  15.277  0.0667 -0.2101 -0.0216
33646W        W47060  15.771   8.062   3.038  0.1695  0.1447  0.0904
33647W        W47061   2.911  10.916   3.766  0.2455  0.4464 -0.3076
33648W        W47062   4.682   5.187  10.491  0.2035  0.0167 -0.0239
33649W        W47063  17.043  17.007   4.377 -0.0078  0.0921 -0.2443
33650W        W47064   0.343   6.434   0.907  0.1496  0.2081  0.2032
33651W        W47065  12.723   6.023  11.807 -0.0484  0.1057  0.0132
33652W        W47066   6.223   3.934   4.254 -0.1067  0.0593  0.0531
33653W        W47067   7.898  12.978  13.187 -0.1529 -0.0638 -0.0336
33654W        W47068   1.473   5.201   1.735  0.1249 -0.0212 -0.0749
33655W        W47069   6.190  16.695   3.119 -0.1099 -0.1171 -0.1041
33656W        W47070   4.470  15.367   4.935 -0.2119  0.1340  0.0644
33657W        W47071   3.243   2.157   3.680  0.0913 -0.0041 -0.0962
33658W        W47072   6.485   1.026   5.615  0.3892  0.3543 -0.1124
33659W        W47073   5.781  10.120   5.531  0.0246  0.3791  0.1441
33660W        W47074  12.624   3.162   3.858  0.0170  0.2516 -0.0598
33661W        W47075   9.601   5.708   0.497 -0.2428  0.1563  0.0452
33662W        W47076   4.569  16.260  11.446 -0.0462  0.4308  0.1024
33663W        W47077   5.005  12.158   3.573  0.4339 -0.3557  0.2024
33664W        W47078  17.317   5.692  14.079 -0.1408  0.1170  0.0838
33665W        W47079  12.837  14.072   4.280  0.0198  0.3875  0.3517
33666W        W47080   8.994   7.510   4.708 -0.1377  0.0667 -0.1319
33667W        W47081   5.304  10.957   5.940  0.0021  0.0171  0.1628
33668W        W47082   2.620  12.971  10.702 -0.0291  0.0318  0.1005
33669W        W47083  10.851   6.022   3.487 -0.2120 -0.2880  0.0336
33670W        W47084   5.566   9.918  13.990  0.2219  0.0348  0.3354
33671W        W47085   8.404   5.227  12.991 -0.0421 -0.2681  0.0287
33672W        W47086  13.786  13.704  15.210  0.0945  0.0814 -0.2589
33673W        W47087   9.185   9.639  15.856  0.0599 -0.1312 -0.1008
33674W        W47088  14.962  11.589  15.532  0.1901  0.0314 -0.2474
33675W        W47089   5.348   4.497  14.593  0.2503  0.0972  0.1929
33676W        W47090  18.094   8.749   1.489 -0.1477 -0.0346  0.1750
33677W        W47091   4.698  15.786   2.376 -0.2231 -0.1671 -0.3910
33678W        W47092   2.501   1.264   3.307 -0.0519  0.1169 -0.1721
33679W        W47093   8.035   8.670  11.533  0.0896 -0.0613 -0.0525
33680W        W47094   9.326   9.207   0.226  0.0642 -0.0375  0.2072
33681W        W47095   3.577  16.555  13.364  0.1656  0.3133 -0.1003
33682W        W47096  11.651   7.025   0.257  0.0770  0.1221 -0.0639
33683W        W47097  13.811  14.426   4.203 -0.1986  0.1114 -0.3640
33684W        W47098  11.480   3.494   5.867  0.1125 -0.1977 -0.1795
33685W        W47099  15.120  17.121   1.219 -0.1603 -0.1524  0.1082
33686W        W47100   4.861   5.274   3.390  0.1532  0.3381  0.3150
33687W        W47101   8.169   5.664  12.774  0.3960  0.1635  0.3720
33688W        W47102  12.229   5.171  13.203 -0.3970 -0.1098 -0.0050
33689W        W47103   5.738  16.852   2.899  0.0601  0.1322  0.1410
33690W        W47104  14.760   9.105  14.667  0.0278  0.1283 -0.2219
33691W        W47105  16.800  13.929  12.823  0.1388 -0.2043 -0.0271
33692W        W47106  13.894  12.734   5.884  0.1298 -0.0322  0.0836
33693W        W47107   4.264  15.469  11.436 -0.0064 -0.4018 -0.2171
33694W        W47108  11.987   5.867   4.373 -0.2581  0.1961  0.4075
33695W        W47109  17.745   1.679   5.860 -0.1032  0.1044  0.2080
33696W        W47110   1.701  11.115  13.869 -0.4229 -0.1869  0.0592
33697W        W47111   2.312  10.845   2.599 -0.0358 -0.0810 -0.1003
33698W        W47112  16.461  17.905  15.416 -0.0231 -0.0952 -0.2784
33699W        W47113  16.476  16.031   2.570 -0.0678 -0.1722 -0.1316
33700W        W47114  15.869  15.393  16.310  0.0914 -0.2420  0.1830
33701W        W47115  16.503   1.470   4.026  0.0324 -0.3403 -0.4143
33702W        W47116  12.393  10.101   2.692 -0.0436  0.2600  0.1822
33703W        W47117  15.893   1.197   1.579  0.1676  0.0485  0.2617
33704W        W47118   0.242  14.942   5.936  0.1656 -0.2866  0.2139
33705W        W47119  10.639   7.852   3.976 -0.0380  0.1572 -0.1571
33706W        W47120   6.453   2.337   2.263  0.2466  0.0047  0.3219
33707W        W47121   0.363   2.379   1.143 -0.0319  0.1758 -0.3339
33708W        W47122  15.072  17.562  15.439  0.2954  0.1866  0.3929
33709W        W47123  17.445  17.335   1.363  0.0911  0.0151 -0.1366
33710W        W47124  15.392  14.388   4.035 -0.1865  0.0815 -0.0333
33711W        W47125   8.645   0.796   3.682 -0.0008  0.2553 -0.1023
33712W        W47126   9.720   2.723   0.992 -0.0515  0.1969 -0.0601
33713W        W47127   8.224  15.639   2.372 -0.2968 -0.3657  0.0207
33714W        W47128   8.440  15.298  10.039 -0.3295  0.1357  0.0647
33715W        W47129   7.491   4.454   4.636 -0.0728  0.2829  0.1989
33716W        W47130   5.288  13.628  16.025 -0.0618  0.1056 -0.0785
33717W        W47131  13.336  12.526  16.117  0.1097 -0.2617 -0.0704
33718W        W47132   6.866  11.532  15.912  0.0653  0.1495 -0.0038
33719W        W47133   0.459   2.076   4.403  0.0541  0.0574 -0.0702
33720W        W47134   9.156  10.098   4.037 -0.1861  0.0236 -0.2249
33721W        W47135   5.063  15.461  15.748  0.1077 -0.0458  0.1524
33722W        W47136  14.366   8.969   0.376 -0.0102 -0.1534  0.1786
33723W        W47137  17.337   3.120  11.861 -0.0957 -0.1120  0.2295
33724W        W47138   0.627   4.772   6.095  0.1208  0.0828 -0.0808
33725W        W47139  10.976   8.215   1.932 -0.0157  0.0616 -0.2382
33726W        W47140  10.656   0.772  11.442 -0.0917 -0.0768 -0.1597
33727W        W47141   4.341   6.247   0.928 -0.0569 -0.0119 -0.1476
33728W        W47142   6.159   6.716  12.977  0.0122 -0.2162  0.3177
33729W        W47143   5.706   9.641  12.155  0.0203 -0.0524 -0.0084
33730W        W47144  12.259  11.118   5.158 -0.1530  0.0760  0.2092
33731W        W47145  17.240   5.379  12.964  0.1017  0.0310  0.1050
33732W        W47146   1.764  14.992  12.737 -0.1338  0.0968  0.1601
33733W        W47147   9.145  13.614   0.526 -0.1090  0.1255  0.0935
33734W        W47148   0.842  16.459   6.242  0.0637 -0.2622 -0.1447
33735W        W47149   8.172  11.856   2.171  0.2766  0.2873  0.5057
33736W        W47150   8.142   1.954  13.102  0.0664 -0.3876  0.0609
33737W        W47151   3.828   2.848   2.679 -0.0667  0.0887 -0.0471
33738W        W47152  18.007  14.968  16.184 -0.2131 -0.0332  0.0844
33739W        W47153   8.611   3.720  12.915 -0.0645  0.0422  0.1355
33740W        W47154   0.771   9.438  16.337 -0.4742  0.5087 -0.2637
33741W        W47155   0.759  12.450  13.140 -0.1264 -0.1627  0.2196
33742W        W47156   1.102   0.729   5.949 -0.3668 -0.2015  0.0016
33743W        W47157   6.376  14.545   1.832  0.1819  0.0359  0.3000
33744W        W47158  15.281   9.712   5.720 -0.0868  0.0982 -0.0748
33745W        W47159  14.173   9.614  13.340 -0.2699  0.2766 -0.0372
33746W        W47160   2.203  13.223  11.472 -0.1301 -0.0828 -0.2359
33747W        W47161   4.292  14.228   1.748  0.0752 -0.0026 -0.1726
33748W        W47162  15.253   1.045   1.025 -0.0215 -0.1104  0.1265
33749W        W47163   5.972  13.878  15.079 -0.1145 -0.0392 -0.2328
33750W        W47164  12.201   6.043   2.809  0.0780  0.1571 -0.1489
33751W        W47165  13.085   3.672  16.359 -0.2278 -0.0529 -0.2654
33752W        W47166   3.949  14.619   0.658 -0.0580  0.1863 -0.0725
33753W        W47167  12.164  11.869  16.117 -0.2998  0.2992  0.0239
33754W        W47168   9.466   8.522  15.449  0.0477 -0.0153 -0.1496
33755W        W47169   5.269  15.680  10.375  0.1001 -0.0763 -0.2298
33756W        W47170   7.238  15.146  15.077  0.0224 -0.0256 -0.5184
33757W        W47171  14.704   9.200   4.479 -0.2145  0.2341 -0.1468
33758W        W47172  10.373   4.753   3.316  0.0024  0.1549 -0.1589
33759W        W47173  13.336  14.010   2.013  0.1965 -0.0636 -0.1851
33760W        W47174   7.475  13.337   4.729 -0.0397 -0.1894 -0.1924
33761W        W47175  13.114   7.541  14.017 -0.0085 -0.2995  0.0056
33762W        W47176  16.317  12.013   2.596  0.0288 -0.4510 -0.0065
33763W        W47177   1.723  16.264   1.177 -0.0312  0.3481 -0.1593
33764W        W47178   8.568   3.557   0.317 -0.1053 -0.1723 -0.0422
33765W        W47179   7.465   9.269   5.131 -0.1099 -0.0671 -0.0341
33766W        W47180   2.930   3.081   0.268 -0.2856  0.2353  0.0135
33767W        W47181   3.418  17.384   5.068  0.2516 -0.1456  0.1916
33768W        W47182  14.117   8.347   3.241 -0.1766 -0.1050 -0.3024
33769W        W47183   8.121  10.419   0.710  0.0252 -0.0962  0.3333
33770W        W47184  12.500   1.307  15.636 -0.0984 -0.1075 -0.0407
33771W        W47185  12.325   2.630   0.511 -0.0828  0.0738  0.0582
33772W        W47186  12.853   3.234   0.084  0.0383  0.1237  0.0807
33773W        W47187  14.723   9.158  15.669  0.1488  0.2898  0.0822
33774W        W47188  17.939  10.987  16.100 -0.2707  0.3847  0.2121
33775W        W47189   2.294  11.576   4.855  0.0173  0.2083  0.2157
33776W        W47190   5.610   6.339  14.730  0.2825 -0.1799 -0.0534
33777W        W47191   0.003   6.971   3.769  0.1509  0.1069  0.1731
33778W        W47192  10.045   3.494   4.817 -0.0871 -0.3158  0.0847
33779W        W47193  13.679  12.094   3.276 -0.0762  0.1617 -0.2249
33780W        W47194   3.391   6.350  16.468 -0.1131  0.2321 -0.0023
33781W        W47195  11.146   3.232  12.626 -0.0261  0.1515  0.0599
33782W        W47196  17.816  14.970  11.354  0.2454 -0.1649 -0.1272
33783W        W47197   8.810  11.379  15.372  0.1177 -0.1908 -0.0333
33784W        W47198  16.311  14.173   3.845  0.0063  0.3351  0.2514
33785W        W47199   8.848   7.727   3.731  0.0044  0.1269  0.2687
33786W        W47200   6.310  12.865  12.271 -0.0258 -0.1194  0.1456
33787W        W47201   8.815   6.426  12.835  0.0326 -0.0491 -0.0447
33788W        W47202  13.372  15.397   2.589  0.1884  0.2394  0.0317
33789W        W47203   1.583  10.886   0.561 -0.1718 -0.3043 -0.0273
33790W        W47204   2.896   8.825   3.041  0.1564  0.2353 -0.1851
33791W        W47205   4.703  15.574  11.851  0.1691 -0.2071  0.2682
33792W        W47206   2.792   4.871  12.771 -0.0309 -0.2402  0.1752
33793W        W47207   2.694   7.562  16.488  0.0083  0.1974  0.2910
33794W        W47208  14.763  14.581  12.398 -0.1572  0.0260  0.1359
33795W        W47209   5.051  13.961  12.578 -0.0007 -0.0618 -0.4525
33796W        W47210   2.249   2.655   1.656  0.1061 -0.1911  0.1330
33797W        W47211   2.810   9.530  15.487  0.2541 -0.2949 -0.0153
33798W        W47212   3.856  15.085  13.672 -0.0331  0.3245 -0.0284
33799W        W47213  12.334  16.452  11.012  0.0031  0.0785  0.3829
33800W        W47214  13.159   0.812   3.372  0.1951 -0.2411 -0.1007
33801W        W47215   1.374  10.440   6.064 -0.0920 -0.0769  0.0191
33802W        W47216  13.879   8.061  15.221 -0.2836 -0.2968 -0.1553
33803W        W47217  15.767   5.202  10.450  0.0844 -0.0391 -0.0318
33804W        W47218  13.115   9.268  14.657 -0.2633  0.3855  0.0883
33805W        W47219   6.916   6.226   3.500  0.2367  0.1490 -0.2108
33806W        W47220  11.484   3.181   5.465 -0.1390  0.1393  0.1118
33807W        W47221   2.634   8.159   2.824  0.0572  0.1398 -0.0981
33808W        W47222  10.191  16.300  15.565  0.0572  0.2772  0.0617
33809W        W47223   7.243  16.184   0.097  0.0963  0.1402 -0.1124
33810W        W47224   1.545   1.370  11.783 -0.0692 -0.0923 -0.2896
33811W        W47225   0.140   8.400   3.700 -0.1973 -0.2687  0.1701
33812W        W47226   9.761   1.842  15.702  0.1050  0.0863 -0.0068
33813W        W47227   9.363  17.529   2.257  0.2378  0.0791  0.1272
33814W        W47228   7.386   5.415   1.429 -0.0901 -0.1750  0.0038
33815W        W47229   5.613   2.143  16.288  0.3334 -0.2591  0.1654
33816W        W47230  15.180  16.256   1.802 -0.0314  0.1655  0.0854
33817W        W47231  15.983  10.643   5.421  0.0900 -0.5945  0.2954
33818W        W47232  17.021   3.620  12.910  0.3567 -0.0631  0.4029
33819W        W47233   1.161   9.159   3.386  0.1074 -0.1165  0.0467
33820W        W47234   6.002   4.000  12.867 -0.1509 -0.0189  0.1019
33821W        W47235   5.245  12.813  15.474 -0.0959 -0.0697  0.0450
33822W        W47236   7.859   5.818   3.466  0.0425  0.0032  0.1183
33823W        W47237   2.496   7.853  15.658 -0.1894  0.1145 -0.1592
33824W        W47238  13.907  16.375   1.418 -0.0296 -0.4460  0.1011
33825W        W47239  13.010   1.584  11.023 -0.0402  0.0370  0.0469
33826W        W47240  13.910   0.420  10.836 -0.2766  0.2402  0.0761
33827W        W47241   0.357  10.454  12.659  0.2741 -0.3322 -0.0734
33828W        W47242   1.729  11.230   0.944 -0.1083 -0.0908 -0.1689
33829W        W47243  12.700   7.621  15.476  0.1886  0.1378 -0.0936
33830W        W47244   9.285   2.184  13.673 -0.0110  0.0593 -0.1454
33831W        W47245  13.123   7.335   5.168  0.0034  0.3548  0.1124
33832W        W47246   6.634  16.666  14.007  0.4105 -0.2278 -0.0928
33833W        W47247  16.965  10.533  13.190 -0.1176  0.3175 -0.0873
33834W        W47248   5.912  11.148  16.156 -0.2563 -0.1764  0.2010
33835W        W47249  12.379  14.069   0.765  0.1326 -0.0830  0.0836
33836W        W47250  15.067   6.099  13.724 -0.1355  0.2525  0.0920
33837W        W47251  16.891  11.025  13.965  0.1785  0.0478 -0.0656
33838W        W47252  16.171   5.452  12.930 -0.1980 -0.3078  0.1511
33839W        W47253  10.719   8.090  12.110 -0.3308  0.0029 -0.3984
33840W        W47254   1.583  15.055   3.743  0.1465  0.0514  0.0795
33841W        W47255  13.516  10.693   0.278  0.3276  0.0514  0.1078
33842W        W47256   9.458   0.158   2.597  0.1145  0.1872 -0.2632
33843W        W47257  11.859   4.209   5.343 -0.2662  0.0582 -0.2302
33844W        W47258   5.030   5.809  15.152  0.0428 -0.2157  0.3320
33845W        W47259  12.018   8.642  12.662 -0.3295 -0.3152  0.0955
33846W        W47260   0.426  10.364  14.294 -0.0326 -0.0062  0.1088
33847W        W47261  10.205  16.190  12.031  0.3039 -0.2696  0.1444
33848W        W47262   6.528  11.431  11.584  0.0565  0.0892 -0.0279
33849W        W47263  15.532   2.896  11.379  0.0768 -0.0690  0.0028
33850W        W47264   2.287  17.545   0.932  0.1271  0.0338 -0.3033
33851W        W47265  17.710  10.165   1.169  0.0882  0.0610 -0.0748
33852W        W47266  16.755  14.358   1.490 -0.2445 -0.3422 -0.0195
33853W        W47267  16.002   6.067   2.833  0.0267 -0.3292  0.1824
33854W        W47268  17.319  14.584  11.385  0.1686 -0.2246 -0.1781
33855W        W47269   8.727   2.163  14.935 -0.2052  0.0276 -0.0364
33856W        W47270  18.065  11.529   2.267 -0.2041  0.1422 -0.1581
33857W        W47271  17.859   0.821  11.399  0.1469 -0.0384 -0.2628
33858W        W47272  14.043  15.529  15.218  0.1029 -0.0534 -0.1981
33859W        W47273   3.322  15.033   4.519 -0.1772 -0.0111  0.0598
33860W        W47274   0.889   2.799   4.893 -0.3101  0.0996  0.3233
33861W        W47275   1.984   9.858   3.688  0.0417 -0.2660  0.2064
33862W        W47276   5.746  13.276  15.926 -0.0201 -0.3786 -0.0696
33863W        W47277  15.267  10.820  12.718  0.2555  0.0959  0.1850
33864W        W47278   8.179  14.438  12.008 -0.1656  0.1737 -0.1001
33865W        W47279  15.519  15.390  15.754 -0.0265 -0.0863  0.0731
33866W        W47280   4.734   2.590   1.778  0.0854 -0.0576 -0.1625
33867W        W47281  11.601   1.401  11.537  0.0777 -0.1268 -0.0255
33868W        W47282  14.366   5.563   2.467  0.2844 -0.2605 -0.0975
33869W        W47283  14.873  11.696   1.046 -0.1537  0.2318 -0.0599
33870W        W47284   7.646  12.355   4.105 -0.2353 -0.1065  0.1276
33871W        W47285   2.652  17.909   0.837  0.0579 -0.0129  0.0121
33872W        W47286  17.059  11.310   4.300  0.0321 -0.2183  0.0556
33873W        W47287  10.744  18.103  15.258  0.0891  0.0549 -0.1728
33874W        W47288   8.402   2.921  12.163 -0.0490 -0.2341 -0.0498
33875W        W47289  17.683  17.236   3.882 -0.3070  0.2416 -0.1703
33876W        W47290   0.478   2.535   5.722  0.1357 -0.0982  0.2893
33877W        W47291   7.937   1.288   1.373  0.0477  0.3987 -0.1933
33878W        W47292  10.919  15.008   0.764  0.0622 -0.2051 -0.0609
33879W        W47293   0.792  13.238   2.681  0.3506 -0.0241 -0.0409
33880W        W47294  11.928  11.993   1.280 -0.1928  0.0599 -0.0041
33881W        W47295   0.293  16.036   2.860 -0.1171  0.2602  0.0397
33882W        W47296  16.927   2.812  14.455  0.0997  0.0902  0.0634
33883W        W47297   8.595  17.116   2.367 -0.2141 -0.3627  0.0793
33884W        W47298  13.895  10.523  14.295  0.0167  0.2779 -0.2073
33885W        W47299  18.173  14.020   5.967 -0.1293 -0.1391 -0.0053
33886W        W47300  12.991   4.677   4.834 -0.0366  0.5063  0.3040
33887W        W47301   0.565   3.609  13.878 -0.2100 -0.0979  0.0141
33888W        W47302  15.197  18.021  11.901 -0.1855  0.0051 -0.2199
33889W        W47303   2.185   1.322  15.269 -0.1069 -0.4165 -0.0438
33890W        W47304   7.413  15.145   2.318 -0.2258 -0.0286  0.0392
33891W        W47305   6.959  13.371   0.829 -0.1428  0.2388  0.0318
33892W        W47306  11.101   9.233   6.764 -0.2458  0.1207 -0.0318
33893W        W47307  12.031  15.068  14.273  0.2489 -0.3385  0.1736
33894W        W47308   6.390   5.129   0.054 -0.2156 -0.1863 -0.0873
33895W        W47309   7.027  16.236   3.116  0.1228 -0.0982  0.0152
33896W        W47310   5.940   2.577  14.658  0.3066  0.4642  0.0121
33897W        W47311   5.591  11.233  15.661  0.0284 -0.0344 -0.0896
33898W        W47312  10.263   9.639  15.029  0.0085  0.3167 -0.0946
33899W        W47313   7.176   2.279  10.706  0.3781 -0.1999 -0.0820
33900W        W47314   4.049   3.029   0.828 -0.1397  0.1191  0.1910
33901W        W47315   8.461  15.814  15.578  0.3186  0.0653  0.0459
33902W        W47316   4.716  11.257   1.500 -0.3085  0.3212  0.2593
33903W        W47317   3.009  10.059  16.372 -0.2865 -0.1993  0.2865
33904W        W47318  10.036  11.995   1.764  0.0300 -0.0817 -0.0948
33905W        W47319  17.869   1.592   5.332 -0.1392 -0.0845  0.1298
33906W        W47320  13.596   8.944  15.363  0.0249  0.0521 -0.0512
33907W        W47321   4.445   7.663   2.732 -0.1514 -0.0147  0.2569
33908W        W47322  11.221   8.371  14.983  0.1901 -0.0406  0.0377
33909W        W47323  11.817   1.821   0.230  0.0151 -0.0720  0.2084
33910W        W47324   0.194  12.832   1.314 -0.1698 -0.1753 -0.0504
33911W        W47325   6.136  16.105   5.259  0.2248 -0.0789 -0.3854
33912W        W47326  14.437   5.252   0.680 -0.2357 -0.2804  0.3998
33913W        W47327   7.274   6.001   2.658  0.0737  0.2937  0.2332
33914W        W47328   6.837   0.604  15.747 -0.0452 -0.2943  0.1778
33915W        W47329   2.156  14.014  15.598 -0.0476 -0.1140 -0.2095
33916W        W47330  14.138  16.039   4.848  0.0773 -0.0772  0.0161
33917W        W47331   0.612  15.536  16.504  0.1220 -0.2830  0.3253
33918W        W47332   9.668  15.585  11.881  0.1512 -0.0545  0.0788
33919W        W47333  17.899  10.307   6.148  0.1088  0.1047  0.1133
33920W        W47334   0.342  12.863   2.336  0.2357  0.2513  0.0572
33921W        W47335   0.362   1.553  12.330 -0.1829  0.1100  0.1327
33922W        W47336   3.300  12.789   0.102 -0.2435  0.4054 -0.2215
33923W        W47337   2.782   9.910  12.239  0.3988  0.1944  0.3158
33924W        W47338   1.582  16.385   3.063  0.2827  0.2116 -0.0232
33925W        W47339   1.317   6.839  15.399  0.0131  0.2402  0.1238
33926W        W47340  12.841   8.847   5.460  0.3592  0.0379 -0.1256
33927W        W47341   3.280   0.042   4.453 -0.2755 -0.4542 -0.1038
33928W        W47342  17.243   9.359   2.924 -0.0487  0.1142 -0.1050
33929W        W47343   6.901  13.854  13.762 -0.1775  0.1939 -0.2205
33930W        W47344   6.972   8.076  14.108 -0.3521 -0.1008  0.0328
33931W        W47345   3.237  10.782  11.447 -0.1403 -0.1576  0.1018
33932W        W47346   6.100  16.069   9.834  0.3296  0.2349  0.2858
33933W        W47347   4.825   2.174  10.937  0.1546  0.2140 -0.1589
33934W        W47348   4.079  12.650   1.426 -0.1970  0.0151  0.1370
33935W        W47349  16.247  16.206   0.864  0.3460 -0.1538 -0.0676
33936W        W47350   3.441  11.819   2.220 -0.1975 -0.1002  0.2868
33937W        W47351   0.299   6.519  13.235  0.2546  0.1769 -0.0661
33938W        W47352  11.261   6.919   2.532 -0.1827 -0.0656  0.0874
33939W        W47353  14.673   0.729  13.704  0.0652  0.1752 -0.1069
33940W        W47354  11.199   3.486   2.782 -0.1788 -0.1680 -0.0074
33941W        W47355  13.907  17.854  12.066  0.1335 -0.4925 -0.0117
33942W        W47356  15.437   0.917   4.121 -0.0664 -0.0841  0.1321
33943W        W47357   3.613  17.890  16.231 -0.2212  0.0471 -0.0177
33944W        W47358  14.317  17.225  16.481  0.2068  0.2241 -0.3384
33945W        W47359  12.025   4.551   5.015 -0.2629 -0.0028 -0.0632
33946W        W47360  13.565  18.189  12.319  0.2353  0.0004 -0.0530
33947W        W47361   0.703  18.172  12.836  0.1235  0.2355 -0.0841
33948W        W47362  17.697  11.874  15.085 -0.0213 -0.0056 -0.0909
33949W        W47363   9.691  10.907  13.654  0.0449 -0.1662 -0.2408
33950W        W47364  14.352   3.930  13.114 -0.1774  0.1040 -0.0858
33951W        W47365  16.272   4.546   1.087  0.2065 -0.3189  0.1693
33952W        W47366   8.727   7.239   0.893 -0.2025 -0.2718 -0.0119
33953W        W47367  17.480  15.149  12.828 -0.0423  0.0126  0.3501
33954W        W47368  11.951   1.071   1.361  0.0272  0.2564  0.3261
33955W        W47369   3.808   0.520   4.752  0.1367  0.0731  0.1624
33956W        W47370  14.000   7.758   2.531 -0.1695  0.1523 -0.0843
33957W        W47371   0.346  11.733   2.482 -0.0126 -0.1029  0.0200
33958W        W47372   2.112   0.534   2.991  0.1954 -0.0733 -0.2150
33959W        W47373   8.610   8.665  13.273 -0.2137 -0.0011 -0.0576
33960W        W47374  17.555   3.977  12.086 -0.2757  0.3272 -0.1212
33961W        W47375  16.580  11.535  15.898 -0.0681 -0.0559 -0.1097
33962W        W47376   8.801   5.755  13.532 -0.0278 -0.0158 -0.0315
33963W        W47377   9.798  14.283  15.077 -0.0606 -0.4783 -0.1355
33964W        W47378  10.052  12.395   2.091 -0.0311  0.0852 -0.0364
33965W        W47379   0.291  11.497   0.503  0.1263  0.0145 -0.1382
33966W        W47380   8.046   9.130  13.387  0.1518  0.2464 -0.1046
33967W        W47381   7.065   1.591   0.706 -0.1659  0.1692  0.1633
33968W        W47382  17.821  13.218  12.120 -0.1057  0.0151  0.0599
33969W        W47383  10.270   1.369   5.897 -0.3060 -0.1132 -0.1249
33970W        W47384   3.393  13.951   0.107 -0.2132  0.1149  0.2705
33971W        W47385   8.340   8.898  15.072  0.2582  0.0183  0.0353
33972W        W47386   5.356  11.195   4.585 -0.2530 -0.1694  0.1900
33973W        W47387   3.193   5.004   0.650 -0.2270  0.0001 -0.3736
33974W        W47388  15.439   8.927   2.047 -0.2856 -0.2482 -0.0186
33975W        W47389  18.035   3.090   1.271  0.2254  0.0106  0.1166
33976W        W47390   5.526  17.132  12.276 -0.0660  0.0840 -0.0439
33977W        W47391   4.374   7.943   1.379 -0.2158 -0.0322  0.1218
33978W        W47392   9.369   6.922   3.270  0.1040 -0.1278 -0.0078
33979W        W47393   8.254   9.468   5.301  0.1528 -0.0882 -0.1302
33980W        W47394   1.381  11.798   4.490  0.0700  0.0970  0.0320
33981W        W47395  11.666   3.664  15.114  0.2394  0.0223 -0.1128
33982W        W47396  16.318   1.470   2.201  0.0370 -0.1902  0.2098
33983W        W47397  15.475   2.766  13.036 -0.1815 -0.1147  0.0607
33984W        W47398   8.145  10.274   6.351  0.0817  0.1633  0.0207
33985W        W47399  13.550  15.465   1.933  0.2757  0.0511 -0.0300
33986W        W47400  13.480  13.936  16.133  0.1999 -0.1129 -0.1981
33987W        W47401  17.296  16.061  15.955  0.0743 -0.2710 -0.3636
33988W        W47402   2.076  14.720  14.848  0.1326  0.0943 -0.0869
33989W        W47403  15.146   9.941   4.021  0.1564 -0.0892  0.0632
33990W        W47404   7.888   2.122  14.516  0.4102 -0.0637 -0.1215
33991W        W47405  15.295  17.721  14.382 -0.2556 -0.1102 -0.2208
33992W        W47406  12.553   0.022   4.472 -0.0254  0.2027 -0.0132
33993W        W47407  11.267  13.665  15.981 -0.4073 -0.3809 -0.3044
33994W        W47408  10.047  17.968  11.365  0.0931  0.2482  0.2512
33995W        W47409   2.936  11.064  12.467 -0.1211  0.0676  0.2607
33996W        W47410   0.892   3.412   3.821 -0.3420 -0.2625 -0.0511
33997W        W47411  12.228   0.019  10.786  0.1459 -0.1151  0.0003
33998W        W47412   6.312   3.850  11.117 -0.2040 -0.2736  0.1529
33999W        W47413  14.694  15.023   1.117  0.0020 -0.0554  0.2472
34000W        W47414   3.727   8.411   4.122 -0.0633 -0.1351  0.2341
34001W        W47415  14.420   4.149   2.071 -0.0087 -0.2014 -0.2236
34002W        W47416   7.617  18.154  13.165  0.1555 -0.1226  0.2350
34003W        W47417  15.450  15.495  13.690 -0.1563  0.0882  0.3400
34004W        W47418   8.793   1.357   9.813  0.1102 -0.0823  0.4397
34005W        W47419   7.754   7.164  10.685  0.3825 -0.0605  0.1061
34006W        W47420  15.675  11.664  11.719  0.0714 -0.0260 -0.1550
34007W        W47421   7.317   7.279   4.501 -0.2355 -0.3821 -0.1822
34008W        W47422   6.275   6.647  10.725  0.1023 -0.1164 -0.2522
34009W        W47423   7.651   5.231   3.647  0.0843  0.1948 -0.0536
34010W        W47424  16.006  11.050  14.085  0.0416 -0.2295 -0.1117
34011W        W47425  17.634   0.631   5.780 -0.0221 -0.0405  0.1398
34012W        W47426   4.843  11.592  14.479 -0.0035  0.6001  0.0624
34013W        W47427   4.377  15.365  15.220 -0.2256  0.2518  0.1642
34014W        W47428  10.521  17.157  14.138 -0.0166  0.0938 -0.0305
34015W        W47429   2.605  10.907  12.110  0.0787  0.0309  0.3079
34016W        W47430   3.166  10.484   3.687 -0.0417 -0.0194 -0.0985
34017W        W47431  13.383   0.884   5.898  0.2530  0.0055  0.1321
34018W        W47432   8.512  11.938   4.845 -0.1702  0.1389 -0.1049
34019W        W47433  15.168   1.128  13.852 -0.0432  0.1203 -0.2311
34020W        W47434  14.972  10.717  14.884 -0.0475  0.1355  0.0710
34021W        W47435  13.839   6.671  12.202 -0.0460 -0.0233  0.1055
34022W        W47436  10.202  12.138  13.343 -0.1167  0.0241 -0.3621
34023W        W47437   1.303  10.012   1.099 -0.0079  0.1836 -0.3305
34024W        W47438  11.481  14.486   2.620 -0.0244 -0.1340  0.0509
34025W        W47439  11.171   7.898   6.766 -0.3291  0.0256 -0.0916
34026W        W47440  17.735   7.236   4.479  0.1633 -0.1365  0.1145
34027W        W47441   7.984  14.979  15.796  0.2707  0.3396 -0.1606
34028W        W47442  17.728  12.723  15.103  0.1986 -0.2593  0.1551
34029W        W47443   8.469  11.097   2.355  0.2199 -0.1037  0.0699
34030W        W47444  11.170   6.403   3.335 -0.1603 -0.3567  0.1413
34031W        W47445   6.150  13.539  16.050  0.2819  0.0433  0.0356
34032W        W47446   8.759   6.620  12.342  0.0327 -0.0688 -0.1499
34033W        W47447  14.476  12.133  12.070 -0.0480 -0.0838  0.2276
34034W        W47448  14.589   4.365  12.926 -0.0957 -0.1012 -0.0942
34035W        W47449   0.262   5.636  12.740 -0.2034  0.1356 -0.4111
34036W        W47450   2.613   3.127  15.701  0.0601 -0.0080 -0.2554
34037W        W47451   1.561   8.491   2.876 -0.2045 -0.2046  0.0693
34038W        W47452  12.903   8.280   5.285 -0.0488  0.1808 -0.0168
34039W        W47453  10.033  11.788   0.304  0.0140 -0.0107 -0.0967
34040W        W47454   9.867   2.286   9.766  0.0014 -0.1191 -0.0977
34041W        W47455  13.712   2.729   2.780  0.2560  0.2687 -0.1967
34042W        W47456  11.402   5.951  12.411 -0.2198 -0.1202 -0.0275
34043W        W47457   3.732   7.152   2.987 -0.1458 -0.0770 -0.1393
34044W        W47458   2.559   6.094  15.565 -0.3336 -0.3184 -0.0755
34045W        W47459  16.246  13.856  15.501  0.2241 -0.1956  0.0617
34046W        W47460   4.266  10.618   5.195  0.0035  0.2559 -0.0088
34047W        W47461  16.853  13.243   5.607 -0.2822 -0.0486  0.1686
34048W        W47462  16.550   9.251  14.329 -0.0103 -0.3073 -0.1240
34049W        W47463   6.493   4.944   0.822  0.0324  0.2484  0.0662
34050W        W47464   1.229   5.207  11.901 -0.1128  0.1179 -0.1109
34051W        W47465   8.935  16.951  15.288 -0.0163 -0.0144 -0.0770
34052W        W47466  13.884  14.319  12.166  0.3274  0.0359  0.1625
34053W        W47467   5.390  10.991   4.064 -0.0287  0.1368 -0.0444
34054W        W47468   4.595  18.133   0.870  0.3050 -0.0447 -0.1399
34055W        W47469   7.922  14.428  16.117 -0.1282  0.0309  0.1180
34056W        W47470  12.503  12.708  11.918  0.1485 -0.3828  0.2036
34057W        W47471   5.028   9.200  15.571 -0.3178 -0.0416  0.0441
34058W        W47472   6.505  17.028  11.255 -0.1650 -0.0909 -0.3376
34059W        W47473   7.813  14.710   1.452 -0.1319  0.2999 -0.2663
34060W        W47474  11.190   4.265   2.935 -0.0119 -0.2578  0.0619
34061W        W47475  12.953  16.165   4.240  0.0183 -0.2304 -0.0014
34062W        W47476  10.040  12.898  13.117 -0.2102  0.1100 -0.0435
34063W        W47477   1.366  15.439   3.424 -0.0699  0.0400  0.0983
34064W        W47478  15.718  15.572   2.015  0.0086 -0.0449  0.2091
34065W        W47479   6.951   2.548  13.788  0.1766  0.3574 -0.1665
34066W        W47480  12.100   6.570  12.267 -0.1515  0.2154  0.3041
34067W        W47481  15.111   4.865  11.456  0.0944 -0.0700 -0.1492
34068W        W47482   1.070   4.583   6.237  0.0265  0.0746  0.1338
34069W        W47483   1.380   3.047  15.865 -0.1297 -0.0632  0.3063
34070W        W47484   1.467   1.912   1.881 -0.0332  0.1928 -0.0054
34071W        W47485   1.219  13.561  12.913 -0.2466 -0.3988 -0.1419
34072W        W47486   2.643   5.998   5.126  0.0602  0.0830 -0.1424
34073W        W47487   5.158  17.204  15.042 -0.0392 -0.2736 -0.0475
34074W        W47488   8.067  11.182   0.930 -0.3303  0.1197 -0.1744
34075W        W47489   5.731  14.507   0.688  0.0604 -0.2066 -0.0575
34076W        W47490  11.969   9.210   2.111  0.2706  0.1308  0.0518
34077W        W47491   0.923  13.356  11.657 -0.0238 -0.1933  0.0370
34078W        W47492  10.440   7.001  16.401  0.1415 -0.1062  0.0554
34079W        W47493  15.579  15.806  15.496  0.1819  0.4311  0.1729
34080W        W47494   0.581   5.891   0.304 -0.1256 -0.1145  0.1418
34081W        W47495   7.062  13.747  13.031 -0.1989  0.1440 -0.4811
34082W        W47496   6.352   2.721  11.349  0.0813 -0.0435  0.0104
34083W        W47497   6.798  13.779  11.110 -0.0538 -0.1232  0.1143
34084W        W47498   0.940   7.822  14.349  0.2788 -0.0396 -0.3167
34085W        W47499   2.184  10.716   3.872  0.0503 -0.3422  0.1279
34086W        W47500   2.314   6.985  15.161  0.1249 -0.0005 -0.0958
34087W        W47501   6.717  11.886   3.833  0.0336 -0.1138 -0.2353
34088W        W47502  15.338   3.226  12.964  0.1044 -0.2638 -0.1099
34089W        W47503   6.678   6.513  16.179 -0.4396 -0.1064 -0.0357
34090W        W47504   6.120  15.660  13.732  0.0235 -0.3522 -0.2168
34091W        W47505   0.368   7.455   4.528 -0.3514  0.0008 -0.1451
34092W        W47506  15.576  17.562   1.606  0.0726  0.1044  0.0007
34093W        W47507   3.061  10.127   4.076 -0.0415  0.0165 -0.0876
34094W        W47508  10.524  14.054  12.757  0.1311  0.2564  0.1734
34095W        W47509   6.594   6.646   2.878 -0.0006 -0.0223  0.1280
34096W        W47510   4.563  12.402  12.649  0.0503 -0.0210 -0.0637
34097W        W47511   6.161   8.142  12.439 -0.0213  0.0871  0.0370
34098W        W47512   1.451   8.064   1.369  0.0065  0.0504  0.0001
34099W        W47513   9.387   5.506   2.804  0.0018 -0.0063 -0.2400
34100W        W47514   1.430  13.652  16.343 -0.0705  0.1550  0.1355
34101W        W47515  10.954   4.219   0.426  0.1930  0.0105 -0.1275
34102W        W47516  16.325   8.262   5.171 -0.0579 -0.1144 -0.1054
34103W        W47517   8.434  17.084  15.539 -0.0889 -0.0823 -0.0360
34104W        W47518  13.488  16.950   2.461  0.0896  0.0694 -0.0189
34105W        W47519  14.982  11.286   2.780  0.0245  0.1839 -0.2023
34106W        W47520  16.025  16.714   1.919  0.1373 -0.0340 -0.0374
34107W        W47521   3.056   8.388   2.633 -0.1097  0.4340  0.2643
34108W        W47522   7.892   4.544   0.932  0.4554 -0.3455  0.1540
34109W        W47523   1.973  13.294   0.111  0.2427 -0.1169 -0.0584
34110W        W47524  13.655   4.637  12.113 -0.1448 -0.0826  0.0022
34111W        W47525   1.571  14.700   5.388  0.3927  0.1966 -0.0015
34112W        W47526   3.965  15.529  12.929  0.0506 -0.1767  0.1485
34113W        W47527  14.422   8.413   5.701 -0.1459 -0.2583  0.1174
34114W        W47528   3.877  13.574  13.837 -0.1350  0.1332  0.3361
34115W        W47529   2.707   6.323  11.826 -0.1191  0.1540  0.1044
34116W        W47530   3.464   0.554   2.066 -0.1250 -0.0503 -0.1126
34117W        W47531   9.093   4.187  14.647 -0.2789  0.2440 -0.0891
34118W        W47532   9.941   3.873  15.515 -0.0108  0.1138 -0.0436
34119W        W47533   3.071  10.347  13.681  0.1564 -0.0751 -0.0647
34120W        W47534  12.944   0.443  15.784  0.0621  0.2123  0.1818
34121W        W47535  10.060  17.298   0.815  0.1135  0.0052 -0.1738
34122W        W47536   7.364  13.818   2.625  0.1665 -0.2518  0.0977
34123W        W47537  13.566   9.346  16.337  0.0031  0.0666  0.3732
34124W        W47538   4.022   0.876   9.974 -0.1344 -0.0559  0.1096
34125W        W47539  17.186   6.017  13.686  0.0400  0.3133  0.0393
34126W        W47540   4.585   7.415   2.215 -0.0892 -0.0467 -0.3018
34127W        W47541  15.940  17.765   0.795  0.0714  0.2349  0.0605
34128W        W47542   8.197  11.177   7.033 -0.3949 -0.0259  0.1919
34129W        W47543   6.411  15.080   0.069 -0.2902 -0.0777 -0.1710
34130W        W47544  14.731  11.506   0.579  0.1588 -0.4075 -0.0253
34131W        W47545  15.989  18.218  13.986  0.2354  0.0426 -0.1139
34132W        W47546   0.446   7.413   2.421  0.1708 -0.3290 -0.0799
34133W        W47547   0.694   0.816   0.408  0.0740 -0.0034  0.1989
34134W        W47548   0.953  17.700   2.657 -0.1932  0.1149  0.4111
34135W        W47549  11.426   2.331  14.585 -0.1025 -0.1785 -0.0091
34136W        W47550   4.563  17.810  13.711  0.5053  0.0635 -0.0008
34137W        W47551  15.771   3.383  16.302  0.1449 -0.2445  0.3196
34138W        W47552   0.524   8.655   5.219 -0.2015 -0.2322 -0.0988
34139W        W47553   1.098   1.375   3.846 -0.1319  0.2395  0.0044
34140W        W47554  13.947   7.654   4.515 -0.1206 -0.1253  0.1554
34141W        W47555  14.602  11.167  12.167  0.3160 -0.0567 -0.0504
34142W        W47556  10.986  13.655  12.478 -0.1559  0.1601 -0.1497
34143W        W47557   2.726   7.916   3.239  0.0293 -0.0140  0.2268
34144W        W47558   5.467  14.245   1.960 -0.2795  0.1643  0.0015
34145W        W47559  13.747   3.572   0.269 -0.2093  0.0840 -0.1920
34146W        W47560   1.068  11.294  14.381  0.2982 -0.1587 -0.2106
34147W        W47561  10.313   6.084   3.264  0.1398 -0.4090 -0.2765
34148W        W47562   7.866   5.110   1.268  0.1993  0.0211  0.2277
34149W        W47563   0.676  11.918   5.293  0.3402  0.0500 -0.0540
34150W        W47564   9.537  10.230   1.415 -0.2262  0.2404  0.1237
34151W        W47565  16.984   5.218  12.556  0.1367 -0.2319 -0.2662
34152W        W47566   0.770  11.112  14.961 -0.1380 -0.1101 -0.0124
34153W        W47567   9.181   8.594  10.675  0.0703 -0.0962 -0.0355
34154W        W47568   1.102  16.296  13.691  0.2452 -0.1456 -0.0078
34155W        W47569  17.387   2.525   1.636  0.0901  0.0023  0.3297
34156W        W47570   4.194  12.527  11.265 -0.1396  0.0517  0.2479
34157W        W47571   9.402  13.432   0.950  0.0146  0.3285  0.0729
34158W        W47572  15.461   9.961   2.731 -0.0697 -0.0652 -0.0583
34159W        W47573   8.614   2.375  16.174 -0.1487  0.1575 -0.2767
34160W        W47574  10.253   2.565  13.172 -0.0861  0.0783 -0.1868
34161W        W47575  15.488  17.307  10.982 -0.0929  0.2539 -0.2469
34162W        W47576  14.570  11.383  13.638  0.1933 -0.1006 -0.0139
34163W        W47577  13.397   4.393   4.215 -0.0733 -0.4675 -0.0991
34164W        W47578   2.264  12.310  14.534  0.0049 -0.0741 -0.3557
34165W        W47579   6.022   2.197   0.041 -0.2364  0.1470  0.0101
34166W        W47580   7.542  15.537  10.255  0.0500  0.1328 -0.1122
34167W        W47581  11.073   9.550   2.524  0.0196  0.2815  0.1417
34168W        W47582  15.600   9.039  11.173 -0.2736  0.1331 -0.0944
34169W        W47583  13.076  11.126   5.080  0.0531  0.1658  0.0176
34170W        W47584   7.601   6.411  13.752  0.1543  0.2231  0.3035
34171W        W47585  15.132  13.657  15.097  0.3561 -0.0729 -0.0169
34172W        W47586   1.294   2.128   4.899  0.0099  0.0250  0.0593
34173W        W47587   9.817   0.059   2.892 -0.0504  0.0330 -0.2758
34174W        W47588  10.723   7.084   0.638 -0.1222 -0.2351  0.0896
34175W        W47589  16.958   2.494   3.103  0.2737 -0.1228 -0.1966
34176W        W47590  15.275   2.400  16.041 -0.1265  0.1192  0.4350
34177W        W47591  14.542   7.914   1.801 -0.4697 -0.2139 -0.1818
34178W        W47592   4.515   6.905  11.009 -0.0539  0.2679 -0.0951
34179W        W47593   5.755   9.339  10.876  0.2038 -0.1638  0.1273
34180W        W47594  10.884  12.591  12.577  0.3400 -0.3705 -0.0028
34181W        W47595   1.775   1.551  12.189  0.1816  0.0348  0.1280
34182W        W47596  15.584  17.723   0.410 -0.1336  0.2291 -0.1826
34183W        W47597  16.207  17.146   4.250  0.1036 -0.2325  0.1631
34184W        W47598   7.957   9.096   2.077  0.0399 -0.1580  0.1869
34185W        W47599  15.217   4.393   2.844 -0.2584 -0.0302 -0.0324
34186W        W47600  16.598   7.457   0.531 -0.1320  0.5434 -0.1011
34187W        W47601  18.000   1.343  12.181  0.1366 -0.1946 -0.1308
34188W        W47602  12.659   9.299   5.333  0.0280  0.0400  0.2667
34189W        W47603   4.247  13.847  16.413 -0.0996  0.1419  0.0542
34190W        W47604   3.911  15.421  15.437 -0.0097 -0.3195  0.0628
34191W        W47605  15.596   9.450   0.025 -0.0424 -0.2725 -0.0463
34192W        W47606  14.718   1.461   3.621 -0.1643  0.1382 -0.0126
34193W        W47607  13.670   5.207   3.812  0.3772  0.1465 -0.0205
34194W        W47608  16.655   7.917   5.659 -0.4819  0.4625 -0.0270
34195W        W47609   0.979   5.918   1.512  0.1857 -0.0842 -0.0507
34196W        W47610  11.212  12.001  14.479 -0.1238 -0.0576  0.1522
34197W        W47611  15.572  13.900   2.774 -0.1238  0.2086  0.1683
34198W        W47612  15.269   2.318   2.000  0.0135  0.0507 -0.1795
34199W        W47613  14.654  14.670  13.577  0.1914 -0.0568  0.1058
34200W        W47614   8.412   3.790   1.340 -0.3361 -0.0693 -0.0583
34201W        W47615   7.081   8.674  12.250 -0.3667 -0.0417 -0.0117
34202W        W47616   4.032  17.421  11.142 -0.1407  0.1584  0.3256
34203W        W47617  17.610   8.372  13.350  0.1308  0.2681 -0.2532
34204W        W47618  14.423   5.959   5.178  0.0073  0.2592  0.1893
34205W        W47619   9.697   2.739  12.320  0.0737  0.1426  0.1451
34206W        W47620  12.678   1.639  11.352  0.0882 -0.3977 -0.2308
34207W        W47621   0.497   6.833   5.704  0.2796 -0.0070 -0.2496
34208W        W47622  16.533   4.170  11.829 -0.3760 -0.1126 -0.0162
34209W        W47623   0.583   1.087  11.056  0.0061 -0.1961 -0.0133
34210W        W47624  15.697   1.298   3.979  0.1812  0.0320 -0.1150
34211W        W47625   6.003  10.830  15.787 -0.0159  0.1600 -0.0675
34212W        W47626  12.112   3.639   0.617 -0.2090 -0.1560 -0.3633
34213W        W47627  17.547   1.341  14.735  0.5942  0.3511  0.3146
34214W        W47628   0.195  10.024  13.981 -0.0098  0.4015  0.2555
34215W        W47629   8.909  12.080  14.777  0.1328  0.2566  0.3865
34216W        W47630   0.857   5.583  14.328  0.0507 -0.4312  0.1552
34217W        W47631  16.781   1.337  10.054 -0.1300 -0.4111 -0.0185
34218W        W47632  11.743   3.253   0.994 -0.0948  0.0055  0.3090
34219W        W47633  15.006   7.688   4.927  0.4511  0.2749  0.0644
34220W        W47634   3.148   6.237  12.920 -0.1059 -0.3099 -0.2780
34221W        W47635   1.131   5.444   6.057 -0.1300 -0.3004  0.0314
34222W        W47636   2.929   8.203   1.809 -0.0232 -0.0816  0.0237
34223W        W47637   1.705   6.878   6.533  0.0597  0.2653  0.1826
34224W        W47638  12.714   3.422  15.713  0.2292 -0.1009 -0.2065
34225W        W47639   1.964  10.707  15.743 -0.1656 -0.0304  0.1574
34226W        W47640  13.158   8.671   1.588 -0.0555  0.2608 -0.0424
34227W        W47641  10.715   0.517   3.762  0.0748 -0.3576  0.2863
34228W        W47642   9.691  14.689   1.180  0.2963  0.0673 -0.0073
34229W        W47643   3.303   5.909  11.166  0.0230 -0.3171  0.0457
34230W        W47644  15.293   2.386  15.104  0.4159  0.0352 -0.0912
34231W        W47645  14.837   4.970  16.158  0.1936  0.0553  0.1708
34232W        W47646   2.721   0.978   4.920  0.1750  0.1247  0.1081
34233W        W47647   9.711  11.781  13.347 -0.1849 -0.0111  0.2858
34234W        W47648   2.440   3.304  12.523  0.1696 -0.0751 -0.0935
34235W        W47649  10.913   1.120   3.825  0.0184 -0.0482 -0.0664
34236W        W47650   9.512   8.020  13.141 -0.1045 -0.1730  0.0193
34237W        W47651   0.526   5.925  16.316  0.5389 -0.0431  0.2894
34238W        W47652  11.355   7.704  13.058  0.3640  0.1432  0.1775
34239W        W47653  18.150  15.004  10.917 -0.0804  0.2788 -0.3059
34240W        W47654   9.778   1.637   1.733 -0.0408 -0.3545  0.2179
34241W        W47655  16.170  14.816  13.876  0.0021  0.5356  0.1869
34242W        W47656  11.119   6.895  13.412 -0.0318 -0.0485  0.0733
34243W        W47657   2.945   4.953  16.283 -0.2068 -0.3134 -0.3314
34244W        W47658   0.459   8.721   6.829 -0.1062 -0.0165  0.1178
34245W        W47659   7.553  14.524   4.138 -0.3021  0.0023  0.0478
34246W        W47660  13.581   2.033   0.553  0.2202 -0.1836 -0.0520
34247W        W47661  17.773   3.144   3.200 -0.2753 -0.0538  0.0282
34248W        W47662   2.794   6.760  15.450 -0.0529 -0.2199  0.2618
34249W        W47663   8.723   7.159   2.164  0.0749 -0.0876  0.2407
34250W        W47664   3.121   0.096  12.040 -0.1290 -0.0219 -0.0084
34251W        W47665   8.241   7.062   4.731  0.2193 -0.0118 -0.1450
34252W        W47666   6.033   8.964   0.433  0.0987 -0.0447 -0.3354
34253W        W47667   4.970   9.502   0.154  0.0313 -0.1416  0.2919
34254W        W47668   4.644   7.920   0.911 -0.0474 -0.2228  0.1883
34255W        W47669   8.761   5.815  15.865  0.0050  0.2239  0.0130
34256W        W47670   0.537   8.472  15.602  0.4012  0.1333 -0.0243
34257W        W47671   6.599  11.829   5.363 -0.0577 -0.1613  0.2064
34258W        W47672  12.963   0.004  13.480  0.1800  0.6096  0.0933
34259W        W47673  14.385   0.501  10.924  0.0767 -0.1015  0.2196
34260W        W47674   4.587  11.711   1.627 -0.3230 -0.0925 -0.1150
34261W        W47675  14.098  15.396  14.672  0.2037 -0.0157  0.3651
34262W        W47676   5.877  14.261  14.292  0.0545 -0.0467  0.2116
34263W        W47677   2.025  12.307   2.160  0.1921 -0.2671  0.2298
34264W        W47678  12.295   5.538  12.906 -0.1511  0.0282  0.0509
34265W        W47679  17.979  16.839   5.161  0.1187 -0.1480 -0.1750
34266W        W47680   2.413  11.327  14.527  0.1121  0.1888 -0.0287
34267W        W47681   3.672  18.203  10.585 -0.0100 -0.0230 -0.0444
34268W        W47682   8.836  15.534   1.050 -0.1189 -0.1491  0.0257
34269W        W47683  12.378  15.175  12.152  0.1731  0.2839 -0.1702
34270W        W47684   5.437   5.362  15.069 -0.1324  0.2381 -0.3635
34271W        W47685   2.013  13.244  15.701 -0.0301  0.0582 -0.1162
34272W        W47686   9.438   3.745  14.834  0.1746 -0.1421  0.0183
34273W        W47687   5.547  16.255   5.553 -0.2889 -0.2066  0.0915
34274W        W47688   6.494  13.682   4.317 -0.0759 -0.0078 -0.2178
34275W        W47689   2.352   2.533   3.521  0.1106 -0.0396 -0.0545
34276W        W47690   2.363   7.886   3.649  0.1062  0.1988 -0.1011
34277W        W47691   1.797  13.495  12.314  0.1079  0.0575  0.0638
34278W        W47692  11.128  11.007   0.625 -0.0216  0.1339 -0.1463
34279W        W47693   8.707  12.955   1.731 -0.1044 -0.1129 -0.1110
34280W        W47694   0.742   4.049  11.547  0.1574  0.0997 -0.0404
34281W        W47695  14.665   2.431  11.094 -0.3027 -0.1365  0.0779
34282W        W47696   9.197  13.578  11.472  0.4365 -0.3757 -0.2926
34283W        W47697  11.616   0.899  11.569  0.1835  0.2310  0.0445
34284W        W47698   4.779   4.540   4.722 -0.1608 -0.1665 -0.3427
34285W        W47699  10.198   6.542   3.086  0.1259  0.4965  0.0097
34286W        W47700   2.312   6.473   5.456 -0.1436 -0.3908 -0.0742
34287W        W47701   8.597   8.718   0.534 -0.2937  0.1380  0.4191
34288W        W47702  12.376   9.145   0.584 -0.1181  0.1883 -0.0473
34289W        W47703  16.392  10.281  14.114  0.4031 -0.3677  0.2045
34290W        W47704   8.851   8.660   1.931 -0.1270 -0.2115 -0.1858
34291W        W47705  10.528   9.969  13.653 -0.2411  0.0384  0.0350
34292W        W47706  13.388  10.895  13.549 -0.1678  0.2019  0.1340
34293W        W47707  16.982  14.323  15.807  0.2309 -0.0651  0.1015
34294W        W47708  16.649  16.557  11.356  0.0940 -0.1557  0.0930
34295W        W47709  18.170  15.405  15.798 -0.0663 -0.3403 -0.0584
34296W        W47710  10.460   5.998  14.430  0.0651 -0.2823  0.0303
34297W        W47711   0.533  10.198   0.090 -0.0576 -0.0480 -0.0119
34298W        W47712  13.770   4.492   3.199  0.0161 -0.1205 -0.1965
34299W        W47713   9.652   7.815   0.658 -0.2025 -0.1312  0.2106
34300W        W47714  16.955   6.207  14.403 -0.0324 -0.1009 -0.0939
34301W        W47715  17.697   6.043   3.797 -0.1282 -0.1242  0.0309
34302W        W47716   1.201  17.458  11.289  0.0144 -0.1100  0.0791
34303W        W47717   5.703   8.404   0.717 -0.0502  0.0190  0.0999
34304W        W47718   0.539   2.838  15.925 -0.1677 -0.2658 -0.1173
34305W        W47719   1.284   1.076  11.441 -0.0345  0.1955 -0.2362
34306W        W47720  12.394  10.154   2.021 -0.1828  0.2461  0.0517
34307W        W47721   3.948  13.010   4.913 -0.0398  0.0989 -0.1246
34308W        W47722  18.180   8.813   4.971  0.2201 -0.0675 -0.2875
34309W        W47723   5.042  14.250  16.332 -0.3028 -0.0633 -0.0598
34310W        W47724   6.627  15.024  10.554 -0.0059  0.0789 -0.0230
34311W        W47725   0.619   2.351   5.286  0.1235  0.2408  0.2826
34312W        W47726  13.832   0.193   4.753 -0.1853  0.0878 -0.0977
34313W        W47727  15.406   2.915   4.228  0.0863 -0.0322 -0.1264
34314W        W47728   5.744   9.555   2.849  0.1967  0.0609  0.0061
34315W        W47729   5.594   4.670   3.532 -0.0402 -0.1341 -0.1793
34316W        W47730  12.715   0.117  10.705 -0.1760  0.3723  0.1884
34317W        W47731   7.425  15.998  13.447 -0.0370  0.3415 -0.1782
34318W        W47732  17.056   5.131  10.728  0.3080  0.1441  0.1143
34319W        W47733   0.676  16.998  13.979  0.0336 -0.1491  0.0900
34320W        W47734  10.504   6.833   1.710  0.0777  0.2469 -0.1504
34321W        W47735   7.712   1.301  14.744  0.4572  0.0391  0.0116
34322W        W47736  18.215   9.033   2.060  0.2101 -0.3968 -0.1245
34323W        W47737  13.697  10.356   2.692 -0.0811 -0.3272  0.0044
34324W        W47738  13.663  16.031  16.336 -0.0507 -0.0266  0.1779
34325W        W47739   2.205   4.806   4.161  0.0084  0.0615 -0.0284
34326W        W47740   4.711  13.310   3.088  0.2667 -0.0938 -0.2377
34327W        W47741   1.748   0.819  13.349 -0.0613  0.0170 -0.1485
34328W        W47742  11.362  16.397  14.319  0.1815  0.3408  0.1118
34329W        W47743  10.755  15.039   9.973 -0.0216 -0.3064 -0.2843
34330W        W47744   4.647   5.165  16.351 -0.0995  0.2045  0.0330
34331W        W47745  15.127  14.330  16.322  0.1937 -0.5630 -0.1312
34332W        W47746   6.885   6.231  13.989  0.1597  0.3723 -0.2708
34333W        W47747  14.487   1.329  15.388  0.3613  0.1807 -0.1540
34334W        W47748  17.143  11.436  15.839  0.5605  0.0610 -0.0179
34335W        W47749   6.017  11.871   0.355 -0.0672  0.0502  0.1737
34336W        W47750   2.063   3.072  15.661  0.0519 -0.1840 -0.1730
34337W        W47751   4.144  10.041  10.865 -0.1807 -0.4177  0.1035
34338W        W47752   3.681   8.839   0.842  0.0160  0.0974 -0.0669
34339W        W47753  10.501  10.900   1.276  0.0313 -0.0252 -0.3133
34340W        W47754  12.011   5.223   1.607  0.0233 -0.1605 -0.1216
34341W        W47755  16.996   6.031   2.467 -0.0023  0.2672  0.0365
34342W        W47756   0.128  14.519  15.787 -0.1730  0.1974  0.1505
34343W        W47757   2.085  16.504   5.423 -0.0077 -0.1755 -0.4703
34344W        W47758   3.727  11.499  15.906 -0.2292 -0.0318 -0.2082
34345W        W47759   6.162   7.285   1.336  0.0937 -0.1150 -0.1132
34346W        W47760  10.125  15.536  12.746  0.4966 -0.2887  0.2480
34347W        W47761  17.526   5.448   4.203 -0.0492 -0.3243  0.1102
34348W        W47762   1.531   1.966  15.933 -0.0379 -0.1556 -0.1802
34349W        W47763  17.915   0.644   0.839  0.0799 -0.2570 -0.1654
34350W        W47764   8.104  12.136   5.909 -0.2092 -0.0412 -0.1912
34351W        W47765   4.801  11.845   2.108  0.3083  0.2650  0.2307
34352W        W47766  13.709   8.852   4.064  0.4449  0.0501 -0.2165
34353W        W47767   2.530   1.078  15.458 -0.2308  0.0986 -0.0528
34354W        W47768  14.077   8.433  11.734  0.0917 -0.4300 -0.0979
34355W        W47769  15.873   6.533   2.213 -0.1735 -0.0773 -0.3357
34356W        W47770   9.382  15.541  13.381  0.0135 -0.0025 -0.0999
34357W        W47771   0.255   4.426  16.524 -0.0726 -0.0790 -0.0588
34358W        W47772  11.534   6.958  14.232  0.1478  0.0648  0.0190
34359W        W47773   3.153  10.955   2.793 -0.3281 -0.1720  0.1624
34360W        W47774   0.151  10.537  13.842  0.2705  0.0008 -0.0853
34361W        W47775   0.007   5.134  12.847  0.0740 -0.2643 -0.2734
34362W        W47776  14.219   2.841  12.618 -0.0398  0.2455  0.1156
34363W        W47777   1.251  11.194   1.754  0.0498 -0.1258 -0.2035
34364W        W47778  14.835   6.087   4.811  0.4828  0.1135  0.0655
34365W        W47779  16.330  16.970  11.632  0.1033  0.1845 -0.0883
34366W        W47780   6.112  13.278  14.356 -0.2226  0.0620  0.0491
34367W        W47781   0.349  12.520  13.432  0.1465 -0.2888  0.0236
34368W        W47782  11.912   0.890  14.184 -0.1136 -0.0374  0.1616
34369W        W47783   3.631   9.499  13.148  0.0578 -0.3652 -0.0112
34370W        W47784   0.470   8.791   4.679  0.2066  0.3406 -0.1292
34371W        W47785   4.238   0.816   3.605  0.1292 -0.1007 -0.3148
34372W        W47786  17.392   1.252  10.843  0.1491 -0.1781  0.1457
34373W        W47787  10.268   5.036   2.027  0.2416  0.2302  0.0909
34374W        W47788  12.396   0.806   0.552 -0.1892  0.0463 -0.1573
34375W        W47789   1.273  14.234   2.796  0.1108 -0.1118 -0.2050
34376W        W47790   3.121   7.827   6.143 -0.0279  0.1755 -0.1107
34377W        W47791   5.991  16.011   0.893 -0.1303  0.1494 -0.0931
34378W        W47792   0.809   7.081  11.250  0.0097  0.0015 -0.2440
34379W        W47793   8.337  15.914   3.641 -0.0666  0.0100 -0.0849
34380W        W47794   0.792   0.987  11.547 -0.0523  0.2309  0.1420
34381W        W47795   7.997   4.765  12.375  0.0024 -0.2893  0.0772
34382W        W47796   3.954  15.831  15.855  0.3188 -0.1043  0.2293
34383W        W47797   0.323  17.349   2.208 -0.0061 -0.0898  0.2862
34384W        W47798   9.616  16.142   3.717 -0.2992  0.1262  0.1009
34385W        W47799   2.805   7.154   1.676 -0.2762  0.1604  0.3037
34386W        W47800  14.894  10.155   1.380  0.0209  0.1382 -0.1002
34387W        W47801  10.744   6.168   3.009  0.0467  0.1641 -0.1061
34388W        W47802   2.005   0.042   3.227 -0.0702 -0.2151  0.1809
34389W        W47803  11.000   7.860   4.396  0.1468  0.2837 -0.0929
34390W        W47804   0.587   5.679  10.625  0.3194 -0.2392 -0.0389
34391W        W47805  13.575  15.536   4.928  0.2059  0.1822  0.1553
34392W        W47806   0.947   6.804   5.401 -0.3946 -0.0617 -0.3750
34393W        W47807   0.578   4.642  15.245  0.1428 -0.0285 -0.1513
34394W        W47808   5.990   1.908  11.934 -0.2260 -0.2179  0.1785
34395W        W47809   3.415   6.045   4.768 -0.1322 -0.1367 -0.0581
34396W        W47810   7.950   0.829  14.727 -0.0748 -0.0400  0.2754
34397W        W47811  15.836   4.473   3.532  0.0761 -0.1295  0.0663
34398W        W47812   1.181   6.814  13.571 -0.0782 -0.0658 -0.2096
34399W        W47813  14.272   0.986   4.791 -0.2152  0.0206  0.2255
34400W        W47814  13.515   1.626   4.558 -0.0934 -0.0495 -0.0419
34401W        W47815  17.347   3.244  16.425  0.1529 -0.3577 -0.0999
34402W        W47816  11.505  11.385  12.001 -0.0338  0.3248 -0.1249
34403W        W47817  14.375  10.875  13.706 -0.2054 -0.2651  0.1933
34404W        W47818  10.319  10.558  15.638 -0.0446 -0.1455  0.1219
34405W        W47819  12.559  12.397   0.871 -0.0751 -0.1089  0.1770
34406W        W47820  17.939  10.478   0.345 -0.1184  0.2842 -0.0273
34407W        W47821  16.582   2.223  13.024 -0.0067 -0.2958  0.1109
34408W        W47822   6.593  18.175   1.054  0.2993 -0.1446 -0.0508
34409W        W47823  13.991  10.420  12.432  0.3218  0.0906 -0.2091
34410W        W47824  10.975  15.232   2.686 -0.2254  0.0527 -0.0382
34411W        W47825  10.250   4.243   3.092  0.3707 -0.0176 -0.2177
34412W        W47826   4.807   9.012  13.868  0.1258 -0.1110 -0.1820
34413W        W47827   5.017   0.710  12.242 -0.0918  0.0240  0.0877
34414W        W47828   4.603   1.060   2.978 -0.0809  0.0707  0.1835
34415W        W47829   3.369  10.734   1.137 -0.3345 -0.0480  0.1642
34416W        W47830   8.194  16.474  12.835  0.0891 -0.1946 -0.1101
34417W        W47831   8.844  11.526   3.597  0.0625  0.3988  0.1030
34418W        W47832   1.100  16.365   3.251 -0.1635 -0.2369 -0.2232
34419W        W47833  13.807   2.350  13.189  0.1049  0.0602  0.0129
34420W        W47834  13.991   5.763   0.006  0.0307  0.2311 -0.0399
34421W        W47835   0.515  14.252   4.269 -0.0523  0.2616  0.1335
34422W        W47836   3.956   9.564  10.333 -0.0350  0.1328 -0.0855
34423W        W47837   6.187   2.759  15.570 -0.2920 -0.1677  0.2816
34424W        W47838  11.761  17.601  13.251 -0.1308 -0.0465 -0.0201
34425W        W47839  13.309  18.147  15.077  0.3183  0.1612  0.0555
34426W        W47840  14.988   4.292   4.644 -0.0029  0.0211 -0.2220
34427W        W47841   7.302   5.200  13.160 -0.0189 -0.2221  0.1353
34428W        W47842  11.797  12.918  14.554 -0.1319  0.2296 -0.1176
34429W        W47843  12.742  12.447  14.914 -0.3677  0.2022  0.2795
34430W        W47844  16.572  14.249   5.637  0.0496  0.0140  0.1230
34431W        W47845  10.976  17.227  13.256  0.2183  0.1056  0.0193
34432W        W47846   9.147   5.924   4.219  0.4537  0.0059 -0.0541
34433W        W47847   5.123  17.875  14.468 -0.4049  0.0072  0.1570
34434W        W47848   5.400   8.032  12.549  0.1801 -0.0064 -0.0128
34435W        W47849   7.804   1.742  11.373  0.3010  0.0148 -0.1282
34436W        W47850   9.493   5.287   0.881 -0.0160  0.2474  0.0482
34437W        W47851   1.107   1.007  14.895 -0.1207  0.0880  0.0412
34438W        W47852   4.800  15.669  12.327  0.2782 -0.1155  0.3563
34439W        W47853   5.283  13.481   0.795 -0.1625 -0.0161  0.1235
34440W        W47854  17.210   1.985  13.972  0.1654  0.2471 -0.2529
34441W        W47855  13.846   2.833   5.154  0.2102 -0.0285 -0.1601
34442W        W47856   4.177  14.364  16.263 -0.1319 -0.0401 -0.0930
34443W        W47857   2.496   2.882   5.498 -0.2350  0.0778 -0.2270
34444W        W47858   0.402   3.632  15.066 -0.3167 -0.1569  0.0261
34445W        W47859  17.553   7.682  14.994 -0.3821  0.0419 -0.1027
34446W        W47860   8.510  10.953  15.308  0.1951  0.0695  0.3423
34447W        W47861   8.532  17.467  14.578 -0.0019 -0.2103  0.2281
34448W        W47862  17.433   8.164  14.317  0.3379  0.0722 -0.0754
34449W        W47863   2.863   6.680  14.940  0.0492  0.0646  0.0896
34450W        W47864   4.963  13.835  14.047  0.3098 -0.2296 -0.1118
34451W        W47865  17.442  10.625   1.162  0.1188 -0.0212  0.1124
34452W        W47866   3.984   5.401   2.753  0.0415  0.1878  0.0499
34453W        W47867   2.735  15.096  11.757 -0.0230  0.0724 -0.0880
34454W        W47868   1.944   0.561   3.946 -0.3612  0.2782 -0.3015
34455W        W47869  11.601   0.659   3.345 -0.0942 -0.0830 -0.0342
34456W        W47870  11.571  14.555  11.251 -0.0102 -0.0721  0.0832
34457W        W47871  10.160   2.878   3.496 -0.2043  0.2474  0.0202
34458W        W47872   2.165   3.300   0.500 -0.1187  0.3066  0.1161
34459W        W47873  12.838   6.718   6.016 -0.0283  0.1103  0.0744
34460W        W47874   0.995  13.125  12.338  0.2091 -0.0521 -0.1918
34461W        W47875   8.048  13.089  11.051 -0.0349  0.4139 -0.1611
34462W        W47876   7.040  13.360  13.897 -0.0737 -0.2295 -0.0198
34463W        W47877   0.872  10.221   1.850  0.1147  0.0620  0.0468
34464W        W47878  16.713  11.339  14.861 -0.0789  0.2440 -0.2509
34465W        W47879   5.913   3.647  11.150 -0.0346 -0.0105 -0.1950
34466W        W47880   7.435  15.929   5.377  0.0558 -0.1093 -0.0717
34467W        W47881  10.404  12.747   2.050 -0.0356  0.3718  0.1209
34468W        W47882   0.281  15.065  15.495  0.0386 -0.1193  0.1978
34469W        W47883   5.560  10.491  13.330 -0.0220 -0.2027  0.0144
34470W        W47884   4.701  14.015  12.105 -0.2512  0.1094  0.2055
34471W        W47885  12.482   2.080   1.469  0.0388 -0.0936  0.1490
34472W        W47886   9.969   5.426   0.703 -0.0455  0.1114 -0.1701
34473W        W47887   6.336   8.706   0.153 -0.1205  0.3096 -0.0579
34474W        W47888  15.184   7.953   1.051 -0.0316  0.0972  0.0365
34475W        W47889  10.458   7.415   0.334 -0.2921  0.4411  0.0624
34476W        W47890  17.057  15.730   4.952 -0.0946 -0.2889 -0.0321
34477W        W47891  17.713   6.640  11.797 -0.2351 -0.1727 -0.1180
34478W        W47892   3.035   0.795  12.617 -0.2656 -0.0103  0.0206
34479W        W47893  11.093  13.390   1.579 -0.3877  0.0823 -0.0576
34480W        W47894   0.525  15.332   3.547 -0.3008  0.3421 -0.1645
34481W        W47895  13.924   5.645   1.866  0.0789  0.3004 -0.0034
34482W        W47896   9.153  18.059   4.102  0.1678  0.1107  0.0695
34483W        W47897   3.844   5.454   5.940 -0.0216  0.2723  0.1212
34484W        W47898   1.274   9.577  13.204 -0.1117 -0.0227 -0.0193
34485W        W47899   9.303  15.797  16.018 -0.2057  0.1517 -0.1284
34486W        W47900   9.487   5.760  10.993  0.0367  0.0053 -0.4422
34487W        W47901  14.256   5.156  15.999 -0.0626  0.1833 -0.4114
34488W        W47902   8.785  16.137  10.494 -0.3031  0.0063  0.3738
34489W        W47903  10.094   1.715  13.177  0.0636  0.2601  0.0141
34490W        W47904  11.456   2.955  14.311 -0.2161  0.0664 -0.0917
34491W        W47905  12.488   2.171  14.834  0.3029 -0.0907 -0.1702
34492W        W47906  16.492  12.845  10.643  0.3037 -0.1728 -0.0209
34493W        W47907   4.574   7.550   6.126 -0.2695  0.2054  0.2637
34494W        W47908   5.011   9.055   1.103  0.2563  0.1644  0.2351
34495W        W47909   5.944  17.715  15.728  0.4962  0.2197  0.3291
34496W        W47910   9.226   2.916   3.029  0.1505 -0.1463  0.0059
34497W        W47911  16.864  17.240   1.690 -0.1648  0.2192 -0.2971
34498W        W47912   1.812  16.918   1.181  0.1236  0.1163 -0.0327
34499W        W47913   4.701  12.440  13.811 -0.3408 -0.0886  0.1712
34500W        W47914   0.505  17.817   4.051 -0.3470 -0.1572 -0.0965
34501W        W47915  10.287   1.812  10.676 -0.3477 -0.0781  0.0210
34502W        W47916  16.048   9.252  16.345 -0.2182  0.0120  0.3584
34503W        W47917   9.125   0.289  14.979 -0.2135  0.0417  0.4533
34504W        W47918  15.783   3.302  14.825  0.0570  0.2173  0.0569
34505W        W47919  14.099   2.569   4.752  0.0140  0.2941 -0.0087
34506W        W47920   3.596   4.943  11.260  0.0492  0.0481  0.1503
34507W        W47921  14.648   2.731   5.192 -0.3143  0.3515 -0.2076
34508W        W47922  13.971   5.068  16.429 -0.2978  0.0238  0.2606
34509W        W47923  14.896   8.587   1.254  0.0798 -0.2032 -0.0478
34510W        W47924  16.693   0.766   2.342  0.0732 -0.3172  0.1133
34511W        W47925   4.744   0.165  10.453 -0.2586  0.0437  0.0176
34512W        W47926  14.390   3.355  14.861  0.2513 -0.0565 -0.1090
34513W        W47927   9.660  14.700  11.664 -0.0058  0.1368  0.0474
34514W        W47928  12.933  15.039   4.546 -0.1100  0.0223 -0.1900
34515W        W47929  15.031  12.246  12.907 -0.0386  0.0942 -0.0150
34516W        W47930  15.825   6.238   3.280  0.0327 -0.1417  0.1242
34517W        W47931  13.676  14.169  11.476 -0.2933  0.1592 -0.2588
34518W        W47932  11.319   8.074   3.300 -0.0145  0.0469  0.0158
34519W        W47933   6.518  10.985   1.010  0.0850 -0.0242 -0.0078
34520W        W47934   1.777   1.883   3.110 -0.0357 -0.5330  0.4236
34521W        W47935  10.778  10.590  16.395 -0.0789  0.0932 -0.1578
34522W        W47936  15.135   8.209   3.554 -0.1881  0.3229  0.1745
34523W        W47937  12.230   2.610  14.074  0.1115 -0.1204 -0.1047
34524W        W47938  14.545   8.042   2.419  0.2465  0.1059  0.0002
34525W        W47939  13.976  12.217   0.106  0.1069 -0.0866  0.0314
34526W        W47940   7.232   0.718   4.618 -0.1599 -0.1159  0.2226
34527W        W47941  13.544   1.263  14.467 -0.1991 -0.2625 -0.0306
34528W        W47942   3.739   7.917  10.922 -0.0136  0.1630  0.0665
34529W        W47943   6.671  14.749   2.179 -0.2337 -0.3078 -0.1003
34530W        W47944   9.105   3.428   5.307  0.3323  0.0332  0.0662
34531W        W47945   0.521   9.623  14.075  0.0610 -0.1959 -0.0694
34532W        W47946   6.877  14.788  14.972  0.2831 -0.0391 -0.0842
34533W        W47947   1.740  13.387   3.973  0.0559  0.1722  0.0705
34534W        W47948   0.966   8.622   1.934 -0.1708 -0.1020 -0.0075
34535W        W47949   8.481   3.814   1.826 -0.1200  0.2304  0.0720
34536W        W47950  16.949   7.863   0.275 -0.0076 -0.0198  0.2858
34537W        W47951  11.288   4.049  15.004 -0.0342 -0.1674 -0.1157
34538W        W47952  12.534  16.288   2.612  0.2922  0.0064  0.2655
34539W        W47953   3.825  10.306   6.861 -0.2991 -0.0949 -0.1149
34540W        W47954   6.579   7.951   2.622  0.0008  0.0462  0.5013
34541W        W47955   5.255  17.126   5.713  0.2462  0.1326  0.0223
34542W        W47956  12.608  16.359   1.965  0.4642  0.1310  0.1447
34543W        W47957   4.374   1.679   4.127  0.0280 -0.0571  0.1195
34544W        W47958   7.465  17.750   2.185  0.0227 -0.1730 -0.1238
34545W        W47959   8.957   5.051   2.386  0.0196 -0.0679 -0.1438
34546W        W47960   8.818  10.427  13.440 -0.0111 -0.2234 -0.2235
34547W        W47961   0.478  15.408   2.138  0.0950 -0.1002 -0.1642
34548W        W47962   0.399   6.291  11.827  0.0502 -0.1030 -0.0583
34549W        W47963   0.385  14.248   6.116  0.1884 -0.0415  0.0505
34550W        W47964  17.490   4.932   5.141  0.1048 -0.2624  0.1127
34551W        W47965  10.738  12.625  10.862 -0.1410  0.4008  0.0508
34552W        W47966  14.110  14.109   4.454 -0.0165  0.3109 -0.3379
34553W        W47967  15.210   7.764  13.269 -0.2079  0.0335 -0.0212
34554W        W47968   4.411   3.632  12.145  0.0981 -0.0190  0.2695
34555W        W47969  16.425  17.067   0.407 -0.2852  0.1889 -0.0249
34556W        W47970   9.039  16.930  15.794  0.0522 -0.1369 -0.1038
34557W        W47971   2.094  13.522   1.352 -0.0437  0.1025 -0.1452
34558W        W47972  12.833   0.924   0.227  0.4400 -0.0080  0.3675
34559W        W47973  16.228  15.744  10.119 -0.0152 -0.0877  0.0503
34560W        W47974  11.272   5.295   4.187 -0.0432 -0.1727  0.2716
34561W        W47975  13.675  16.488   3.385 -0.4258  0.1144 -0.0881
34562W        W47976  11.075  11.233  13.245  0.3617 -0.0986  0.2903
34563W        W47977  16.381   5.151   1.592  0.0356  0.1774  0.1062
34564W        W47978  14.727   1.326  13.720  0.2173  0.0844 -0.3400
34565W        W47979  16.351   0.358   3.035  0.0428  0.0012 -0.4120
34566W        W47980   3.512   8.332   3.295  0.2410 -0.1492  0.0408
34567W        W47981  14.123   8.027   0.941 -0.0014  0.0709 -0.2164
34568W        W47982  13.333   7.777  14.555  0.1202 -0.0670 -0.0840
34569W        W47983  14.426  14.328  13.238  0.0707 -0.0376 -0.3452
34570W        W47984   2.677   9.076   6.116 -0.1488 -0.3384  0.1748
34571W        W47985  10.381   4.356   1.325  0.1342  0.3057  0.1147
34572W        W47986   2.568   0.077   0.512  0.0803  0.0082  0.2828
34573W        W47987  10.648   0.266   9.125  0.1913 -0.0826  0.1178
34574W        W47988   5.257   7.542  15.060 -0.0333 -0.0284  0.1174
34575W        W47989   0.926  16.067  12.729 -0.0377  0.2027 -0.0429
34576W        W47990   3.225   3.322  11.709 -0.0170  0.1949  0.0753
34577W        W47991   7.233   3.962  11.348  0.2564 -0.2251  0.0260
34578W        W47992   4.172   0.672  12.394  0.3161  0.0570 -0.2685
34579W        W47993  15.619  14.096  11.703 -0.3111 -0.0899  0.0733
34580W        W47994   4.361  11.481   3.230 -0.2414  0.1399  0.0158
34581W        W47995   8.027  11.888  14.930  0.1595 -0.2128  0.1833
34582W        W47996   2.055  10.140  15.290  0.0494  0.0007  0.0184
34583W        W47997   3.406   4.034   3.599 -0.0540 -0.1062 -0.0669
34584W        W47998  15.267  14.836  12.983 -0.1786  0.3703 -0.0895
34585W        W47999   8.579  13.807   1.092  0.0995  0.0787 -0.0919
34586W        W48000   0.646  17.846  15.916  0.0837 -0.0315  0.0072
34587W        W48001  11.301   5.478   0.525  0.1111 -0.0132  0.2023
34588W        W48002   4.472   0.159   0.430  0.0126  0.4217 -0.0245
34589W        W48003   5.253   5.858  12.875 -0.1322 -0.0335  0.1687
34590W        W48004  12.449  14.950  12.651  0.0203  0.0264 -0.1782
34591W        W48005   5.887   5.934   2.958 -0.2320  0.2233 -0.2882
34592W        W48006  11.022  10.154  13.551  0.1816 -0.1595  0.2228
34593W        W48007   1.256  14.281  11.592  0.0870 -0.3019 -0.2438
34594W        W48008  11.500   6.607   2.959 -0.1129 -0.0735  0.3744
34595W        W48009  14.878   7.607   4.303 -0.1824 -0.1559 -0.0882
34596W        W48010   4.900  14.411  14.872 -0.0951 -0.0461  0.0411
34597W        W48011   4.470   1.124  15.475  0.0523 -0.2138 -0.0070
34598W        W48012   4.131   2.228   1.995  0.3496 -0.2200  0.3131
34599W        W48013  14.308   3.372  13.631 -0.0023 -0.1971 -0.1051
34600W        W48014  12.801  16.299   3.776  0.0337 -0.3018 -0.0057
34601W        W48015   9.551  13.642  13.186 -0.0821 -0.3533 -0.0594
34602W        W48016  10.236   2.639   5.130  0.2553 -0.0447  0.0547
34603W        W48017  16.197   7.047  13.495  0.0971  0.0074  0.1050
34604W        W48018  10.402   0.883   9.261  0.1427  0.2011  0.2038
34605W        W48019  10.696  13.924   4.002 -0.0790 -0.0261  0.0237
34606W        W48020  15.068   4.492  12.882 -0.1812  0.2225  0.3305
34607W        W48021   0.239  16.309  13.429 -0.2821  0.0277  0.2010
34608W        W48022  13.931   3.070  12.279  0.0588  0.0369 -0.0800
34609W        W48023   8.507  13.642  13.899 -0.1720 -0.1448 -0.2335
34610W        W48024   9.234  11.243  11.542 -0.0144  0.2582  0.0107
34611W        W48025  12.882  18.016  14.681  0.1401 -0.0195  0.1637
34612W        W48026   3.312   8.810  15.527 -0.2603 -0.0035  0.2094
34613W        W48027   2.276  13.938   5.417 -0.1037  0.0185 -0.0603
34614W        W48028   6.791   2.169  15.432 -0.2371 -0.2641  0.0724
34615W        W48029   0.594  16.963   5.510  0.1111 -0.0186 -0.2458
34616W        W48030  10.062   2.833   2.504  0.2996 -0.0600 -0.0421
34617W        W48031  14.061   3.239  14.070  0.0338  0.1265 -0.1281
34618W        W48032   8.925  15.653   3.070 -0.1217 -0.2319  0.0333
34619W        W48033   6.075   3.913   5.773  0.0007 -0.4121  0.0287
34620W        W48034  16.329   9.038   3.983  0.6353 -0.3025  0.1247
34621W        W48035  15.857   8.474   1.395  0.1104 -0.0056 -0.1700
34622W        W48036   6.531   3.955   1.768 -0.1877  0.2290  0.2762
34623W        W48037   7.239   9.308   1.440  0.0192 -0.1693 -0.0449
34624W        W48038   8.257  17.491  14.138 -0.2424 -0.2832 -0.2698
34625W        W48039   8.498  14.850  11.959 -0.0557 -0.0370 -0.1572
34626W        W48040   6.844  12.842  13.303 -0.1682 -0.0468  0.0493
34627W        W48041   6.099  17.850   0.069 -0.2907 -0.0808  0.2095
34628W        W48042   3.468   3.859  10.997  0.1482  0.3621  0.0879
34629W        W48043  14.960   8.396   0.695 -0.0426  0.0520  0.1335
34630W        W48044  10.348  15.657   5.074 -0.0174 -0.0603  0.3045
34631W        W48045   3.045   2.567  11.491  0.0895  0.0554 -0.2182
34632W        W48046  17.414  13.949   4.584 -0.2363 -0.1544 -0.2742
34633W        W48047   5.973  17.217   4.297  0.1554 -0.4365 -0.0976
34634W        W48048  15.988   2.288   5.541  0.1047  0.2520 -0.2430
34635W        W48049   8.210   0.916   1.126  0.0783  0.1233 -0.0952
34636W        W48050   4.751   7.326  11.696  0.0039  0.3072 -0.1611
34637W        W48051   4.368  14.104   3.379 -0.3078  0.1876  0.0801
34638W        W48052   4.414   2.962  16.405 -0.2874 -0.0557  0.2283
34639W        W48053  15.134  14.409  12.126  0.0767  0.0994  0.1628
34640W        W48054   0.704   0.835  12.348 -0.3123  0.1439 -0.0934
34641W        W48055  14.554   0.159  13.015  0.0964  0.0457 -0.1021
34642W        W48056  14.993   6.839   0.485  0.3114  0.0131 -0.1961
34643W        W48057   6.431   0.046   5.471 -0.0568 -0.6097 -0.0396
34644W        W48058   2.114   4.124   4.086 -0.3498 -0.1781  0.1084
34645W        W48059   9.007   3.734  11.424 -0.3145 -0.1688  0.0100
34646W        W48060   4.165  12.450  12.206 -0.2325 -0.1300  0.0271
34647W        W48061   9.416   1.554  12.875  0.1333 -0.0233 -0.1684
34648W        W48062  15.656   5.231   5.077 -0.0316  0.0003  0.1101
34649W        W48063  15.710   4.227  11.158  0.1355  0.1217 -0.2397
34650W        W48064   9.672  11.959  12.107  0.1999 -0.0249 -0.0422
34651W        W48065   0.396  10.650   2.675  0.0268  0.1285  0.1786
34652W        W48066   7.400   7.354   5.751 -0.0841  0.2099 -0.0450
34653W        W48067   2.073   8.475   2.719 -0.0929 -0.0021 -0.1653
34654W        W48068  14.796   2.554  13.969  0.0290 -0.1041  0.1343
34655W        W48069   8.428  10.989  12.611 -0.4341  0.2934  0.3528
34656W        W48070   0.077   4.689   1.643  0.0598 -0.3285  0.3097
34657W        W48071  16.113   6.441   0.910  0.0292  0.2164  0.2650
34658W        W48072  12.179  10.402   4.405  0.0283  0.0528  0.0799
34659W        W48073  10.479   7.814   2.786 -0.1582 -0.3667 -0.2067
34660W        W48074   7.704   6.246   1.659 -0.1166 -0.2481  0.0127
34661W        W48075   0.555   3.147   2.535 -0.2429  0.2924 -0.0961
34662W        W48076   0.985  15.487   1.230  0.1827 -0.1142  0.0593
34663W        W48077   4.966   1.451  16.033  0.1693 -0.1992 -0.0464
34664W        W48078   7.768   9.462  12.380 -0.3884 -0.2043  0.0667
34665W        W48079   1.625  11.310  13.008 -0.1273  0.1468  0.1037
34666W        W48080   4.803  14.545  12.025  0.0826  0.1347  0.3062
34667W        W48081   3.337  13.520  14.603  0.1387  0.1184 -0.1896
34668W        W48082   7.923   6.549  11.834  0.0917 -0.1043 -0.2480
34669W        W48083  10.449  15.609   2.068 -0.1754  0.0732  0.2773
34670W        W48084  14.190   3.212   1.534 -0.1657 -0.1077  0.1679
34671W        W48085   1.788   0.820   2.732  0.1715 -0.1673  0.3810
34672W        W48086   6.548  13.413   2.661 -0.1122 -0.3037  0.3910
34673W        W48087   5.433   3.652  13.721 -0.1061 -0.1452  0.0053
34674W        W48088   4.207  10.219   1.220  0.2725 -0.1860 -0.1517
34675W        W48089  16.635  11.000  12.739 -0.0053  0.2141  0.3329
34676W        W48090   2.889   7.000  14.517  0.0537  0.1304  0.2832
34677W        W48091  16.638   4.047   5.433  0.0475  0.1173  0.0324
34678W        W48092  11.415   5.130   3.171  0.0863 -0.1547  0.0467
34679W        W48093   6.609  17.099  13.025 -0.0848 -0.0553  0.0999
34680W        W48094   4.666   8.130   5.172 -0.0899  0.0015  0.4863
34681W        W48095  14.907  17.460  16.342  0.1082 -0.0855 -0.0320
34682W        W48096  17.556   6.322   3.416  0.2254 -0.1771 -0.0196
34683W        W48097  10.539   4.761  11.869 -0.1549  0.1204 -0.0520
34684W        W48098   7.406   7.645  11.772  0.2868 -0.1196  0.0129
34685W        W48099   8.803   6.586   4.262 -0.0542  0.1336  0.1068
34686W        W48100  12.282  16.851   0.822  0.2387 -0.0334 -0.0466
34687W        W48101   0.657   3.356   0.257 -0.3752 -0.0982  0.2121
34688W        W48102  12.203  10.197   4.872  0.0212  0.1863 -0.0002
34689W        W48103  10.331  17.601  14.411  0.0590 -0.4301 -0.2939
34690W        W48104   4.080   8.627   2.617 -0.1841 -0.1297 -0.1696
34691W        W48105  12.191  15.645   2.455 -0.0679 -0.2623  0.1862
34692W        W48106   2.212  11.539  15.553 -0.2848  0.1148  0.1704
34693W        W48107   1.096  11.328   5.002 -0.2680  0.0432  0.1253
34694W        W48108  16.382   0.729  13.421  0.0859 -0.1248 -0.1160
34695W        W48109   4.800  17.622   0.707 -0.0266 -0.2045 -0.3137
34696W        W48110   1.463   2.987  15.389 -0.0124 -0.4183  0.2341
34697W        W48111   2.938  12.500   4.068  0.1129  0.0271 -0.1369
34698W        W48112  15.565  14.513   5.069  0.1326 -0.0411  0.1815
34699W        W48113  11.803   3.722   0.219  0.0173 -0.1771 -0.0605
34700W        W48114  16.478  12.956  15.748 -0.0376 -0.3884 -0.0998
34701W        W48115  17.859   6.956   5.784  0.2761  0.1917  0.0170
34702W        W48116   0.987   5.852  12.410  0.1494 -0.1305  0.0193
34703W        W48117   6.325   4.030   4.942 -0.0482 -0.0005 -0.3602
34704W        W48118  12.631   6.557   5.602  0.1509  0.4445 -0.0681
34705W        W48119   3.089  12.421  16.245  0.0513  0.0518 -0.0189
34706W        W48120   8.706  11.934  13.499 -0.2249  0.1546  0.3164
34707W        W48121   5.816   5.705   2.517  0.2073 -0.0290 -0.0193
34708W        W48122   4.344   7.538  15.181  0.2484  0.1186  0.1164
34709W        W48123   1.804  10.675  12.697 -0.0940 -0.0284 -0.0361
34710W        W48124  15.537  15.803   4.650 -0.0085  0.1038 -0.0560
34711W        W48125   8.288  13.598  14.861  0.1377 -0.3529  0.1217
34712W        W48126  17.098   6.597   5.254  0.1022 -0.1795 -0.3003
34713W        W48127   1.321   0.534   9.896  0.0169  0.1024  0.0417
34714W        W48128  14.896   9.100   1.209  0.1796  0.1263 -0.1141
34715W        W48129  12.278  12.459   5.545  0.1034  0.0248 -0.0660
34716W        W48130   4.843  14.182   0.518  0.2517 -0.0001  0.0601
34717W        W48131  15.356   0.493  12.231 -0.1593 -0.1033 -0.1047
34718W        W48132  18.094  11.496   5.558 -0.1780  0.1406 -0.0794
34719W        W48133  12.448   6.565  16.083 -0.2325 -0.1019  0.1889
34720W        W48134  12.113   5.573   0.795  0.0637 -0.0062  0.1533
34721W        W48135   4.634   4.330   1.826 -0.1379  0.4264 -0.1179
34722W        W48136   6.135  13.203  11.117 -0.0536 -0.1378  0.0054
34723W        W48137  12.548  18.146   1.192  0.0370 -0.3058  0.3264
34724W        W48138   3.797  11.635  10.244  0.0023  0.2462 -0.2458
34725W        W48139   3.718   4.532   4.765  0.1151  0.1665 -0.2077
34726W        W48140  17.426   4.983  13.923 -0.0933 -0.1464 -0.0361
34727W        W48141   7.379   6.683  11.454 -0.0513  0.3701  0.1442
34728W        W48142  17.523  10.770  15.025  0.3396  0.0844 -0.1000
34729W        W48143  14.715  15.615   3.658  0.1664 -0.0894 -0.1697
34730W        W48144  12.015   8.805  11.332  0.0182 -0.0041 -0.0101
34731W        W48145   7.745   4.304  12.931  0.3223  0.2480 -0.0397
34732W        W48146  11.743   2.093   0.663  0.1562 -0.0035  0.1350
34733W        W48147   2.171  16.726   0.394 -0.0975  0.0532  0.0432
34734W        W48148  17.643  10.908  10.909 -0.1680 -0.2609  0.0339
34735W        W48149   6.239  16.245  14.575  0.0542  0.0682 -0.0427
34736W        W48150   1.022  12.317   0.470 -0.4492  0.0990 -0.2070
34737W        W48151   8.910   5.935   5.620  0.1662  0.0506  0.1060
34738W        W48152   4.201   7.977   6.007  0.0500  0.1576  0.2613
34739W        W48153   0.935  13.185  14.125 -0.2905  0.3026  0.0282
34740W        W48154   9.400   6.727   2.615  0.1647  0.0949 -0.0250
34741W        W48155  17.844   8.644   1.078 -0.1743  0.2852 -0.3070
34742W        W48156  15.332   9.965   1.571 -0.1405 -0.2633  0.1828
34743W        W48157  11.081  14.661  12.266  0.1958 -0.0291 -0.0785
34744W        W48158   2.842   9.152  11.295 -0.0084 -0.1767  0.0545
34745W        W48159  16.282   6.300   1.931  0.0477  0.2135  0.2785
34746W        W48160   1.099  11.693  13.682  0.0922 -0.0587  0.0119
34747W        W48161   1.662   2.382  10.465  0.1707  0.3958  0.3441
34748W        W48162   9.179  17.282  13.468 -0.2047  0.2097 -0.0035
34749W        W48163  17.794  11.399  15.846 -0.1796 -0.0072  0.0407
34750W        W48164  14.127   8.586  13.413 -0.3932 -0.1627  0.0138
34751W        W48165  12.686   3.426  14.622 -0.0499  0.1705 -0.0854
34752W        W48166   5.944  14.883  11.245 -0.3169  0.1490 -0.1465
34753W        W48167  15.048  15.490   3.306  0.3468  0.1929 -0.2222
34754W        W48168   1.752  15.912  10.718  0.2276 -0.0652 -0.1779
34755W        W48169  17.263   6.697  14.968 -0.0944  0.2344 -0.3102
34756W        W48170   7.533   6.578   2.879 -0.1034 -0.0012  0.1476
34757W        W48171  14.655  16.139   3.478  0.0542  0.0488  0.1936
34758W        W48172   0.689   0.580   5.717  0.1859  0.1758  0.0761
34759W        W48173   0.211  16.769   4.137  0.2820 -0.0989 -0.2459
34760W        W48174  15.923  15.776   4.908  0.0888  0.1862 -0.0006
34761W        W48175   8.517  17.583  12.067  0.2069  0.1263 -0.0849
34762W        W48176   8.057   1.447   3.296 -0.3795 -0.1995  0.2746
34763W        W48177   5.209   3.411  16.094 -0.1228  0.1572  0.1789
34764W        W48178   4.482   8.479   4.710 -0.2564 -0.0113 -0.1996
34765W        W48179   3.387   3.711   0.707 -0.0420 -0.1373  0.3521
34766W        W48180  16.440  16.741  15.621  0.3034 -0.0289  0.3750
34767W        W48181   2.281   1.992  11.160 -0.1054  0.1090 -0.1489
34768W        W48182   4.109  11.535  12.396  0.1345 -0.1920  0.1177
34769W        W48183   9.324  16.512   4.436  0.2320 -0.1158  0.2372
34770W        W48184  14.431  12.651   3.803  0.0002  0.0171  0.1958
34771W        W48185  10.116   4.976   6.030 -0.1300  0.2484 -0.2397
34772W        W48186  18.086   9.327   4.980  0.0609 -0.4121 -0.2075
34773W        W48187   6.401   5.525   5.248  0.1277  0.0825  0.2998
34774W        W48188   0.639  13.765  10.966  0.1350 -0.1061 -0.0996
34775W        W48189   5.953   1.269   2.010  0.1198 -0.0159 -0.1361
34776W        W48190   1.469  17.940  15.290 -0.0855  0.0039 -0.3733
34777W        W48191   8.428   1.621  10.792  0.1083 -0.4294  0.0568
34778W        W48192   2.472  15.703  12.931 -0.1250  0.0275  0.0877
34779W        W48193   5.206   4.186  12.387  0.1804  0.0949 -0.0439
34780W        W48194  17.191  15.611  10.242  0.0377  0.1538 -0.0286
34781W        W48195   4.667   6.344   3.016 -0.1583 -0.2015  0.1121
34782W        W48196  12.023  13.742   1.563 -0.2064  0.0354 -0.0880
34783W        W48197  12.545  12.808   2.375  0.1954 -0.4370 -0.0774
34784W        W48198  11.171   9.350   1.154 -0.0007  0.0519 -0.0584
34785W        W48199   7.595  17.078   3.375 -0.0958  0.0621 -0.2211
34786W        W48200   5.137  11.613  15.343 -0.0857  0.3029  0.2275
34787W        W48201   9.912   9.082  12.630 -0.0226  0.1511  0.0422
34788W        W48202  14.974   1.662   5.323 -0.2143 -0.1054 -0.1678
34789W        W48203  16.472  13.097   1.141 -0.1561 -0.0689 -0.2161
34790W        W48204  11.486  11.748   4.237  0.1420  0.3349 -0.0259
34791W        W48205  15.641   1.213  11.694  0.1042  0.0805  0.3330
34792W        W48206  16.552  16.461   1.259  0.0877 -0.4103 -0.1705
34793W        W48207  15.612   4.608   3.957  0.2028 -0.2365  0.1569
34794W        W48208   3.365  14.494   3.192 -0.2061 -0.2080  0.1541
34795W        W48209   6.628   2.665   1.139  0.0030  0.0733 -0.0671
34796W        W48210   1.421   4.727   4.533 -0.2423  0.3861 -0.3451
34797W        W48211   7.331  17.223   0.384 -0.4439 -0.0688  0.0275
34798W        W48212  15.429  11.783   4.511 -0.1068 -0.0432 -0.1211
34799W        W48213   4.158   8.449  13.241 -0.1917 -0.1412 -0.0113
34800W        W48214   8.086  15.786  15.153  0.0448 -0.1312 -0.1077
34801W        W48215   9.516  15.545   9.605 -0.0548 -0.2158 -0.1696
34802W        W48216   1.601   1.459   3.773  0.1302  0.2683 -0.1397
34803W        W48217  12.877   0.760  16.265  0.0678  0.1691 -0.0554
34804W        W48218   3.646  11.636   4.845  0.3167  0.2615 -0.1189
34805W        W48219   7.247  10.044  12.524  0.3063  0.0433  0.3935
34806W        W48220   7.694   0.593  10.843 -0.0142 -0.2118 -0.0622
34807W        W48221   1.416  12.943   2.886 -0.1574  0.1400  0.3382
34808W        W48222  14.804   2.230  16.133  0.1995  0.0752 -0.0602
34809W        W48223  10.699   7.673   1.343  0.1165  0.1909 -0.0202
34810W        W48224   4.383  14.345   0.781  0.0871 -0.0430  0.0003
34811W        W48225  15.964  16.659   0.876  0.0901 -0.0218 -0.1998
34812W        W48226   3.200   5.744  11.704  0.1605 -0.3455 -0.0410
34813W        W48227   7.991  15.211  16.252 -0.1662 -0.2311 -0.1096
34814W        W48228   7.359   8.051  14.521 -0.1305  0.0297  0.3060
34815W        W48229  17.673  12.125  12.101 -0.3426 -0.0652 -0.0224
34816W        W48230  14.763   0.997   3.417  0.1864  0.2445  0.2919
34817W        W48231  15.549   2.318   4.833 -0.1589 -0.1104  0.0100
34818W        W48232  11.801  12.798  12.582  0.0031  0.2131  0.0155
34819W        W48233   0.710   9.405  15.020  0.1009  0.1263  0.0780
34820W        W48234  17.620  15.984  13.031 -0.1765 -0.0971 -0.0191
34821W        W48235  18.198   9.278  10.888  0.2204 -0.5296  0.1126
34822W        W48236   0.513  17.802   5.846 -0.1361 -0.1815  0.1594
34823W        W48237   0.473  12.060   4.793  0.2441  0.0502  0.0171
34824W        W48238   2.687  14.096  13.862  0.1624  0.1443  0.0404
34825W        W48239  11.356   0.397   4.344  0.3078 -0.0072 -0.0778
34826W        W48240   6.967   4.768   5.928 -0.0831 -0.1291  0.1715
34827W        W48241  16.816   5.040   4.458 -0.0202 -0.0768 -0.2133
34828W        W48242  17.372   2.545  14.053  0.3762 -0.1337 -0.2534
34829W        W48243   9.022  14.017  13.208  0.3090 -0.2527 -0.1790
34830W        W48244  12.148   5.138   0.190  0.0091 -0.1454 -0.0730
34831W        W48245  16.512   9.401   6.723  0.3130  0.0581 -0.0809
34832W        W48246   1.443   3.174  11.794 -0.1023  0.1150  0.0936
34833W        W48247   9.687   7.021   2.320 -0.1115 -0.1553  0.1624
34834W        W48248   0.371  15.823  12.700 -0.1870  0.0281 -0.0792
34835W        W48249  17.311   4.323  14.560 -0.1506 -0.1296  0.2214
34836W        W48250  17.018  18.100  11.925 -0.3484  0.1541  0.0942
34837W        W48251  17.006   5.625   3.823  0.0897 -0.0431  0.2073
34838W        W48252   7.926   9.279   4.967  0.1857 -0.1401  0.0700
34839W        W48253   3.610   4.056  15.980  0.0163 -0.1897  0.2515
34840W        W48254   8.016   2.047  15.846 -0.1222 -0.4245 -0.0160
34841W        W48255  13.862  16.378   4.484  0.3289  0.1186  0.1458
34842W        W48256   8.584  13.534   5.394  0.0778  0.4699 -0.1185
34843W        W48257  10.792   0.324  14.522  0.0102 -0.0243  0.1434
34844W        W48258   5.780   5.869   6.384 -0.0847  0.2328 -0.0707
34845W        W48259  11.604  11.338  12.508 -0.4955  0.0301 -0.1501
34846W        W48260  18.204   7.867  12.412 -0.1843  0.0052 -0.2309
34847W        W48261  15.590  10.848   4.496 -0.1881 -0.0032  0.0448
34848W        W48262   1.240  11.213   5.492  0.0071  0.3364  0.2394
34849W        W48263  15.377  12.774   4.799 -0.3183  0.2024  0.1210
34850W        W48264   8.131  10.554   3.041  0.2260 -0.1063  0.0511
34851W        W48265  17.671  14.419   4.719 -0.2825 -0.0065 -0.2098
34852W        W48266   9.593   9.887  14.645 -0.0308  0.0904  0.0960
34853W        W48267   7.260   4.308   2.064  0.0076  0.1607  0.2618
34854W        W48268  16.822  10.488   4.629  0.1465 -0.0439  0.3757
34855W        W48269   8.733   0.225  15.354 -0.0490 -0.1867 -0.0498
34856W        W48270  13.180  13.905   3.694 -0.0132 -0.0493  0.2443
34857W        W48271  17.227   2.501  11.834 -0.1298  0.2455  0.2713
34858W        W48272  16.844  16.034   5.985  0.0287 -0.1930 -0.0636
34859W        W48273  17.713   6.822  15.186 -0.0333 -0.1203 -0.6101
34860W        W48274  14.786  17.503  15.846  0.1812 -0.0085  0.0302
34861W        W48275   8.211  14.153  12.878  0.2905  0.0884 -0.1352
34862W        W48276  17.995   8.572  13.026 -0.1939  0.0466  0.1101
34863W        W48277   4.456   5.113  12.925  0.4660  0.0561  0.0608
34864W        W48278   4.238  17.769  11.463  0.0961  0.0995 -0.0280
34865W        W48279  10.876   3.922  16.050 -0.1964 -0.0210  0.3532
34866W        W48280  12.098   3.843   4.573 -0.4120  0.2668  0.0279
34867W        W48281   8.588  15.191  10.961  0.2511 -0.1869 -0.0771
34868W        W48282   6.382   8.161   0.207  0.1125 -0.2574 -0.1122
34869W        W48283  17.314   2.423  13.505 -0.0478  0.2387  0.2568
34870W        W48284  15.897  12.223   2.839  0.0451  0.0532  0.1915
34871W        W48285  17.979   3.503  13.700  0.1328 -0.2955 -0.0008
34872W        W48286   2.127   0.293   1.424 -0.0468  0.0769  0.1687
34873W        W48287   3.926  16.551  10.944  0.0971  0.1516 -0.3391
34874W        W48288  13.131  11.398  15.383  0.0253  0.1395  0.1953
34875W        W48289  14.459   3.131  14.386  0.1938  0.0797 -0.0298
34876W        W48290   9.307   4.749  10.422  0.1130  0.0300 -0.1588
34877W        W48291   7.774   7.247   0.815  0.0600  0.0023 -0.0925
34878W        W48292   6.741   9.551  12.239 -0.1477 -0.1139 -0.4850
34879W        W48293   1.194  11.662   2.767 -0.0942 -0.0298  0.0986
34880W        W48294  13.077  16.521   2.162  0.3604 -0.0593  0.0685
34881W        W48295  13.347   5.693   2.259  0.0065  0.2212 -0.0147
34882W        W48296  14.742   3.820  15.948  0.0051 -0.0030 -0.3214
34883W        W48297   6.330   0.137   1.559 -0.1423  0.0821 -0.1621
34884W        W48298   0.445   7.032  13.287  0.0873  0.0334  0.2835
34885W        W48299  12.239  10.912   5.664 -0.4006 -0.1965 -0.0371
34886W        W48300   4.892  10.039   3.906  0.1169  0.0242  0.0233
34887W        W48301  14.543  14.374   5.094 -0.0792 -0.0239 -0.3197
34888W        W48302  11.546   9.396   0.402 -0.1555  0.1916  0.2168
34889W        W48303   2.163  12.932  13.375 -0.0986  0.1115 -0.0664
34890W        W48304   4.355  10.915   1.728 -0.4204  0.1978 -0.0305
34891W        W48305   0.989  16.910  12.334 -0.2314 -0.1404 -0.0943
34892W        W48306   5.628   4.652  15.375  0.1744  0.2293 -0.1190
34893W        W48307  11.434  17.284  12.062  0.0137 -0.0309 -0.0852
34894W        W48308   7.092   6.421  10.335 -0.0151  0.2258 -0.1946
34895W        W48309  13.102  10.556  16.027 -0.0274  0.2202 -0.2917
34896W        W48310   8.185   8.547  15.410 -0.1028  0.0069  0.2531
34897W        W48311   9.070  18.057  12.560  0.1549 -0.1402  0.0931
34898W        W48312   4.945  16.047  14.774  0.0140 -0.1930  0.2484
34899W        W48313  10.426  11.620   6.650  0.1684  0.0473 -0.1769
34900W        W48314   0.565  12.606   3.467 -0.4066 -0.0983 -0.1572
34901W        W48315   9.615   5.339  12.603  0.0237  0.0384 -0.0068
34902W        W48316   1.729  12.187  12.854  0.3076 -0.1512 -0.2606
34903W        W48317   8.657  15.144   4.265  0.1417 -0.0006  0.1729
34904W        W48318   7.731   5.460  12.939 -0.0610 -0.3941  0.0678
34905W        W48319  17.614   4.767  14.943  0.0914  0.1899  0.0454
34906W        W48320  15.739  14.898   3.535 -0.0806 -0.3316 -0.0957
34907W        W48321   9.095   7.158   1.737 -0.0601 -0.1662  0.2573
34908W        W48322  15.526   5.640  10.781  0.1474  0.1517  0.1021
34909W        W48323   5.586   4.315   2.701 -0.1142  0.0446 -0.0021
34910W        W48324   5.963   8.957  10.677 -0.3491  0.1034 -0.2072
34911W        W48325  17.862  13.610  10.897 -0.2039 -0.0724  0.2303
34912W        W48326  16.856   2.062   2.185 -0.2303  0.3269 -0.1047
34913W        W48327  17.941  17.426   5.932  0.3510  0.1361  0.2222
34914W        W48328   8.864  10.975  10.798  0.1060  0.1016  0.1358
34915W        W48329   1.950  17.722  10.707 -0.3700  0.2758  0.1244
34916W        W48330  16.514   3.030  13.724 -0.1324 -0.0328 -0.0844
34917W        W48331   2.493   9.275  11.749  0.0184  0.2989 -0.0316
34918W        W48332   0.993  11.710   3.626 -0.1869  0.0987  0.0631
34919W        W48333   8.170   4.655  16.002 -0.2592  0.0799  0.1455
34920W        W48334  10.234   7.493  15.516  0.2861 -0.1555  0.0050
34921W        W48335   0.959   6.099  16.515  0.2010 -0.2913  0.0191
34922W        W48336   9.056  16.116  16.284  0.0366  0.0991 -0.1517
34923W        W48337   9.428  12.431   3.721 -0.0125  0.1625 -0.0003
34924W        W48338  12.696   8.390   1.689 -0.1442 -0.1231  0.1453
34925W        W48339  11.812   6.925  16.170 -0.0538 -0.1748 -0.4021
34926W        W48340   1.223  17.177   3.236  0.3134 -0.2832 -0.0931
34927W        W48341   9.762   9.121   6.244 -0.0584 -0.2026 -0.2841
34928W        W48342   4.089  10.120   4.399 -0.0305 -0.0964 -0.0050
34929W        W48343   2.644  10.002   1.743  0.0051  0.0880  0.0994
34930W        W48344  11.254  11.016   5.320  0.0270 -0.1175  0.0284
34931W        W48345  15.471   4.802  15.197  0.1179 -0.1854  0.0461
34932W        W48346   9.846  15.922   0.827  0.1049 -0.1667 -0.0305
34933W        W48347   8.756  12.824   4.227 -0.0228  0.1674  0.0160
34934W        W48348   1.698   5.250   5.285  0.0973 -0.0496 -0.2708
34935W        W48349  14.891   1.932  14.018  0.1211 -0.0132 -0.0204
34936W        W48350   0.161   1.441  11.161 -0.0230 -0.0891  0.0866
34937W        W48351   2.832  11.683  16.125 -0.0979 -0.1311  0.0195
34938W        W48352   6.474  11.832   1.390  0.4110  0.1478 -0.0275
34939W        W48353   4.654  17.394  12.054 -0.0065  0.1669  0.0403
34940W        W48354   6.730   6.188   2.525 -0.0500 -0.2961  0.0803
34941W        W48355  15.137   4.040  10.456  0.3082 -0.4816  0.1232
34942W        W48356  13.958   2.426  13.890 -0.0913  0.5726  0.1595
34943W        W48357   6.238  17.993   1.858 -0.1149 -0.2039 -0.1737
34944W        W48358  14.484   9.522   1.983 -0.1096  0.3305 -0.2215
34945W        W48359   3.871  16.465  14.723 -0.0443 -0.1425  0.0712
34946W        W48360   8.246  11.621   5.120 -0.0796  0.0287 -0.0041
34947W        W48361   7.445  10.797   6.139 -0.3458 -0.1355  0.1280
34948W        W48362  15.837   2.435  11.278 -0.1694  0.1697 -0.1935
34949W        W48363  12.952  14.789  12.751  0.1404  0.4026 -0.2613
34950W        W48364   6.454   1.221  13.721  0.0129 -0.1048  0.0416
34951W        W48365  16.275  17.521   0.418 -0.1577  0.1281  0.0683
34952W        W48366   2.408   4.244  11.149  0.0127  0.0433  0.0184
34953W        W48367   6.584   8.566  14.353 -0.0618  0.4310  0.1419
34954W        W48368  17.982  13.559  15.045  0.0546 -0.1543 -0.1689
34955W        W48369  18.016  14.120  10.694  0.3117 -0.2201 -0.0037
34956W        W48370  12.543   1.976  13.454  0.1659 -0.3104 -0.1884
34957W        W48371   2.327   2.038  13.943  0.2458 -0.1760  0.0510
34958W        W48372  16.735  16.914   2.481  0.2763 -0.1135  0.3132
34959W        W48373  17.362   5.931   2.129 -0.1997 -0.0142  0.1017
34960W        W48374   1.942  10.444  13.802 -0.0042  0.0206  0.2249
34961W        W48375   0.388   1.294  11.559 -0.0440  0.1960 -0.3173
34962W        W48376   0.299   7.070   2.006  0.1468 -0.1147  0.0189
34963W        W48377  15.432  15.196  12.113 -0.0997 -0.4663 -0.1358
34964W        W48378   2.045  16.556   0.898 -0.1901  0.0039 -0.0065
34965W        W48379   0.763   0.086  15.004  0.0381  0.0916  0.0359
34966W        W48380   8.417   9.582   2.892  0.0167 -0.1357 -0.1095
34967W        W48381  13.735   8.750  11.571 -0.0841 -0.2279 -0.0731
34968W        W48382  13.122  15.666   2.083  0.0283 -0.0657 -0.2073
34969W        W48383   4.311  10.588   5.726  0.2042 -0.0389  0.0171
34970W        W48384  15.617  18.218   2.476  0.1146  0.0129 -0.1312
34971W        W48385   6.692   6.076  16.372  0.4402 -0.0443 -0.1643
34972W        W48386  11.200  17.980  10.853  0.0594 -0.1030  0.0612
34973W        W48387   6.216   8.257   2.810  0.1563  0.1102 -0.1118
34974W        W48388   7.013  14.261  16.491  0.1333  0.0498 -0.0384
34975W        W48389   1.627   3.390  13.716 -0.2701 -0.1848  0.0598
34976W        W48390   1.682   8.527   3.856  0.1072  0.2005 -0.1739
34977W        W48391  14.842   0.094   2.002 -0.0889  0.2456 -0.0662
34978W        W48392  13.802   0.956  14.930 -0.0876 -0.2092 -0.1013
34979W        W48393  11.210   8.013   4.860 -0.2588 -0.4282 -0.1499
34980W        W48394  13.729   2.192   1.090 -0.0043  0.3361  0.1826
34981W        W48395   3.183  16.047   3.650  0.1444 -0.0124  0.5374
34982W        W48396   5.042   6.407  14.714  0.0792  0.1415 -0.0937
34983W        W48397   4.921   1.244  11.423 -0.2624 -0.2502  0.1145
34984W        W48398  16.984   6.875  12.351 -0.2459  0.0128 -0.0370
34985W        W48399   4.365   3.724  16.386  0.1801  0.0280 -0.2903
34986W        W48400   8.771   2.315   1.140  0.1774  0.3863  0.2348
34987W        W48401  15.705   7.291   3.929  0.2021  0.0205  0.0650
34988W        W48402  18.155   8.539   1.967  0.2802 -0.1948  0.0615
34989W        W48403   4.765   7.512  16.364  0.2860  0.3661 -0.2720
34990W        W48404   2.376  17.942  12.147  0.1456 -0.3138 -0.2224
34991W        W48405   6.255  13.915   1.629 -0.1970 -0.0900  0.2467
34992W        W48406   9.453  11.901   0.055 -0.1096  0.1314  0.0174
34993W        W48407  14.295  16.520   0.656 -0.0173  0.2335  0.2020
34994W        W48408   4.017  16.546  12.641 -0.0971 -0.1920 -0.0209
34995W        W48409  13.318  11.936   1.221  0.0198  0.0881 -0.0553
34996W        W48410   1.450   2.024  13.761  0.0326  0.2165 -0.2241
34997W        W48411  17.828   8.738  15.560 -0.4908  0.3387 -0.0701
34998W        W48412  15.966  13.072  13.625 -0.1074  0.0342  0.0662
34999W        W48413   0.138   6.931  12.855 -0.1093  0.3466 -0.0993
35000W        W48414  14.965   4.172  14.998 -0.2771  0.1365 -0.0470
35001W        W48415  15.125  10.333  14.524  0.2325  0.1255  0.0719
35002W        W48416   0.588  16.468   3.305  0.1359 -0.3095 -0.2242
35003W        W48417  14.892   6.463   6.005 -0.3239  0.1902  0.2648
35004W        W48418   4.872   8.270   4.042 -0.0091  0.0762 -0.0347
35005W        W48419  11.137  10.349  11.802  0.0475 -0.1624 -0.0339
35006W        W48420  16.175   4.219   0.398  0.0544 -0.1276  0.0083
35007W        W48421   2.963  16.678   4.502  0.4803 -0.1391 -0.1563
35008W        W48422   4.005   7.556   3.645 -0.1065  0.1385 -0.1710
35009W        W48423   4.694  11.439   6.670 -0.1765 -0.0548 -0.1649
35010W        W48424  15.234  15.879  14.100 -0.1675  0.1177  0.0432
35011W        W48425   7.607  11.944   5.738  0.0014  0.2302 -0.0513
35012W        W48426   0.144  11.502   6.043 -0.0512  0.0885 -0.0083
35013W        W48427  15.111   9.771  11.597 -0.0446 -0.3250 -0.2631
35014W        W48428   8.916   3.021   4.883  0.2898  0.1223 -0.1142
35015W        W48429   3.709  18.055   2.726  0.1950  0.0841  0.2587
35016W        W48430   3.014   2.947   2.848 -0.1831 -0.1967  0.0048
35017W        W48431  11.909   7.355   4.498  0.0046 -0.1093 -0.2998
35018W        W48432   3.127  12.151   0.737 -0.2536  0.0750 -0.0863
35019W        W48433   8.208   2.018  14.103  0.2072  0.1678  0.0567
35020W        W48434  11.608   8.006  14.194 -0.1930  0.0330  0.1205
35021W        W48435   9.513  17.369  14.246  0.1333  0.1281  0.1181
35022W        W48436   2.593  13.678   3.588 -0.1277 -0.1884 -0.0076
35023W        W48437   6.816  12.341  12.642  0.2337  0.2907  0.0916
35024W        W48438  10.395   7.798  14.664  0.0397  0.0824  0.0614
35025W        W48439   1.514   8.766   3.303  0.3581 -0.3451 -0.0082
35026W        W48440  10.000   2.947  14.847 -0.0373  0.2576 -0.1422
35027W        W48441   9.785   4.363   3.100 -0.0647 -0.2052  0.2536
35028W        W48442   2.213  12.079  11.554  0.0674  0.1243 -0.2324
35029W        W48443  12.111   7.981   3.899 -0.0938  0.2730 -0.3517
35030W        W48444   1.910   9.971  13.733  0.0365  0.1495  0.0660
35031W        W48445  10.791   7.672  13.070  0.4856 -0.1821 -0.0574
35032W        W48446  11.028   5.636  12.577 -0.3106 -0.0907  0.0495
35033W        W48447   4.136  12.628  16.306  0.0112 -0.1468  0.0633
35034W        W48448   1.998  12.829  14.084 -0.0522  0.3049  0.1049
35035W        W48449   8.415   7.677   2.483  0.3209  0.2520 -0.2446
35036W        W48450  13.489   2.722  12.446 -0.1557 -0.2285 -0.1575
35037W        W48451   6.502  15.726   9.992  0.1056  0.2354 -0.2080
35038W        W48452  11.107  11.504  12.623 -0.2700  0.2162  0.3120
35039W        W48453  14.987   4.470  14.498 -0.1223 -0.2548 -0.3574
35040W        W48454   4.847  14.592   4.989  0.4089 -0.2304 -0.2735
35041W        W48455   5.838  18.175   2.148  0.0475 -0.3074  0.0599
35042W        W48456   8.821  10.965  13.524 -0.1314  0.0769  0.0766
35043W        W48457  11.466   5.033  15.911 -0.2170  0.1076 -0.1860
35044W        W48458   1.799  12.115   6.542  0.1139 -0.2422 -0.2339
35045W        W48459   7.637   3.844  11.704  0.2799  0.2337 -0.2226
35046W        W48460  10.195   9.612   1.233 -0.0871  0.1340  0.4382
35047W        W48461   5.812  11.301   2.927  0.0258 -0.0506  0.1205
35048W        W48462  12.634  15.590   3.305  0.0886  0.1202  0.0331
35049W        W48463  16.742   9.576  12.383 -0.1722  0.0430 -0.0522
35050W        W48464  14.881  10.102   5.937  0.1871  0.2300  0.2502
35051W        W48465   2.317  17.243   2.372  0.0177 -0.1928  0.0462
35052W        W48466   4.154  14.900   4.089  0.2265 -0.0869  0.1190
35053W        W48467   8.684  11.923   5.965  0.0780  0.2790  0.2447
35054W        W48468  10.213  11.621  13.235  0.1761 -0.2616 -0.1026
35055W        W48469  14.804   5.339  12.980  0.0552  0.0784  0.3312
35056W        W48470   8.952   9.635   5.400 -0.0403  0.2047 -0.0826
35057W        W48471   6.114   6.789   4.982  0.0679  0.0607 -0.0469
35058W        W48472   9.167  12.090  15.268 -0.0400  0.1245 -0.3335
35059W        W48473   2.882   7.255   1.102 -0.0249 -0.2005 -0.1117
35060W        W48474  14.437   3.759  14.505  0.0220  0.1520 -0.1926
35061W        W48475   7.242   4.407  11.128  0.1591  0.4289  0.1432
35062W        W48476   5.796  10.904  12.492 -0.1081  0.0655 -0.1941
35063W        W48477   7.718  10.129  16.495 -0.0426  0.1376  0.0802
35064W        W48478   1.333  13.398  12.001  0.0191  0.2701 -0.0705
35065W        W48479   4.051  14.080  13.577  0.1856  0.3560 -0.1106
35066W        W48480  11.548   4.608   4.960 -0.1723  0.1185  0.2500
35067W        W48481  14.545  11.852   4.730 -0.0142  0.0672  0.3601
35068W        W48482   4.790   4.618   3.810 -0.0000  0.3524  0.1343
35069W        W48483   0.510   7.893  14.022  0.3369  0.0865  0.3433
35070W        W48484   5.389  15.887  13.190 -0.1431 -0.1227 -0.0288
35071W        W48485   1.937   1.245   1.693  0.2054 -0.0545  0.0936
35072W        W48486   4.042   6.327   7.024  0.0634 -0.0580 -0.1486
35073W        W48487  14.266  17.364  13.289  0.2991  0.0997 -0.1282
35074W        W48488   6.871   6.848  14.627  0.1283  0.1771  0.0076
35075W        W48489  14.927   5.713   5.156 -0.1531 -0.0382  0.0624
35076W        W48490   2.733   6.771   5.424 -0.0606 -0.0899 -0.1265
35077W        W48491   8.839  10.546   5.887  0.0175  0.1949  0.1136
35078W        W48492  14.771  10.165  14.134  0.1032 -0.2370 -0.1991
35079W        W48493   0.479  16.603  14.477  0.0841  0.2880  0.0318
35080W        W48494  15.228   9.856   6.245 -0.0904 -0.0866  0.0492
35081W        W48495   6.282  17.841  15.318 -0.3020 -0.1479 -0.0868
35082W        W48496  11.516  10.683   5.858 -0.3035 -0.0154 -0.0747
35083W        W48497  10.114   7.841   1.982 -0.0127  0.0473 -0.0040
35084W        W48498   1.815   4.995  10.337 -0.0690  0.3793  0.2188
35085W        W48499   1.958   8.207   0.004 -0.0204  0.2754 -0.0135
35086W        W48500   0.940  18.155  15.545  0.0776  0.1447 -0.2070
35087W        W48501   1.876   9.091  15.794  0.1740 -0.3099  0.0004
35088W        W48502  10.066   6.801  10.732 -0.1170  0.0766  0.1482
35089W        W48503  17.134   4.893   1.995  0.2896 -0.0863  0.2620
35090W        W48504  12.718  14.532   5.083 -0.0161 -0.0715  0.3691
35091W        W48505   4.358  15.091  16.124 -0.1284 -0.0015  0.6043
35092W        W48506   4.915   3.378  11.275  0.0685  0.1656 -0.1832
35093W        W48507   5.706  10.946   2.099  0.1354 -0.0630 -0.0857
35094W        W48508   6.417   6.197  13.547 -0.0354  0.0403 -0.0935
35095W        W48509   6.108   4.519   4.994  0.1140  0.0816  0.0938
35096W        W48510   5.260  18.068  15.377 -0.2241  0.0904  0.0976
35097W        W48511   6.963   6.787   5.484  0.0935  0.0059  0.1777
35098W        W48512  11.448  17.616   3.322  0.2030  0.1507  0.0991
35099W        W48513  12.855  12.667   3.516  0.3788 -0.0781 -0.2063
35100W        W48514   8.669  14.393   5.372  0.0699 -0.1359 -0.0582
35101W        W48515   9.435   7.274  11.239  0.2189  0.1109  0.4214
35102W        W48516  11.170   8.351   5.946 -0.0168  0.0566  0.2803
35103W        W48517  13.968   0.133  15.944  0.0020  0.1961  0.1754
35104W        W48518   5.272   6.203   0.914  0.0224  0.1351 -0.1592
35105W        W48519  11.447   9.424  11.849  0.1794 -0.1606  0.1744
35106W        W48520  10.122   8.527  11.367  0.2107  0.1995  0.0999
35107W        W48521   7.291   4.919  13.633  0.1440 -0.0223  0.0573
35108W        W48522   3.988   4.140  14.504 -0.0280 -0.0646  0.1990
35109W        W48523  14.165   2.633  13.474  0.4723  0.1214 -0.0712
35110W        W48524   7.897  10.492  14.138 -0.0028 -0.1083  0.0348
35111W        W48525   2.867   4.195  11.352 -0.2847  0.1787 -0.2947
35112W        W48526  18.117  14.864  13.579 -0.1334  0.1986  0.1173
35113W        W48527  10.244   8.645   4.447 -0.1440 -0.3603  0.2271
35114W        W48528   7.405   5.234  10.974 -0.3694 -0.1062  0.0418
35115W        W48529   0.168   1.526   1.503  0.4198  0.0265 -0.1232
35116W        W48530  15.362  15.025  13.686 -0.0542  0.0134 -0.2039
35117W        W48531   1.802  13.436  10.918 -0.0765 -0.1746 -0.2349
35118W        W48532   7.317   6.888  14.887  0.1049 -0.2284 -0.0925
35119W        W48533  11.660   2.935   2.373 -0.0214  0.0008 -0.0519
35120W        W48534  11.189   9.216  11.411  0.3822  0.0256 -0.1447
35121W        W48535  10.645  14.140  16.418  0.0034  0.1066  0.2632
35122W        W48536   3.464   1.203  11.534 -0.1565  0.2629  0.1267
35123W        W48537  10.707  11.332  15.622 -0.0263 -0.1294  0.1651
35124W        W48538  16.390  12.958   2.864  0.2675  0.1403 -0.2780
35125W        W48539   7.562   2.608  12.291  0.0523 -0.0273 -0.1656
35126W        W48540  10.429  14.214   0.956  0.3160 -0.1281 -0.2105
35127W        W48541   2.901  11.106   4.499  0.0567 -0.1358  0.0501
35128W        W48542   8.643   7.169  14.088  0.0896  0.0796  0.2418
35129W        W48543   1.844   8.789  15.370 -0.1577  0.1744 -0.5349
35130W        W48544   4.303  15.703   3.461 -0.2868 -0.0147 -0.2250
35131W        W48545  14.167  18.174   2.777 -0.1071 -0.1457 -0.1873
35132W        W48546   5.556   7.161  15.223  0.0637 -0.2766  0.0853
35133W        W48547  12.884  10.199  14.676 -0.3065 -0.0033 -0.2828
35134W        W48548  13.286  16.052   5.149  0.1907 -0.1217 -0.0872
35135W        W48549  14.015   8.758   2.077  0.0919  0.2481  0.0539
35136W        W48550   0.131   3.940  16.343 -0.1646 -0.0656 -0.1623
35137W        W48551  14.448  16.954   0.747  0.2019 -0.1384 -0.0221
35138W        W48552  13.012   5.490  14.828  0.1517 -0.0218  0.2142
35139W        W48553  17.253   5.940  15.406 -0.2349  0.2138  0.2698
35140W        W48554  17.112   7.684   4.912 -0.2246 -0.2188 -0.0179
35141W        W48555  13.937   5.967  14.228 -0.0936 -0.1304 -0.2826
35142W        W48556   6.956  14.452   1.763 -0.0405 -0.1616  0.0613
35143W        W48557  12.368  16.868  11.417  0.0967 -0.0658  0.1489
35144W        W48558   6.879   3.151   1.326 -0.1514  0.3423  0.0582
35145W        W48559  15.118  11.251  12.420  0.0123  0.0323  0.1124
35146W        W48560   2.492  17.662  15.945 -0.4187 -0.1224  0.1874
35147W        W48561  16.645  11.323  16.347 -0.2267 -0.0341  0.2112
35148W        W48562  12.869   4.587  13.848  0.4355 -0.1443  0.3465
35149W        W48563   8.082  12.760  12.682  0.2556  0.2651 -0.0270
35150W        W48564   0.285   6.683   0.498 -0.3903  0.1093  0.2527
35151W        W48565   6.441  10.295  11.880 -0.0199  0.2915 -0.0144
35152W        W48566  12.246   2.271  15.354 -0.2656  0.0774  0.0167
35153W        W48567  12.539   4.356  14.228  0.0018 -0.0662  0.1550
35154W        W48568   4.920  15.600  10.960  0.1043  0.1393 -0.3670
35155W        W48569  17.459  16.270   6.534  0.1201  0.2437  0.1571
35156W        W48570   0.964   8.259  15.294  0.1814  0.4786 -0.2657
35157W        W48571  13.752  17.675  14.916  0.1803  0.0863  0.0879
35158W        W48572   8.082   1.704   3.712  0.0452 -0.1127 -0.2671
35159W        W48573   8.450  11.783   2.721  0.1448 -0.0458 -0.2043
35160W        W48574  11.021   3.863   2.366  0.1316  0.0478 -0.0479
35161W        W48575  13.645   2.130   3.627  0.1545 -0.0236  0.0582
35162W        W48576  13.445   0.930  11.453 -0.0050 -0.1041  0.0417
35163W        W48577  12.589  15.118   0.521  0.2046  0.1079 -0.1184
35164W        W48578   3.544   6.229  15.426  0.1177  0.1831 -0.0769
35165W        W48579   4.977   8.749   3.872 -0.1672  0.1826  0.1913
35166W        W48580  15.746   9.645   6.208 -0.0346  0.2809 -0.2671
35167W        W48581   5.576  13.462   4.737 -0.2389  0.0794  0.1587
35168W        W48582  17.705   0.870   5.052 -0.2231  0.1548  0.1038
35169W        W48583  15.189   6.394  11.970 -0.2552  0.0760 -0.3474
35170W        W48584  15.463  10.598  14.843  0.0571  0.1528  0.2156
35171W        W48585  17.982  16.389  12.582  0.1134 -0.0807 -0.0597
35172W        W48586   7.185   9.249   0.258 -0.0217  0.0256  0.0445
35173W        W48587  10.970   8.557   5.515 -0.2815  0.2416  0.1477
35174W        W48588  15.047   1.564   4.587 -0.0706 -0.0516  0.1050
35175W        W48589   8.120   1.481  10.382 -0.1022  0.1477 -0.0659
35176W        W48590   1.843   7.173  16.252 -0.1866  0.0625  0.0401
35177W        W48591   2.658   1.636  15.604 -0.0870 -0.1068  0.0594
35178W        W48592   2.473   5.257   4.285 -0.0583  0.1987  0.0943
35179W        W48593  13.055  17.984  16.449  0.1418 -0.3645 -0.1063
35180W        W48594  14.767  14.256  15.880 -0.0223  0.1889 -0.0999
35181W        W48595  14.179   0.558  15.856 -0.2546  0.3248  0.1741
35182W        W48596  15.305   8.505   0.082  0.0881 -0.2744 -0.0347
35183W        W48597   7.520  17.813   4.596 -0.2729  0.0731 -0.3087
35184W        W48598   0.293   9.834   1.410  0.3058  0.0810 -0.1814
35185W        W48599   4.914   6.350   2.304  0.1858 -0.1433  0.1889
35186W        W48600  12.130   9.526  16.209  0.1095 -0.0264 -0.1347
35187W        W48601   7.982   9.434  11.164 -0.1218  0.0182 -0.0634
35188W        W48602  11.632   6.264  10.948  0.1076 -0.0965 -0.1208
35189W        W48603  11.189  11.514   4.543  0.1047  0.0690  0.1182
35190W        W48604  11.337  16.871   5.640  0.1348  0.2042  0.1512
35191W        W48605   9.612   7.401   3.251 -0.1343  0.1530  0.0696
35192W        W48606  12.582   9.741  15.681  0.0590  0.2351 -0.2005
35193W        W48607   0.093   1.956  15.843 -0.2026 -0.0823  0.1357
35194W        W48608  17.391  18.063  14.232 -0.0944 -0.0184  0.1914
35195W        W48609   1.598   2.037   1.363  0.1419 -0.2810 -0.1126
35196W        W48610   7.502   0.498   2.246  0.2287  0.0970 -0.0787
35197W        W48611  10.871  16.022  12.088 -0.0921 -0.2389  0.0366
35198W        W48612  15.970   6.393  11.020 -0.4568 -0.1129  0.1629
35199W        W48613   4.928  16.658   0.825  0.0003  0.2523  0.0341
35200W        W48614   3.936   9.715   4.978  0.5680  0.2733 -0.2133
35201W        W48615   1.178   4.390   0.410  0.0600 -0.3513  0.0491
35202W        W48616   1.950  10.104   5.814 -0.3476 -0.1792 -0.1478
35203W        W48617   8.005   9.409  10.351  0.1998  0.2860  0.1295
35204W        W48618   6.854   8.082   0.009 -0.1800  0.1114  0.2058
35205W        W48619  16.265  13.854   5.310 -0.0558 -0.0447  0.0817
35206W        W48620   6.275  14.427   0.238  0.0415 -0.1300  0.0984
35207W        W48621   9.945  13.193  12.664  0.2108  0.0787  0.0218
35208W        W48622   4.622  16.727   4.577 -0.0617  0.4695 -0.1215
35209W        W48623   4.349  14.407  13.210 -0.2090 -0.0655 -0.0777
35210W        W48624  15.881   5.005  12.986 -0.0764  0.2733  0.0140
35211W        W48625   3.935   0.186  13.644  0.0671 -0.0424 -0.1875
35212W        W48626  11.738  16.243  16.311  0.1303 -0.3676  0.0140
35213W        W48627   8.112   0.227  12.808  0.0023 -0.1606  0.2162
35214W        W48628  10.673   0.295   2.446 -0.1930 -0.0554 -0.1855
35215W        W48629   8.884   9.658   2.671 -0.2171  0.0795  0.2987
35216W        W48630   7.525   7.930   5.650  0.1095 -0.2000  0.1345
35217W        W48631   4.439   3.642   2.745 -0.1585  0.0071 -0.1628
35218W        W48632  14.348   2.086   4.726 -0.2112  0.1288 -0.0051
35219W        W48633  10.252  13.286   3.334 -0.3216 -0.1380 -0.0702
35220W        W48634  17.404   4.713  15.390  0.0645  0.1027 -0.1402
35221W        W48635  14.900   4.836   2.105  0.0813  0.1918 -0.0402
35222W        W48636  13.573   3.357  16.367  0.2762  0.0324  0.2069
35223W        W48637  11.063  13.417  10.583 -0.0917  0.1671 -0.1321
35224W        W48638  15.159   5.160   0.003 -0.0342 -0.2322 -0.2340
35225W        W48639  16.769   7.516   5.312 -0.0750 -0.0398 -0.2409
35226W        W48640  14.947   1.036   5.435 -0.1978 -0.0409  0.1442
35227W        W48641  11.640   6.084  13.391 -0.0226  0.0050 -0.5589
35228W        W48642   4.667  11.442   5.576  0.0995 -0.2306 -0.4714
35229W        W48643   4.519  12.385  14.313 -0.2967 -0.0570  0.1144
35230W        W48644  10.053   3.972  12.690  0.2371 -0.0900  0.0826
35231W        W48645   3.646  12.974   2.499  0.1931 -0.0153 -0.1646
35232W        W48646   4.691  15.647  10.512 -0.3941 -0.0558  0.2479
35233W        W48647  15.189  14.515  14.697 -0.2371  0.0522 -0.0199
35234W        W48648  15.822   3.637   1.988  0.3033 -0.1487  0.2320
35235W        W48649  17.261  15.879   2.932 -0.0322  0.3531  0.1792
35236W        W48650   3.557  15.606  16.170  0.1038  0.1162 -0.2023
35237W        W48651   9.620   3.222  12.367 -0.0983  0.2114  0.0215
35238W        W48652  11.348  16.192  14.825  0.0475  0.0693  0.1483
35239W        W48653  12.881  15.225  16.051 -0.0668  0.1652 -0.0815
35240W        W48654   7.329   8.623   2.612 -0.0426  0.0913 -0.0191
35241W        W48655   6.679  12.431   2.075  0.0941  0.1102  0.0025
35242W        W48656   9.629   9.478  12.497  0.1719  0.2350  0.1615
35243W        W48657  17.035   3.832  11.153 -0.0523  0.0529 -0.2452
35244W        W48658  16.779  10.144  14.987  0.1496  0.2097  0.0664
35245W        W48659  15.857  14.128  13.612 -0.0180  0.0396  0.0466
35246W        W48660  18.056  17.857   5.329  0.2974 -0.3263  0.0666
35247W        W48661  15.260   1.836  12.002  0.0760 -0.1237  0.0989
35248W        W48662  16.154   0.478  12.682  0.2951 -0.0077 -0.3031
35249W        W48663  12.873  13.516  11.869  0.0553  0.0378 -0.0667
35250W        W48664  16.043   0.189  11.608  0.2063  0.0329  0.2347
35251W        W48665   3.426   2.830   1.486 -0.1220  0.1726  0.1968
35252W        W48666  14.060   2.797  10.459  0.3956  0.1433  0.0849
35253W        W48667   2.480   5.229   6.816  0.0630 -0.0238 -0.1131
35254W        W48668   2.601  10.118   3.091  0.2105  0.2878 -0.0013
35255W        W48669   2.303   0.491  13.152  0.2414  0.0960 -0.2537
35256W        W48670  13.242   1.831   0.914  0.1138 -0.0872  0.2463
35257W        W48671   4.929   8.919  16.013 -0.1181 -0.0846 -0.3897
35258W        W48672  17.635   2.097  13.612 -0.1312  0.0839  0.1231
35259W        W48673   9.100  17.456   4.709  0.0479  0.1180 -0.1171
35260W        W48674  11.510   1.467  12.678  0.0313  0.0416  0.0038
35261W        W48675  12.575   5.987   1.862 -0.1261  0.0925 -0.2032
35262W        W48676   7.535  16.015   1.282 -0.0537  0.0740  0.0035
35263W        W48677  12.911   1.851   1.266 -0.0341  0.0075  0.0649
35264W        W48678   6.997   3.001  13.530 -0.4067 -0.1751  0.2054
35265W        W48679  10.983   5.620   2.308 -0.3550  0.1726 -0.2042
35266W        W48680   7.818   5.171   2.138 -0.0251  0.3407 -0.1586
35267W        W48681   3.131   9.890   1.577  0.0877  0.3001  0.1860
35268W        W48682  14.312   8.729   5.354  0.1630  0.2320  0.1613
35269W        W48683  13.883  13.567  14.214 -0.2048  0.0486 -0.1559
35270W        W48684   1.199   5.965   5.318 -0.3691  0.1901  0.0033
35271W        W48685   1.952  14.939  16.206  0.2743 -0.1652  0.0450
35272W        W48686  16.571  13.515   4.347  0.2795  0.0913  0.0651
35273W        W48687  16.732  12.393   2.578  0.0478  0.4505 -0.3105
35274W        W48688   5.045  17.235  13.774  0.0345  0.0964  0.0669
35275W        W48689  13.599   2.716  13.419  0.0958 -0.0223  0.1019
35276W        W48690  11.632   4.552   0.784  0.0099 -0.1581  0.1917
35277W        W48691   6.250  16.499  16.375 -0.1584 -0.2741  0.1969
35278W        W48692   6.800  16.013   0.253 -0.0605 -0.1306 -0.1947
35279W        W48693  13.500   0.829  15.389 -0.2049  0.1701  0.1373
35280W        W48694  17.672   7.144  13.188 -0.2827  0.0413 -0.1293
35281W        W48695   6.146   6.944   1.793  0.0888  0.1050  0.1683
35282W        W48696  11.443   1.528   2.975  0.0909  0.1209 -0.4287
35283W        W48697  13.399   9.175  15.852  0.0043 -0.1404 -0.0675
35284W        W48698  14.454   7.091   2.116 -0.1926 -0.0725 -0.0521
35285W        W48699   5.756   0.829   4.207  0.0778  0.2380  0.2370
35286W        W48700   1.010   1.544   5.565  0.0047 -0.0133 -0.0297
35287W        W48701   2.929  14.217  11.985  0.1313  0.4081  0.2173
35288W        W48702  10.836   9.260  15.172  0.0153 -0.0697 -0.1763
35289W        W48703  10.619   1.448   4.935 -0.0059  0.0727 -0.2761
35290W        W48704   2.945   1.701   9.874 -0.1461  0.0120  0.0417
35291W        W48705  12.265   4.717   1.501  0.0031 -0.1511  0.0125
35292W        W48706  12.504   4.421   3.409 -0.2861  0.2402  0.1335
35293W        W48707  12.766  15.983  16.477 -0.0293 -0.0708  0.1797
35294W        W48708  17.711   7.716   0.468  0.1295 -0.2664 -0.1874
35295W        W48709  17.170  11.511  15.204 -0.1277  0.3743 -0.1310
35296W        W48710  14.951   8.043   2.134  0.1462  0.3405 -0.2021
35297W        W48711  15.861   8.130  12.117 -0.1246  0.1378  0.0125
35298W        W48712   2.997   9.520  16.231  0.1568  0.0578  0.0918
35299W        W48713  10.715  13.214  16.274 -0.0638 -0.2831 -0.3230
35300W        W48714  15.603  10.377   5.307  0.0583 -0.2295 -0.1076
35301W        W48715   8.664  11.741   1.806  0.0506 -0.0344  0.1361
35302W        W48716  10.411   8.262   0.255 -0.0139  0.0310  0.5309
35303W        W48717   1.086  17.874   4.612  0.4181 -0.1338  0.0012
35304W        W48718   6.356   7.450   6.420  0.0088 -0.3099  0.2328
35305W        W48719  18.163  13.874  13.699  0.0352  0.1696 -0.0953
35306W        W48720  13.005  17.120   3.792  0.2476 -0.2488 -0.2923
35307W        W48721  17.267   5.791   5.635 -0.0272 -0.1648 -0.1444
35308W        W48722   9.894   9.255  14.075 -0.1366 -0.0379  0.2610
35309W        W48723   1.995  13.098  12.519 -0.0307 -0.1974  0.2157
35310W        W48724   1.194   3.275   0.210 -0.1561  0.1282  0.1100
35311W        W48725   8.248   0.376  15.075 -0.1857 -0.2861 -0.0761
35312W        W48726  12.984  12.487  15.685 -0.2533 -0.0590 -0.0353
35313W        W48727   6.746   9.024   4.894 -0.0179 -0.2466 -0.1923
35314W        W48728  15.901   4.205   0.845 -0.1897  0.2964 -0.5241
35315W        W48729   8.113   8.477  14.264  0.0187  0.1412  0.2343
35316W        W48730  13.494   1.737  10.640  0.1606 -0.0707 -0.0875
35317W        W48731  17.538  10.219   4.249 -0.2076 -0.0536  0.1233
35318W        W48732   1.744  17.491   1.005  0.1141  0.0013 -0.2889
35319W        W48733   4.321  10.297   0.014  0.3147 -0.2132 -0.0747
35320W        W48734   2.638   0.078  11.818 -0.0564  0.3612 -0.1004
35321W        W48735   6.462   1.277  14.624  0.0661 -0.2059 -0.2602
35322W        W48736   9.128  11.798  15.718 -0.2479  0.0496  0.0639
35323W        W48737   7.978   6.816  10.317 -0.4153 -0.0803 -0.0551
35324W        W48738  12.435   1.152   5.200 -0.0103 -0.0213  0.0755
35325W        W48739  11.686   4.850   0.303 -0.0379  0.1185  0.1247
35326W        W48740  16.638  17.854   0.727 -0.1592  0.0411  0.1556
35327W        W48741  10.993  13.759  14.981 -0.0290  0.0097  0.0698
35328W        W48742  18.079   3.697  15.869  0.3185  0.0454 -0.1451
35329W        W48743   5.290   5.551   2.446 -0.1948 -0.3868  0.3025
35330W        W48744   3.533   5.108   1.052 -0.2292 -0.1236 -0.2224
35331W        W48745   8.721  11.871  15.212  0.0691 -0.1993  0.0239
35332W        W48746   8.634   4.832   2.792 -0.3922 -0.0518 -0.1635
35333W        W48747  11.227  12.042   3.918  0.0093  0.2517 -0.1095
35334W        W48748   7.754   0.190  14.152  0.4385 -0.0173  0.0090
35335W        W48749   8.405  12.877  13.294 -0.0434 -0.1310  0.0712
35336W        W48750  15.119   5.304  14.564 -0.1524 -0.1008  0.0361
35337W        W48751  11.054   9.503  15.570  0.1817 -0.2931 -0.0396
35338W        W48752  16.436  17.848   1.178 -0.3207 -0.0739 -0.4817
35339W        W48753  10.776  14.912   4.142 -0.1474  0.0397 -0.0574
35340W        W48754   1.637   7.403   0.632 -0.2722  0.2670 -0.5597
35341W        W48755   4.426  14.613   2.805  0.1151 -0.1906 -0.1131
35342W        W48756  15.367   8.355   2.227 -0.0286 -0.1067  0.0985
35343W        W48757   4.803   2.348  11.409  0.0754 -0.0592 -0.0307
35344W        W48758  13.149  12.962  15.807  0.0368 -0.1794 -0.0755
35345W        W48759   7.931   6.859  15.042 -0.0332  0.0730  0.2163
35346W        W48760   8.058   2.261   3.662 -0.0773  0.1044 -0.1211
35347W        W48761  14.375   4.639   2.147 -0.0444 -0.1941  0.1536
35348W        W48762   5.584  17.769   2.388  0.1489 -0.1689 -0.1977
35349W        W48763  11.137   1.350   5.042 -0.4305  0.2562 -0.2633
35350W        W48764  10.726   7.841  13.589 -0.0137  0.0860  0.0304
35351W        W48765  10.282  15.739  15.986 -0.5134 -0.1932  0.0158
35352W        W48766  10.091  10.529   4.280  0.0406  0.1875 -0.0087
35353W        W48767  11.476   0.561  11.881  0.2182  0.2295  0.0271
35354W        W48768  12.540   4.782  10.397 -0.1955  0.2283  0.1293
35355W        W48769   4.270  15.595  14.419 -0.0166  0.2992 -0.3882
35356W        W48770  12.816   0.565   1.131 -0.0702 -0.1639 -0.0254
35357W        W48771  10.643  11.132   0.753 -0.3787 -0.0825  0.0152
35358W        W48772   8.662  14.911   5.884 -0.1938 -0.0502 -0.2932
35359W        W48773  16.016  15.235   4.883  0.0412  0.1333 -0.0604
35360W        W48774  16.216   5.171   3.942  0.3926 -0.0336  0.2541
35361W        W48775   4.535   6.436   3.477  0.1672  0.4448 -0.1042
35362W        W48776   1.678   6.003   6.703 -0.0734 -0.2432 -0.1605
35363W        W48777  10.588   8.771   5.169 -0.1317 -0.0080  0.1521
35364W        W48778   2.906  13.769   4.553  0.0117  0.1871  0.0492
35365W        W48779  10.743  16.817  12.427  0.1310  0.0832  0.0674
35366W        W48780   4.525  14.588  15.832 -0.0552  0.1235 -0.0797
35367W        W48781  12.744  12.759  14.000  0.3710 -0.0008  0.2731
35368W        W48782   8.686   5.968   2.500 -0.0031 -0.0420  0.0979
35369W        W48783  12.946  16.821  15.152  0.1909  0.1975 -0.2940
35370W        W48784  14.220  16.903   0.339  0.0370  0.0114  0.0109
35371W        W48785  16.981  16.106  15.499  0.0157 -0.0128 -0.3174
35372W        W48786   0.148   8.065  12.007  0.0016 -0.1674  0.0507
35373W        W48787  15.902  15.032  15.664  0.0748  0.0799  0.0577
35374W        W48788   7.574  16.470  11.316  0.0270 -0.1712  0.2531
35375W        W48789   7.627  16.021  14.473  0.0328  0.4035 -0.0478
35376W        W48790   1.428  12.650  13.894 -0.1456 -0.0091  0.0512
35377W        W48791   0.796   3.954   3.904 -0.1540  0.2069  0.0200
35378W        W48792  12.147  10.337  15.189  0.1534  0.1396  0.0253
35379W        W48793   9.212  14.702  10.486  0.0020 -0.0444  0.2415
35380W        W48794   8.772  14.581  16.331 -0.0173 -0.0280 -0.1927
35381W        W48795   9.902  13.929  12.170 -0.0599 -0.0727  0.1357
35382W        W48796  10.292   8.250  14.891 -0.2775 -0.0264 -0.1040
35383W        W48797  13.782   7.980   6.286  0.1186 -0.0624  0.2737
35384W        W48798  11.045   1.755  16.369  0.2452 -0.3648  0.1639
35385W        W48799  13.844   4.552  12.553  0.2689 -0.2560  0.2400
35386W        W48800   7.597   1.470   4.589  0.1168 -0.3268  0.0788
35387W        W48801  17.597  16.281  11.038  0.1951  0.0359  0.5128
35388W        W48802   7.138   8.693   5.235  0.1570 -0.1374  0.0354
35389W        W48803   7.091   2.047   3.231  0.0912  0.2567 -0.2122
35390W        W48804  18.108  16.653   2.847 -0.2548  0.0584  0.2767
35391W        W48805  11.605   1.499  14.400  0.3605 -0.2509  0.1107
35392W        W48806   3.889   7.841  12.629 -0.1142 -0.2772 -0.1053
35393W        W48807  11.818   4.885  10.975  0.2051 -0.1608 -0.1292
35394W        W48808   5.884  13.926  10.802  0.3982  0.1832 -0.1579
35395W        W48809  12.296   7.841   3.345 -0.2186 -0.1385  0.1517
35396W        W48810   1.660   7.162   1.066  0.0706 -0.2969  0.0484
35397W        W48811   3.052   4.539  12.226 -0.0776 -0.1030  0.4687
35398W        W48812  11.768   1.786  13.660 -0.0054  0.1599  0.1625
35399W        W48813  13.253  13.805  12.606  0.0459  0.0375 -0.1137
35400W        W48814  14.815   1.707  15.966 -0.2762  0.3627 -0.0880
35401W        W48815  16.941  17.792  15.544  0.0033  0.1106  0.0158
35402W        W48816  16.080   8.750   0.555  0.1223  0.0192 -0.0717
35403W        W48817   6.245  10.083  14.525  0.0143  0.0442  0.1470
35404W        W48818   7.679  17.471  12.088 -0.0905  0.0444 -0.2246
35405W        W48819   6.325  14.359   3.072 -0.2086  0.1562 -0.2326
35406W        W48820  17.205  17.244   0.257 -0.1186 -0.2441  0.1156
35407W        W48821  16.181  18.090  13.509 -0.0903 -0.0099 -0.3570
35408W        W48822  13.283  15.898   5.681  0.2457 -0.0287  0.0847
35409W        W48823  15.229  14.257  15.756  0.1006  0.0731 -0.0849
35410W        W48824  13.942   8.765   4.827 -0.0874 -0.0795 -0.1632
35411W        W48825  11.858   3.033  11.371  0.1211  0.0739  0.3351
35412W        W48826   1.652   0.360   1.496  0.0102 -0.0205 -0.0325
35413W        W48827  12.321   5.630  11.985 -0.2549  0.1944  0.0414
35414W        W48828  11.944  10.654   4.859  0.3948  0.2235  0.0642
35415W        W48829   8.600  11.122  14.098 -0.0674  0.4001  0.0914
35416W        W48830   2.895   2.394   0.854 -0.2891 -0.0126 -0.0856
35417W        W48831   6.683   4.626  12.859  0.0644 -0.2439  0.1898
35418W        W48832  10.037  15.834  10.887 -0.1076  0.5621  0.2180
35419W        W48833   2.376  13.836   9.720 -0.1387  0.1715  0.1112
35420W        W48834   6.751   8.642  15.810  0.1687  0.2852 -0.2146
35421W        W48835  13.594   9.594   1.600 -0.1425 -0.1282  0.0515
35422W        W48836   2.479   0.505   1.717  0.1093 -0.1277 -0.0640
35423W        W48837   0.461   4.270   1.545  0.2965 -0.0246  0.2783
35424W        W48838  16.979  13.478  16.402 -0.0253 -0.4116 -0.0603
35425W        W48839  16.723   3.849  14.141 -0.0395  0.0451  0.2112
35426W        W48840   2.929  15.851   1.763 -0.0501  0.1849  0.0355
35427W        W48841  15.135  10.588   1.459  0.1076  0.0136  0.2930
35428W        W48842  12.099  10.327  14.264 -0.1101  0.0554  0.0634
35429ION     NA48843   0.624  10.706  13.994 -0.3770 -0.0270  0.2047
35430ION     NA48844   6.147   8.495  10.474  0.0877 -0.0807  0.0513
35431ION     NA48845  15.119   6.138  11.517  0.2244 -0.0854 -0.0841
35432ION     NA48846  10.821   8.762  15.404  0.0795 -0.3248 -0.1034
35433ION     NA48847   7.056  16.197   5.232  0.1102  0.2055  0.0041
35434ION     NA48848  17.670   6.764  14.698 -0.0847  0.0773 -0.0032
35435ION     NA48849   6.189   5.181   4.806  0.3424  0.1164 -0.1287
35436ION     NA48850   7.774   5.152  14.161  0.0732 -0.3159  0.0270
35437ION     NA48851   5.219   4.580   6.264 -0.1282  0.0886  0.0634
35438ION     NA48852   9.661  14.489   9.942 -0.0933  0.1980 -0.2172
35439ION     NA48853  16.213   2.432  10.389 -0.0785  0.0395 -0.1897
35440ION     NA48854   4.889   6.847  11.429  0.0551  0.0146  0.1255
35441ION     NA48855   5.181   2.301  15.488 -0.2426  0.0200 -0.0794
35442ION     NA48856  10.784  13.352  15.298  0.0397 -0.1497  0.3906
35443ION     NA48857   9.096  10.872  14.044  0.0793  0.0417 -0.1800
35444ION     NA48858  14.643   9.871  10.785  0.0699  0.1832 -0.1589
35445ION     NA48859  11.957   5.526  10.219 -0.0811 -0.1173 -0.2800
35446ION     NA48860  13.367  16.878   1.960 -0.1001  0.0217 -0.0387
35447ION     NA48861  16.326  11.372   3.722 -0.1479 -0.1246 -0.1724
35448ION     NA48862  17.239   1.967  10.383  0.0178  0.1159  0.2235
35449ION     NA48863   5.913   7.662   6.633  0.0905 -0.1105  0.0774
35450ION     NA48864  12.964  10.042   4.661  0.0067  0.4476 -0.0448
35451ION     NA48865  14.202  15.545  13.412  0.1825  0.1236 -0.1718
35452ION     NA48866  10.767   3.253  10.002 -0.0312 -0.1347  0.0667
35453ION     NA48867   4.605   9.166  15.773 -0.1336  0.1706  0.1232
35454ION     NA48868   9.628  13.659  10.437  0.2046 -0.0483  0.1441
35455ION     NA48869   5.824  16.764  10.710  0.1651 -0.1530 -0.1689
35456ION     NA48870  10.050   2.412   3.370 -0.1001  0.1925 -0.0488
35457ION     NA48871   6.917   0.907  14.997  0.1756  0.2342 -0.2387
35458ION     NA48872  13.097  17.021   9.612 -0.1648  0.1355  0.0519
35459ION     NA48873   6.166  14.494   9.894  0.1802 -0.2788 -0.3142
35460ION     NA48874  11.603  16.317  15.805  0.1816  0.3117 -0.1922
35461ION     NA48875  11.857   6.045   5.946  0.1683 -0.0921  0.0576
35462ION     NA48876   6.032   4.822  15.737  0.2615 -0.1234 -0.0501
35463ION     NA48877  18.189   9.228  12.224  0.1778  0.0706  0.2755
35464ION     NA48878  16.875   9.357  10.523  0.1736  0.3329  0.0372
35465ION     NA48879   3.119   2.365  10.471  0.0328 -0.0860  0.1021
35466ION     NA48880   3.949  16.631  16.412 -0.0233  0.1728 -0.0741
35467ION     NA48881   3.500   7.663  14.306 -0.0316 -0.0049  0.0783
35468ION     NA48882  16.618  17.079  10.196 -0.1213  0.1754  0.1387
35469ION     NA48883  14.986  12.913  13.605  0.4151 -0.0530  0.0378
35470ION     NA48884  10.748  10.312  15.395  0.2206 -0.4518  0.1662
35471ION     NA48885  14.617   9.041   6.612 -0.0666 -0.0355 -0.0965
35472ION     NA48886  15.064   2.419   1.569  0.3477 -0.1197  0.0972
35473ION     NA48887   4.521  10.867   6.680  0.0535 -0.0621 -0.1295
35474ION     NA48888  10.818   4.882  15.855 -0.2490  0.1265  0.0974
35475ION     NA48889  11.658  10.080   6.740  0.2009  0.0672 -0.0123
35476ION     NA48890  15.318  10.099   6.691 -0.0153  0.0897  0.0430
35477ION     NA48891   3.114   7.691   0.166  0.2692 -0.4151 -0.1413
35478ION     NA48892   5.727  10.202   1.643  0.0515  0.1285  0.1854
35479ION     NA48893  16.059   7.759   4.907 -0.0341 -0.0028 -0.0296
35480ION     NA48894   4.558   9.980   2.850 -0.0493  0.0455 -0.2066
35481ION     NA48895  13.456  17.710  15.345  0.0874 -0.1119 -0.3551
35482ION     NA48896  11.335   1.498  11.057  0.1284 -0.2782 -0.2765
35483ION     NA48897  17.610  13.057  12.584 -0.3120  0.3455  0.2195
35484ION     NA48898  17.347   2.903  13.711 -0.2060  0.4708 -0.2573
35485ION     NA48899   4.831   4.277  10.860  0.1913 -0.0304  0.1626
35486ION     NA48900   3.605   5.674   1.758  0.1177  0.1489  0.1052
35487ION     NA48901  12.260  10.022  13.498  0.0282 -0.0664 -0.1444
35488ION     NA48902  13.512   6.483  10.831 -0.1936  0.1640 -0.2338
35489ION     NA48903   5.427  15.717   5.834 -0.1031 -0.1490 -0.2514
35490ION     NA48904   1.590   7.461  11.846  0.0604 -0.1595 -0.0324
35491ION     NA48905  12.559   4.504  15.526  0.1245 -0.0590 -0.1255
35492ION     NA48906   9.885   8.416   3.822  0.3779 -0.0318  0.1204
35493ION     NA48907  11.374   1.417   0.084 -0.1470  0.3509  0.1546
35494ION     NA48908  17.803  10.748   3.082  0.2057  0.1923  0.1410
35495ION     NA48909  17.002   6.867   6.172  0.1827  0.0120 -0.1276
35496ION     NA48910   7.870   5.049  10.130 -0.1999 -0.2815  0.0703
35497ION     NA48911  12.506  10.245   4.074 -0.2504  0.2768 -0.1286
35498ION     NA48912  14.466  14.735  12.733 -0.0195  0.1834 -0.0736
35499ION     NA48913  16.804  11.393   2.471  0.0437 -0.0581  0.0809
35500ION     NA48914  17.302   9.226  11.641 -0.1023  0.0987  0.1784
35501ION     NA48915   9.231   7.510  10.330  0.2904  0.0421  0.4529
35502ION     NA48916  11.253  10.712   0.202 -0.0788 -0.4638  0.1606
35503ION     NA48917  17.266  11.430   1.625  0.2525  0.0290 -0.0402
35504ION     NA48918   9.901  14.213   0.938 -0.0621 -0.0796 -0.0117
35505ION     NA48919  10.843   6.265  16.072 -0.2753  0.0281  0.0777
35506ION     NA48920   3.364   8.947   2.057  0.0391 -0.0639  0.1660
35507ION     NA48921  12.159   9.768  12.595 -0.2080 -0.1640  0.2584
35508ION     NA48922  15.448  12.142   6.113  0.0899 -0.1451  0.3865
35509ION     NA48923  10.377   3.144   5.049 -0.1092  0.1070  0.0734
35510ION     NA48924   6.586   8.677   5.221  0.1152 -0.2235  0.0288
35511ION     NA48925  17.614  16.518  12.074 -0.3113  0.1687  0.0468
35512ION     NA48926   8.314   2.438  12.814  0.2316 -0.0941 -0.0387
35513ION     NA48927   5.401  12.204   5.765 -0.2967 -0.2024 -0.3143
35514ION     NA48928   2.979  17.845   2.282 -0.1116 -0.2063 -0.3182
35515ION     NA48929  11.575   0.947   5.231  0.1021  0.2027  0.0332
35516ION     NA48930   2.875   6.584   7.068  0.1914  0.1559 -0.1453
35517ION     NA48931   3.015   8.001  10.523  0.2076 -0.2905 -0.2467
35518ION     NA48932   8.758   5.098   9.997 -0.1451 -0.0969 -0.0637
35519ION     NA48933   4.809  14.874  10.329 -0.0181 -0.1089 -0.0370
35520ION     NA48934  11.920  16.393  13.071  0.0120 -0.1940 -0.4872
35521ION     NA48935   7.503   2.202   3.656 -0.0443  0.3007  0.0381
35522ION     NA48936   4.829   9.677  10.596  0.0006  0.3502 -0.1484
35523ION     NA48937   3.333   4.444   6.218  0.0276 -0.4196  0.4680
35524ION     NA48938   6.079  11.675   3.208 -0.3388  0.4186  0.1150
35525ION     NA48939   7.558  16.525   3.598  0.3969  0.1160  0.1127
35526ION     NA48940  11.895  12.006   4.291 -0.0527 -0.0977  0.0630
35527ION     NA48941  17.907   7.768  10.487 -0.2532  0.1785 -0.3604
35528ION     NA48942   0.974   5.259  10.526  0.0191  0.1052 -0.0016
35529ION     NA48943   0.140  10.401   4.598 -0.2380  0.2268  0.2146
35530ION     NA48944  18.102   9.868  12.924  0.1953 -0.0242 -0.1161
35531ION     NA48945   9.346  10.810   5.003 -0.0674 -0.0352 -0.0555
35532ION     NA48946   6.126   7.222   2.233 -0.1083  0.1046  0.0512
35533ION     NA48947  16.655   6.129   6.293  0.3101 -0.2451  0.1226
35534ION     NA48948  11.350  18.053   3.679 -0.4117  0.2348  0.2006
35535ION     NA48949   1.727  10.153  10.991  0.3473  0.0090 -0.2641
35536ION     NA48950   7.280  15.070   4.760 -0.0419  0.1820 -0.0239
35537ION     NA48951   0.408   2.082  12.154 -0.0791  0.6102 -0.2937
35538ION     NA48952   1.596   6.765   0.123 -0.0521  0.0909 -0.2077
35539ION     NA48953   2.020   2.623   6.434 -0.3298 -0.1097  0.3275
35540ION     NA48954   3.087   3.147   2.276  0.1980 -0.3178  0.1698
35541ION     NA48955  10.436   7.869   5.167 -0.2602  0.0053 -0.0658
35542ION     NA48956   0.659  14.433  10.312 -0.1346 -0.0904 -0.0479
35543ION     NA48957  15.557  10.838   5.097 -0.0806  0.2043 -0.1057
35544ION     NA48958  13.267   2.335   1.059  0.1395 -0.0924 -0.1258
35545ION     NA48959  17.465   6.672   1.785 -0.2763 -0.2028 -0.0329
35546ION     NA48960  10.931   6.174   2.398  0.1923  0.0564  0.0031
35547ION     NA48961   1.247   0.851   4.512 -0.2536 -0.0776  0.0745
35548ION     NA48962   5.230   8.897  11.589  0.1953  0.2335 -0.2340
35549ION     NA48963  15.664   6.076   6.268  0.0091  0.1231  0.1738
35550ION     NA48964   9.694   5.876  16.397  0.1905 -0.1872 -0.2853
35551ION     NA48965  11.153  10.723   6.622 -0.1694  0.1720  0.2204
35552ION     NA48966   9.714  16.201  13.910 -0.2092  0.2398  0.2464
35553ION     NA48967  17.578   7.361  10.396 -0.0861 -0.0747 -0.1730
35554ION     NA48968   9.271  15.045   1.862 -0.4727 -0.1028  0.0249
35555ION     NA48969  17.329   3.286   6.432  0.3987  0.3110 -0.0599
35556ION     NA48970   2.496  14.007   4.930 -0.0696  0.0461  0.0223
35557ION     NA48971  14.729  11.182  15.724  0.1560  0.0436 -0.0428
35558ION     NA48972  10.044  11.837   5.623  0.0137 -0.0698 -0.2138
35559ION     NA48973  10.901  12.925  10.528 -0.2158  0.0742 -0.1391
35560ION     NA48974  14.460   2.808  10.172 -0.1657  0.2704  0.2682
35561ION     NA48975   7.831   2.202   5.504  0.2021 -0.3111 -0.4097
35562ION     NA48976  11.496   6.834  12.997  0.0678 -0.2630 -0.3011
35563ION     NA48977  16.146   3.137   4.090 -0.1194  0.0942 -0.1378
35564ION     NA48978   3.496  17.745   0.399  0.1153 -0.1764  0.2168
35565ION     NA48979  15.284  15.657   3.966 -0.0404  0.1636  0.1381
35566ION     NA48980   9.500   5.475  10.151 -0.3580  0.0075 -0.0482
35567ION     NA48981  14.111  10.795  10.510  0.0899  0.0333  0.2099
35568ION     NA48982   9.126   7.538   0.699  0.2252 -0.0025  0.4663
35569ION     NA48983   0.569  13.117  10.352  0.4552 -0.4420  0.1279
35570ION     NA48984   5.451  16.480   2.363  0.1137  0.0733 -0.1709
35571ION     NA48985   9.280  14.017  16.503 -0.0314  0.1042  0.2079
35572ION     NA48986  11.420   7.019   6.380 -0.0134 -0.0797  0.2600
35573ION     NA48987  14.980   1.330   0.210 -0.0457  0.0289 -0.4547
35574ION     NA48988  15.942   8.326  11.691 -0.3651  0.0066 -0.1057
35575ION     NA48989   0.205  17.627  10.595  0.1077  0.0555 -0.0889
35576ION     NA48990   9.751   6.724   6.306  0.3067  0.3298  0.1306
35577ION     NA48991   2.993   8.035   6.598  0.2415  0.3677 -0.1766
35578ION     NA48992  11.440  12.373  14.845  0.4635 -0.0696  0.2324
35579ION     NA48993   9.001  14.016  11.656  0.0393  0.1149  0.2243
35580ION     NA48994   0.373   8.393  10.769  0.1353 -0.1369 -0.0490
35581ION     NA48995  11.318   4.785   5.772  0.0569  0.1479 -0.1499
35582ION     NA48996  16.843  10.449  10.498 -0.0106  0.0539  0.1368
35583ION     NA48997  11.986   0.769   9.913  0.1369  0.3574 -0.1187
35584ION     NA48998   2.788  13.976  11.518  0.1041  0.1242 -0.0432
35585ION     NA48999   7.774   1.060   0.837  0.1405  0.3256  0.1424
35586ION     NA49000   1.727   3.617  11.606  0.3560  0.1663 -0.0049
35587ION     NA49001  10.172   2.573   1.635 -0.1968  0.0039 -0.1453
35588ION     NA49002   6.511  13.770  10.290 -0.4433 -0.0646 -0.0817
35589ION     NA49003  11.189   5.531   4.593  0.0253  0.0202  0.1934
35590ION     NA49004   1.806   7.996   3.017  0.0533  0.1261 -0.2765
35591ION     NA49005  17.728  17.882  15.051 -0.0135  0.0470  0.1052
35592ION     NA49006  13.689  13.702   6.180  0.2809 -0.0991  0.0949
35593ION     NA49007  12.228   1.898  12.207 -0.1061  0.3236  0.2257
35594ION     NA49008   6.312  14.982  14.292 -0.0316  0.1338 -0.3075
35595ION     NA49009  15.269  14.149  10.049  0.0307  0.0865  0.3196
35596ION     NA49010   1.262   7.391  10.970  0.1043 -0.2509 -0.0501
35597ION     NA49011  12.075  15.583  14.648 -0.1126  0.1172 -0.3433
35598ION     NA49012   8.464   1.163  11.610 -0.1318  0.0369 -0.1738
35599ION     NA49013  13.268   5.250  10.469 -0.3301  0.6168  0.1539
35600ION     NA49014   5.994   1.970  11.416 -0.1699 -0.3637 -0.1802
35601ION     NA49015  10.272  13.038   3.807  0.1734 -0.2823  0.2733
35602ION     NA49016  13.550  11.779   6.319  0.4276 -0.0898 -0.0736
35603ION     NA49017   8.021   7.042   6.400  0.0109  0.1852 -0.0121
35604ION     NA49018  17.814   0.662  14.927  0.0139 -0.1725 -0.0658
35605ION     NA49019  16.025   8.113  14.032 -0.0720  0.2332 -0.1912
35606ION     NA49020   6.647  11.206   6.378  0.1097 -0.1661 -0.1787
35607ION     NA49021   1.741  11.840  10.224  0.2319  0.0443  0.2222
35608ION     NA49022  15.427  10.258   4.456 -0.0659  0.3902  0.1758
35609ION     NA49023  16.694  12.632   1.699 -0.1929 -0.1067  0.2717
35610ION     NA49024   8.445   0.874   5.381  0.0406  0.1925 -0.3257
35611ION     NA49025   6.078   4.540  12.721 -0.0005 -0.1198  0.2602
35612ION     NA49026   2.524  12.438  10.425  0.1648  0.0136  0.1166
35613ION     NA49027  10.199  16.858  13.851  0.1261  0.2747  0.2485
35614ION     NA49028  12.823  14.717   5.902  0.0707 -0.0582  0.0350
35615ION     NA49029   0.871  14.747   4.716  0.0868  0.1106  0.1023
35616ION     NA49030  14.764  16.597   9.832  0.0641 -0.1271  0.3348
35617ION     NA49031  13.555  16.185  13.230  0.0944  0.0288  0.0101
35618ION     NA49032   2.855  12.245   2.815 -0.0958  0.1094 -0.2072
35619ION     NA49033  12.462   8.099  10.830 -0.2848 -0.0734  0.2140
35620ION     NA49034  12.240   9.332  14.907  0.1600  0.3543  0.1596
35621ION     NA49035   0.862   6.241  16.056  0.0453  0.0564 -0.0766
35622ION     NA49036  12.613   0.747  11.137 -0.3172 -0.1053 -0.0751
35623ION     NA49037  12.697   9.584   0.473 -0.3748  0.0893 -0.2820
35624ION     NA49038   2.447   4.019  14.689  0.0807 -0.4103  0.0462
35625ION     NA49039  17.327   8.289   0.143 -0.1656 -0.1969 -0.0743
35626ION     NA49040  13.607   6.691  14.418 -0.1655 -0.0168  0.3313
35627ION     NA49041   8.822   7.435  10.701  0.2139  0.0762  0.2854
35628ION     NA49042   7.851  14.806   3.017  0.0596 -0.0097  0.2940
35629ION     NA49043  17.404  15.006   0.756  0.2644 -0.0745  0.1584
35630ION     NA49044   7.611   3.107   5.173  0.2045  0.1084  0.2690
35631ION     NA49045  16.349   4.350   1.969 -0.1750 -0.2028  0.0326
35632ION     NA49046  15.936  15.975   1.255 -0.1305 -0.3033  0.0285
35633ION     NA49047  10.804   7.421  10.606 -0.0075  0.1763 -0.0656
35634ION     NA49048  13.938  16.297   1.898 -0.3303  0.0858 -0.1591
35635ION     NA49049  12.094  13.328  10.382 -0.1538  0.0320  0.0022
35636ION     NA49050   0.083   5.516  10.559  0.2441 -0.0085 -0.2466
35637ION     NA49051   1.431   3.266   6.180 -0.0975  0.2369  0.2856
35638ION     NA49052  11.242  10.247  10.711  0.1528 -0.2408  0.1984
35639ION     NA49053   1.699  15.428  15.560 -0.1599  0.1613 -0.0239
35640ION     NA49054  12.176   8.903   4.226  0.0123 -0.1395 -0.0898
35641ION     NA49055   7.612   8.801   5.299 -0.0468 -0.0048 -0.2036
35642ION     NA49056   9.410   9.456   6.708  0.1590 -0.0380 -0.2973
35643ION     NA49057  16.235   1.673  11.888 -0.3620  0.0412  0.1019
35644ION     NA49058   6.227   0.191   9.772  0.0895 -0.0614 -0.1606
35645ION     NA49059   2.687   3.150  10.489 -0.1691 -0.1848 -0.1257
35646ION     NA49060   5.218   6.341  10.534  0.1755  0.2696 -0.0801
35647ION     NA49061   5.028  10.094   6.639  0.5682 -0.1202  0.2664
35648ION     NA49062   8.098   3.497   0.116 -0.2960 -0.0184 -0.1068
35649ION     NA49063   2.897   8.702   6.350  0.0033 -0.0855 -0.0293
35650ION     NA49064  13.066   7.853   4.131  0.0282  0.0701 -0.2928
35651ION     NA49065   5.946  14.871   1.469  0.0763  0.0759  0.1069
35652ION     NA49066  15.758   5.027  11.458 -0.0555 -0.0259 -0.0660
35653ION     NA49067   7.935   5.629   3.046  0.0568  0.0684  0.0720
35654ION     NA49068  12.924  11.489  15.967 -0.1077 -0.0345 -0.0237
35655ION     NA49069  13.212   1.360   5.859 -0.1533  0.0974 -0.0015
35656ION     NA49070   4.958   3.591   6.406 -0.1141  0.2421 -0.2182
35657ION     NA49071   3.312   9.016  11.360 -0.0642 -0.0810  0.4603
35658ION     NA49072   1.181   6.102   6.706  0.0805 -0.3273  0.0355
35659ION     NA49073   9.095  11.177   6.556  0.2430  0.1009  0.0899
35660ION     NA49074   2.815  10.884   4.995  0.0475  0.1421  0.1927
35661ION     NA49075   3.047   9.669   4.294 -0.0864  0.1535  0.1814
35662ION     NA49076   7.077   5.959  15.430  0.0820 -0.2041 -0.1323
35663ION     NA49077  17.896  10.235   3.852  0.1724 -0.0268  0.0762
35664ION     NA49078  11.656   9.201  10.485  0.1053  0.2320 -0.1654
35665ION     NA49079   2.078  14.497   6.152 -0.0927 -0.0614  0.0498
35666ION     NA49080   6.776   5.188   0.349 -0.2176  0.3067 -0.0033
35667ION     NA49081  16.855   2.813  12.045 -0.1008  0.2415 -0.2403
35668ION     NA49082  14.801   4.622  11.835  0.1612 -0.0165  0.0691
35669ION     NA49083   7.781  11.076  15.939 -0.0151 -0.0026 -0.0651
35670ION     NA49084   2.820  14.930   1.423 -0.3373  0.1261 -0.4339
35671ION     NA49085   5.665   0.165   4.891  0.2109 -0.1385  0.1117
35672ION     NA49086  12.618  17.382   5.333 -0.0397 -0.0566 -0.2677
35673ION     NA49087  14.458  11.736  12.365 -0.1024  0.0268 -0.1288
35674ION     NA49088   4.354   8.627   5.220 -0.2449 -0.3158 -0.0802
35675ION     NA49089  11.991  16.315  13.853  0.2184 -0.0056 -0.2773
35676ION     NA49090  15.054   6.260  10.257  0.0188 -0.0310 -0.0900
35677ION     NA49091   3.358   2.598  12.234  0.0056 -0.2353 -0.3444
35678ION     NA49092  14.393  15.631   5.627  0.2923  0.0728  0.0679
35679ION     NA49093  17.119  10.252  15.788  0.2107  0.2181 -0.0914
35680ION     NA49094  10.247   8.557  14.070  0.0100 -0.3035  0.1797
35681ION     NA49095   3.682  16.069   5.486 -0.0497 -0.0303 -0.2025
35682ION     NA49096  12.327  11.834  11.109 -0.1580 -0.3583  0.1599
35683ION     NA49097   1.007   8.035   6.148  0.0611 -0.1488 -0.2190
35684ION     NA49098   3.636   8.177   5.030 -0.2296  0.1902 -0.1291
35685ION     NA49099   4.277  11.793   6.637 -0.2236 -0.1361  0.0385
35686ION     NA49100   5.346   2.204  11.236 -0.0320  0.1446 -0.2122
35687ION     NA49101   7.646  14.076   0.809 -0.3624  0.1602 -0.1062
35688ION     NA49102  14.540   1.389  16.182  0.1151  0.0495 -0.2447
35689ION     NA49103  13.412   5.146   6.067 -0.0179  0.1886  0.0634
35690ION     NA49104   8.680  14.701   4.953 -0.0480  0.0973  0.1569
35691ION     NA49105   4.412  12.258   6.686  0.1247 -0.0247 -0.2701
35692ION     NA49106   8.016   2.186  11.588 -0.2037 -0.0153  0.0913
35693ION     NA49107   2.161   1.571   5.067 -0.1332 -0.0052 -0.1265
35694ION     NA49108  12.332   3.259   5.717  0.2115  0.0477 -0.0987
35695ION     NA49109   9.789  12.174   6.630  0.1401 -0.0773  0.1877
35696ION     NA49110  17.989   3.621   4.191  0.0733  0.3586  0.0368
35697ION     NA49111  16.480  14.745   6.281  0.2304 -0.0059 -0.1614
35698ION     NA49112  12.648  12.228  15.975 -0.1649 -0.0970  0.2688
35699ION     NA49113  10.688  16.634   4.381  0.0568  0.1874 -0.0616
35700ION     NA49114  17.211   7.717   6.409  0.3991  0.2275  0.0078
35701ION     NA49115   5.685  14.256   6.500 -0.0922 -0.2703 -0.0823
35702ION     NA49116  15.372   8.138   4.141 -0.1157  0.0811  0.0276
35703ION     NA49117   9.760   1.396   9.524 -0.3520  0.0332 -0.2616
35704ION     NA49118  12.535   5.205   4.512 -0.0919  0.1951 -0.1952
35705ION     NA49119   6.827  10.328  12.532 -0.1336 -0.4050 -0.1222
35706ION     NA49120   7.486   6.287  13.223  0.0024 -0.1201 -0.0618
35707ION     NA49121   0.315   3.019   6.283  0.2605  0.0464  0.0162
35708ION     NA49122  15.642  17.221  10.021  0.1713  0.2946  0.0683
35709ION     NA49123   5.621  13.053   6.552  0.0857  0.1924  0.0343
35710ION     NA49124  15.302   6.999   2.713  0.0995 -0.0695  0.0262
35711ION     NA49125   6.822   4.445   1.707  0.2774 -0.1532  0.1917
35712ION     NA49126  14.175   8.530   1.161 -0.0981 -0.1068  0.1067
35713ION     NA49127   9.879   1.254   2.050  0.2653  0.0046 -0.1772
35714ION     NA49128  13.382  12.358  14.642 -0.1781 -0.2668  0.0195
35715ION     NA49129  16.484   4.232   3.103 -0.2426 -0.0193 -0.2448
35716ION     NA49130  10.307  18.029  10.534  0.0168 -0.3782  0.1590
35717ION     NA49131   3.642   5.813   6.329 -0.3203 -0.2503 -0.1595
35718ION     NA49132   6.639  16.577   3.276  0.0800  0.1714 -0.0832
35719ION     NA49133  11.030   5.512  10.221 -0.2919  0.0863  0.1032
35720ION     NA49134  15.087  14.996   1.486 -0.0987  0.3842  0.0365
35721ION     NA49135  14.509  11.873  15.392 -0.0364  0.1789  0.1361
35722ION     NA49136   2.099  11.854  15.199  0.1159  0.1401  0.1238
35723ION     NA49137  14.313   7.593  10.858  0.0419 -0.1107  0.0617
35724ION     NA49138  12.769  12.396  10.574 -0.3138 -0.0915  0.1335
35725ION     NA49139   6.750   2.715  10.202 -0.1789 -0.1289  0.2155
35726ION     NA49140  14.809  17.407  10.436  0.1229 -0.1028 -0.1244
35727ION     NA49141   4.983  11.017  10.431 -0.2496 -0.0902 -0.3526
35728ION     NA49142   7.381   1.770   9.568  0.2805  0.0748 -0.2813
35729ION     NA49143   5.744  17.666   9.824 -0.0318  0.0695 -0.0116
35730ION     NA49144  16.248   0.347  14.281  0.3144 -0.3809 -0.1932
35731ION     NA49145  15.998   9.786   0.060 -0.0682 -0.0157 -0.0918
35732ION     NA49146   2.349  11.335  16.374  0.1528  0.3449 -0.0335
35733ION     NA49147  13.642   4.678   9.761 -0.3215  0.1923 -0.4234
35734ION     NA49148  16.392  12.223   6.343  0.0979  0.0033  0.1186
35735ION     NA49149   0.218   0.410   5.569  0.2988  0.0839 -0.2946
35736ION     NA49150  16.721   9.825   4.146  0.0371 -0.2868  0.0671
35737ION     NA49151  16.566   8.769  10.524 -0.3707  0.0923 -0.0851
35738ION     NA49152  13.131   3.993   2.644  0.3631 -0.0817 -0.1355
35739ION     NA49153  11.530   1.104   1.021  0.3533  0.2201 -0.3688
35740ION     NA49154  12.397  12.707   0.213  0.0888 -0.2065 -0.3548
35741ION     NA49155  14.407   9.293   3.484  0.3885  0.0074 -0.2708
35742ION     NA49156   8.700   9.431   1.403  0.2304  0.6268 -0.0985
35743ION     NA49157  14.506   4.403   6.172 -0.0846 -0.1046 -0.0448
35744ION     NA49158  12.569   8.073   6.752  0.1282 -0.1196  0.3182
35745ION     NA49159   6.266   3.098  11.693  0.2183  0.0423  0.0398
35746ION     NA49160  12.778   6.144  10.251 -0.2246 -0.2130 -0.0520
35747ION     NA49161  16.152   6.035   6.219  0.0056 -0.0875 -0.1612
35748ION     NA49162   8.574  16.142   4.472  0.0105 -0.1565 -0.1188
35749ION     NA49163   0.548  11.030  12.976  0.2262 -0.0808 -0.4598
35750ION     NA49164  15.462   8.652   6.702  0.6435  0.0957  0.2918
35751ION     NA49165   8.984  15.380  16.017  0.1568  0.2110  0.0827
35752ION     NA49166  10.534  14.911   2.498 -0.0160 -0.1667  0.0360
35753ION     NA49167  16.259   6.220  12.036 -0.2298 -0.2250  0.2372
35754ION     NA49168   9.499   9.670   5.241 -0.0128  0.2153 -0.0314
35755ION     NA49169  10.177  17.994   5.380  0.0756 -0.0587 -0.2032
35756ION     NA49170   9.773   3.464   9.863  0.1245  0.1099  0.6153
35757ION     NA49171   1.090   5.953  13.287 -0.3562  0.0376  0.0962
35758ION     NA49172   8.542   0.325  13.699 -0.4137 -0.2135 -0.1226
35759ION     NA49173   6.550   3.639  10.377 -0.0643 -0.3426  0.0132
35760ION     NA49174  13.551  15.452   5.962 -0.0073  0.3739 -0.0552
35761ION     NA49175  11.386  12.655   0.312 -0.1732 -0.0541  0.1829
35762ION     NA49176   3.026  18.189   1.022  0.5184 -0.1947  0.1352
35763ION     NA49177  11.086  14.667  10.027 -0.1500 -0.3799 -0.0354
35764ION     NA49178  16.375  12.529  14.122 -0.0213 -0.0585  0.2131
35765ION     NA49179  13.856   5.947   6.160  0.4267  0.0228  0.0390
35766ION     NA49180   9.993   4.818  11.096  0.1314  0.2274 -0.1135
35767ION     NA49181  17.915   4.148  15.174  0.2588  0.0390  0.0081
35768ION     NA49182   5.316  17.597   2.765 -0.0823 -0.2373 -0.0508
35769ION     NA49183  16.667   7.742  10.554  0.2785 -0.1198  0.1668
35770ION     NA49184   6.642   0.850   4.599 -0.0062  0.0187  0.1680
35771ION     NA49185  13.166  11.439  13.588  0.2514  0.0746  0.2194
35772ION     NA49186  11.271   4.456  10.202  0.2156 -0.4449 -0.4305
35773ION     NA49187   3.866   0.007  10.149  0.2222  0.1637  0.0263
35774ION     NA49188   9.082  10.185   6.578  0.0138  0.2492  0.2038
35775ION     NA49189   0.180   4.949   3.254 -0.1610 -0.1788 -0.2884
35776ION     NA49190   3.614   3.415   5.303  0.2085 -0.2331  0.0569
35777ION     NA49191  11.798   9.916   0.508  0.3188  0.1000 -0.0855
35778ION     NA49192   0.273   4.101   6.431 -0.0024 -0.1024  0.1431
35779ION     NA49193  12.631  14.738  13.164  0.0755  0.0810 -0.0706
35780ION     NA49194   6.632   1.100   9.585  0.0795  0.0724  0.1662
35781ION     NA49195   1.570   1.846   6.444 -0.1342 -0.3388  0.2609
35782ION     NA49196   9.815   4.026  15.062  0.3545 -0.1699  0.0420
35783ION     NA49197   1.389   4.386   6.666 -0.1984 -0.3796 -0.0102
35784ION     NA49198  12.583   3.144   0.551  0.1270  0.0470 -0.0635
35785ION     NA49199   7.975  11.150  13.452 -0.0238 -0.0124  0.1853
35786ION     NA49200  14.458  14.676  15.732  0.3008  0.1086  0.1443
35787ION     NA49201  11.203  17.213   3.482 -0.1439 -0.0870 -0.1117
35788ION     NA49202   1.916   6.955  11.067 -0.2397 -0.0232  0.1851
35789ION     NA49203   0.642  16.370   2.145 -0.1429 -0.0927 -0.2229
35790ION     NA49204   7.655   2.034  15.418  0.0789 -0.1639  0.0474
35791ION     NA49205   9.924   2.439   0.073 -0.0649  0.1293  0.0442
35792ION     NA49206   5.763  10.005   3.858  0.0550 -0.1158 -0.0810
35793ION     NA49207  14.737  14.989   9.982 -0.1195  0.0203 -0.0284
35794ION     NA49208  12.735  17.527  14.782  0.0576  0.2187  0.0474
35795ION     NA49209   8.107  16.951   5.269  0.0442  0.1183  0.2854
35796ION     NA49210  16.215  11.056  10.261  0.1463  0.0624  0.2843
35797ION     NA49211   7.527   4.640   3.319  0.0705 -0.1794 -0.3052
35798ION     NA49212   4.399   9.084   6.584  0.0083  0.3289  0.0061
35799ION     NA49213   8.412   2.927   5.110  0.0934 -0.0306  0.0844
35800ION     NA49214   8.241  16.026  12.284 -0.2745 -0.1965 -0.0303
35801ION     NA49215  16.825  17.739   1.617  0.2629 -0.0556  0.2335
35802ION     NA49216   6.966   3.863  12.767 -0.1610  0.0977 -0.0824
35803ION     NA49217   2.882  17.358  16.390  0.3274 -0.0134 -0.3958
35804ION     NA49218  17.299   5.745  10.193  0.0654  0.0763 -0.3812
35805ION     NA49219  17.712  11.470  14.351 -0.2947 -0.2311  0.1445
35806ION     NA49220  10.706  16.447  13.740  0.2767  0.0988 -0.0570
35807ION     NA49221  10.064   9.623  10.709  0.2762 -0.1577 -0.0594
35808ION     NA49222   4.603  16.472  10.424  0.0993  0.0768  0.3641
35809ION     NA49223   0.747   8.918   2.949 -0.3872 -0.1697 -0.1723
35810ION     NA49224   1.646  16.906   6.172  0.1847  0.3645  0.1509
35811ION     NA49225  16.264  16.159  10.416 -0.4381  0.0465  0.3316
35812ION     NA49226  17.251   8.818   6.376  0.0522  0.0766  0.4374
35813ION     NA49227  10.355  17.493   9.664  0.1141  0.1258  0.0935
35814ION     NA49228   4.557   2.942   4.991 -0.4122  0.2527  0.1106
35815ION     NA49229   1.979   0.923   6.420 -0.3078  0.3168  0.0921
35816ION     NA49230  18.082   5.037   5.499  0.1120  0.0118  0.1384
35817ION     NA49231  12.718   5.104  13.707 -0.2144  0.0094 -0.3284
35818ION     NA49232  16.296   3.341   6.253 -0.0876 -0.1472 -0.0814
35819ION     NA49233  14.112  17.562   9.485  0.3018  0.1671 -0.1291
35820ION     NA49234  15.938  17.020  10.778  0.0716  0.0593  0.0077
35821ION     NA49235   9.509  13.958   2.362  0.0006  0.0213  0.3316
35822ION     NA49236   5.659   5.787   5.815  0.1783 -0.1492 -0.0348
35823ION     NA49237  13.917  11.485  10.526  0.3774 -0.0345 -0.1021
35824ION     NA49238  12.563   6.105   6.474 -0.3107  0.1927 -0.2192
35825ION     NA49239   2.707   3.714   5.013 -0.0927 -0.1590 -0.2044
35826ION     NA49240   9.593   3.553   6.122  0.1541 -0.0246  0.2669
35827ION     NA49241   9.496   1.905  13.306  0.0498 -0.1774 -0.0720
35828ION     NA49242   3.277   8.671   1.226 -0.0986  0.0263 -0.2476
35829ION     NA49243   4.030   9.975   6.521 -0.1080 -0.2389 -0.3525
35830ION     NA49244  16.050  13.835  10.416 -0.1719 -0.0258 -0.1274
35831ION     NA49245   1.969   6.513   6.872 -0.0296  0.0900 -0.0787
35832ION     NA49246   9.205   3.302   4.510  0.4058  0.1816 -0.2383
35833ION     NA49247   1.064   9.086  14.713 -0.1985 -0.4004  0.0428
35834ION     NA49248   5.246   5.649   4.357  0.0378  0.1823  0.0305
35835ION     NA49249   4.774   3.859  11.125 -0.2639  0.2728  0.3094
35836ION     NA49250  10.845  18.136   3.025  0.1047 -0.1959  0.0846
35837ION     NA49251   6.035  14.979   3.712 -0.0037  0.0762 -0.0561
35838ION     NA49252   3.313  13.788   6.011 -0.1025 -0.2666  0.0836
35839ION     NA49253  14.009  16.726  13.974 -0.1057  0.0342 -0.3474
35840ION     NA49254   2.155   5.358   2.184 -0.1983  0.1559  0.2265
35841ION     NA49255  14.227  17.260  15.135  0.0736 -0.1276 -0.0162
35842ION     NA49256   8.389  16.141   9.602 -0.2794 -0.2798  0.1368
35843ION     NA49257   8.129   6.301   6.006 -0.5050  0.0038 -0.3427
35844ION     NA49258   5.956   3.118   0.738 -0.0943  0.0081  0.1236
35845ION     NA49259  12.397  14.143   6.026 -0.2142 -0.1450  0.0759
35846ION     NA49260  13.820   9.361  10.718  0.1811  0.1370 -0.1694
35847ION     NA49261  11.827  17.459  10.918 -0.0981  0.2341  0.0321
35848ION     NA49262  16.587  10.390   5.188  0.0599  0.1828 -0.2108
35849ION     NA49263   5.433  12.935  10.472 -0.0795 -0.3193 -0.3838
35850ION     NA49264  13.979   4.629   6.175  0.3819  0.0250  0.3339
35851ION     NA49265  15.763   0.802   5.775  0.1601 -0.1138 -0.3607
35852ION     NA49266   7.554   8.515  14.075 -0.2236 -0.3384  0.2827
35853ION     NA49267   6.922   0.418   9.662  0.1732  0.0300  0.0484
35854ION     NA49268   7.713   7.957   6.582  0.1191  0.3647 -0.0976
35855ION     NA49269   3.255   3.253   6.088  0.2681 -0.2741  0.0037
35856ION     NA49270   1.679   1.420   0.814  0.1760  0.0150 -0.1674
35857ION     NA49271  17.606   1.159  15.650 -0.0380  0.1215 -0.3129
35858ION     NA49272   0.239   0.341  10.214 -0.0382 -0.1765  0.1697
35859ION     NA49273   0.131   5.139  11.965 -0.0319  0.1041  0.1840
35860ION     NA49274   1.097  10.983  15.898 -0.0446  0.0892 -0.0079
35861ION     NA49275   8.065  15.090  14.776  0.1943  0.1353 -0.1372
35862ION     NA49276  17.990   7.572   3.283 -0.2470  0.0300  0.0088
35863ION     NA49277   8.264  15.126   2.887  0.3413  0.2571  0.2873
35864ION     NA49278   8.181   4.135  10.006  0.1682  0.0985  0.0073
35865ION     NA49279  11.156   0.459  15.940 -0.0389 -0.2847  0.0064
35866ION     NA49280   6.998   5.613  12.102  0.2690  0.1478  0.1256
35867ION     NA49281   4.197  12.248  13.570  0.1102 -0.1356  0.1816
35868ION     NA49282  15.556   6.394  15.772 -0.2064  0.0269  0.0483
35869ION     NA49283   2.080   7.730  10.609  0.2547 -0.0582 -0.2171
35870ION     NA49284  12.640  14.957   1.842 -0.0623  0.1160 -0.0950
35871ION     NA49285   2.312  13.176   3.111  0.0485  0.0654 -0.0315
35872ION     NA49286   5.941  12.595  10.682  0.1514 -0.1301  0.2048
35873ION     NA49287   5.977   7.111  10.656 -0.0254  0.2755  0.4705
35874ION     NA49288  10.054  14.574  14.195  0.0110  0.0125  0.0477
35875ION     NA49289  16.807  15.285   4.066 -0.5138 -0.0403 -0.1529
35876ION     NA49290   0.534  11.186   6.377 -0.0861  0.2442 -0.1319
35877ION     NA49291   6.037  15.144   4.825 -0.1239 -0.0537 -0.0340
35878ION     NA49292   7.274  16.327  14.657 -0.0712 -0.2213  0.1292
35879ION     NA49293   0.630   1.747  10.288 -0.1826 -0.2189 -0.1127
35880ION     NA49294  17.711   2.064   0.990  0.0883  0.0320  0.0811
35881ION     NA49295   7.272  15.712  11.200  0.1340  0.1532  0.2263
35882ION     NA49296  14.525  16.784   3.695 -0.0028 -0.0675  0.3908
35883ION     NA49297  10.195   6.493  12.094 -0.0498  0.0535 -0.0730
35884ION     NA49298  10.414   9.477   6.568  0.0905  0.1246 -0.1075
35885ION     NA49299   5.845   9.380   6.438  0.3148  0.0615 -0.2796
35886ION     NA49300  10.121  12.055  11.912  0.1767  0.0551  0.1343
35887ION     NA49301   2.919   5.967  10.859 -0.0393 -0.1265  0.4911
35888ION     NA49302   8.452   5.851   6.014 -0.2435 -0.3147  0.0939
35889ION     NA49303   1.025  12.245  10.298  0.0620  0.2225 -0.1925
35890ION     NA49304   2.735  14.632  10.117 -0.1848 -0.0950 -0.2814
35891ION     NA49305  17.339   1.254  13.366  0.0800 -0.1526  0.1678
35892ION     NA49306   4.103   1.237   0.669 -0.1718 -0.1431  0.0875
35893ION     NA49307   7.363   3.623  10.080 -0.0092 -0.1711  0.0181
35894ION     NA49308   5.306   3.468   5.026  0.0675  0.0981 -0.0023
35895ION     NA49309   4.629   7.977  10.369 -0.0329  0.0761  0.3291
35896ION     NA49310  13.356   2.114   4.510  0.3125 -0.1172 -0.2962
35897ION     NA49311   2.956  12.642   0.505  0.1567 -0.1751  0.0690
35898ION     NA49312  12.114  14.937  15.892 -0.2747  0.4286 -0.1180
35899ION     NA49313   4.964  14.632   6.202 -0.0418  0.1579  0.1779
35900ION     NA49314   8.473  15.176   1.419 -0.1616 -0.0805 -0.4936
35901ION     NA49315   7.386  14.611   5.945 -0.1799  0.1420 -0.0428
35902ION     NA49316  11.478   7.628  15.086  0.3184 -0.2511  0.1145
35903ION     NA49317  12.086   6.686   6.564  0.0365 -0.0134 -0.0364
35904ION     NA49318  10.451  15.870   9.900  0.0771  0.0788 -0.0229
35905ION     NA49319  12.786  13.874  10.386  0.0749 -0.2091 -0.1072
35906ION     NA49320  17.444   3.579  11.052  0.1015  0.1014 -0.1007
35907ION     NA49321   3.918  15.273   6.035 -0.1119 -0.0933 -0.0982
35908ION     NA49322  14.932   6.596  15.000 -0.0198  0.1067  0.1273
35909ION     NA49323  17.664  18.177   6.314 -0.0128  0.3577 -0.1143
35910ION     NA49324  16.080   0.299   9.765  0.2193  0.1750  0.0035
35911ION     NA49325  12.043   0.693  16.383 -0.1242 -0.0863  0.0975
35912ION     NA49326  12.759   6.701  10.836  0.1805  0.1934 -0.0631
35913ION     NA49327   3.005   4.436  10.492 -0.2061 -0.1650 -0.3790
35914ION     NA49328  16.202  14.967   3.446 -0.0668  0.0606 -0.0333
35915ION     NA49329  14.303   6.780   6.564 -0.0756 -0.0202 -0.0945
35916ION     NA49330   2.591  14.336   6.260  0.0466 -0.2562  0.0411
35917ION     NA49331   4.333   3.624  12.654  0.0617 -0.0397 -0.2608
35918ION     NA49332   5.094   2.948  10.608  0.1276 -0.1824 -0.1526
35919ION     NA49333  17.523   4.631  13.488  0.1197 -0.0004  0.1524
35920ION     NA49334   4.533   5.708   6.546 -0.0946 -0.1665 -0.1920
35921ION     NA49335  11.861  14.669   9.931 -0.1572 -0.2737  0.1139
35922ION     NA49336   3.684  16.485   2.598  0.0622 -0.2899 -0.0743
35923ION     NA49337   1.145  12.857   6.129 -0.1672  0.2340 -0.2212
35924ION     NA49338  10.809  12.031   0.725  0.1536  0.2938  0.0564
35925ION     NA49339   3.623   6.137   6.721  0.2299 -0.1224  0.2125
35926ION     NA49340  13.513   0.124   9.843 -0.0581 -0.0459 -0.2448
35927ION     NA49341   5.679   5.078  13.933 -0.0099 -0.1546 -0.2479
35928ION     NA49342   7.541  17.294  13.006 -0.0052 -0.2583 -0.2669
35929ION     NA49343  15.390   6.722  10.418 -0.1217  0.3381 -0.1908
35930ION     NA49344  12.072   1.596  10.157  0.0750  0.2626  0.1654
35931ION     NA49345   7.998  11.845   4.126  0.0568 -0.1231 -0.1161
35932ION     NA49346  16.591   3.327  10.574 -0.0893 -0.0979 -0.1059
35933ION     NA49347   2.295   4.875   6.450  0.1620  0.1233 -0.1035
35934ION     NA49348   5.721   8.913   0.831  0.1162 -0.1477  0.0191
35935ION     NA49349  11.672   2.358   9.840  0.0717  0.1544  0.1098
35936ION     NA49350   4.214   2.428   6.438  0.2019  0.1667  0.3488
35937ION     NA49351   7.641   9.468   6.452  0.1453 -0.2980 -0.3730
35938ION     NA49352  15.750   3.085   5.002  0.2379 -0.1913 -0.2090
35939ION     NA49353   9.539  14.042  13.532  0.1631  0.1232 -0.0754
35940ION     NA49354   3.982  11.297  13.346  0.0044  0.1848  0.0632
35941ION     NA49355  18.134  13.715  10.454 -0.2259 -0.0720  0.0931
35942ION     NA49356   0.644   9.056   5.449  0.0341  0.2278  0.1488
35943ION     NA49357  12.937   7.691  10.944 -0.4906 -0.0437 -0.1763
35944ION     NA49358  17.312  10.822   5.631  0.1001  0.3837  0.0605
35945ION     NA49359   3.343  17.089   3.548  0.0577 -0.1465 -0.1472
35946ION     NA49360  10.078   4.074   4.806 -0.2869  0.0033  0.1421
35947ION     NA49361   8.747   6.626  10.322  0.1690 -0.0827  0.0174
35948ION     NA49362   8.826  15.249  10.478  0.0588  0.3635  0.0865
35949ION     NA49363   7.288   1.337   1.655  0.1640  0.2897  0.0592
35950ION     NA49364   8.618   4.703  11.786 -0.1159 -0.1716  0.0479
35951ION     NA49365   1.384  14.694  10.415 -0.1297  0.1216  0.0679
35952ION     NA49366   6.917  14.163  13.371 -0.3098  0.1107  0.0566
35953ION     NA49367   6.381   0.404  15.627  0.1534 -0.1464 -0.0681
35954ION     NA49368   3.190  13.129  10.874  0.3857 -0.1947 -0.0674
35955ION     NA49369   5.226  14.008  14.758 -0.2893  0.0840 -0.0745
35956ION     NA49370   2.287  13.462  14.365 -0.0351  0.0732  0.0295
35957ION     NA49371   4.645   9.173   1.878  0.0699 -0.0376  0.1810
35958ION     NA49372   5.593   1.815   0.137  0.1493  0.0714 -0.1720
35959ION     NA49373  11.065   5.435  10.721  0.3871 -0.1907 -0.1076
35960ION     NA49374  12.859  11.127   4.110 -0.0884 -0.0724 -0.0175
35961ION     NA49375   7.491   2.063   0.528  0.0370 -0.0212 -0.1900
35962ION     NA49376  10.510  18.068  16.327  0.2146 -0.0793  0.0835
35963ION     NA49377  14.371  18.056  12.124  0.1851 -0.1731 -0.0998
35964ION     NA49378   9.139   2.665   9.519 -0.0296 -0.2285  0.1300
35965ION     NA49379  13.834   9.675  14.913 -0.0478  0.0074  0.1917
35966ION     NA49380  11.366  12.041   1.982 -0.0760 -0.1733  0.1459
35967ION     NA49381  14.942   2.867  16.130  0.1202  0.0715  0.0885
35968ION     NA49382   2.149  17.703   9.747  0.3222 -0.0338  0.1155
35969ION     NA49383   8.644  13.470   6.250 -0.0135  0.1281  0.0636
35970ION     NA49384  13.908   9.151   2.376 -0.1443 -0.0430  0.1643
35971ION     CL49385   5.289  15.528  12.335 -0.1613 -0.0696 -0.1783
35972ION     CL49386  15.627   5.920  15.910  0.1757  0.2739  0.1184
35973ION     CL49387  15.956   1.478  12.285 -0.0749 -0.1501 -0.3121
35974ION     CL49388  11.336  17.064   3.986 -0.1057 -0.0794  0.2812
35975ION     CL49389   4.164  11.971   0.748 -0.0163  0.0911 -0.2476
35976ION     CL49390  11.992  15.958  15.794  0.0385  0.1607 -0.2742
35977ION     CL49391   7.679   7.280  15.197 -0.0574 -0.1245  0.0663
35978ION     CL49392  16.021   1.000   5.353  0.1472 -0.0892 -0.2410
35979ION     CL49393   8.689   1.280   4.469 -0.1772  0.3190 -0.2023
35980ION     CL49394  12.567   3.578   0.284 -0.2357 -0.0960 -0.0645
35981ION     CL49395  13.586   8.786   0.627 -0.2097 -0.1460 -0.0057
35982ION     CL49396   5.030   3.620   2.871 -0.1722 -0.1975 -0.1676
35983ION     CL49397   5.951  14.767   3.275  0.1368 -0.2533  0.0648
35984ION     CL49398  14.598  17.485  10.945  0.0756  0.1693  0.0968
35985ION     CL49399  10.135   4.546   4.878 -0.0926 -0.0430  0.5616
35986ION     CL49400  14.595  10.422  15.039 -0.1235  0.1390  0.0258
35987ION     CL49401   9.015   7.263  13.673 -0.1250 -0.0210 -0.0138
35988ION     CL49402  16.121   3.546  10.790  0.4081 -0.1500  0.3058
35989ION     CL49403  11.637   4.308  16.155 -0.2493 -0.1144 -0.0971
35990ION     CL49404   8.133   6.805  14.470  0.0892  0.0611  0.2262
35991ION     CL49405  11.187   9.120  12.337 -0.1641 -0.1099  0.1016
35992ION     CL49406  17.224  15.590   4.374 -0.1897 -0.0787 -0.2232
35993ION     CL49407   2.833   8.049   0.555 -0.1790  0.2789 -0.1182
35994ION     CL49408   4.118   7.560   2.041  0.1806 -0.0119  0.0442
35995ION     CL49409   1.484  10.253  14.057 -0.1307  0.3471  0.0273
35996ION     CL49410   6.402   6.811   2.201  0.1939 -0.0528 -0.0614
35997ION     CL49411  15.349   5.559   4.381 -0.1864 -0.0285  0.0095
35998ION     CL49412  12.704   5.070  15.517 -0.0625 -0.4158  0.3980
35999ION     CL49413  17.926  10.572   4.863  0.0435  0.3417 -0.1219
36000ION     CL49414  14.429  11.557  15.836  0.1099 -0.0558  0.1768
36001ION     CL49415   3.108   7.371  16.258 -0.0630 -0.1826  0.2535
36002ION     CL49416   2.196  16.237   0.405  0.1392 -0.0356  0.1917
36003ION     CL49417   1.609   4.944  16.233 -0.2192  0.4459  0.2779
36004ION     CL49418   1.185   1.246   4.826 -0.1312  0.4840  0.2612
36005ION     CL49419   7.288  15.015   4.279 -0.0795 -0.1969  0.0419
36006ION     CL49420   5.092  11.092   6.708  0.2066 -0.0381  0.0873
36007ION     CL49421   6.996  13.397  14.502  0.0039 -0.0951 -0.0124
36008ION     CL49422  12.770   1.100  11.469 -0.1421 -0.0230 -0.0829
36009ION     CL49423   7.351  15.848   4.711 -0.1162 -0.0205  0.3423
36010ION     CL49424   8.272  17.550  13.203  0.1310 -0.1702 -0.0535
36011ION     CL49425   0.979   5.489  13.434  0.2405  0.2571  0.1365
36012ION     CL49426  14.218  12.312   3.046  0.1324 -0.1201 -0.1272
36013ION     CL49427  10.496   5.692  15.279  0.0716  0.6220  0.0071
36014ION     CL49428   5.270  13.421  14.239  0.2944 -0.1014 -0.0778
36015ION     CL49429   5.712  14.155  14.746 -0.0928 -0.0376  0.1216
36016ION     CL49430  16.990   3.276  13.758  0.0186  0.1437  0.1960
36017ION     CL49431  14.611   1.062   0.021  0.2669  0.0469  0.0208
36018ION     CL49432   6.409  11.238   4.488  0.0876 -0.1817  0.0315
36019ION     CL49433  18.002   0.802   0.294 -0.0558  0.1465 -0.2532
36020ION     CL49434  11.812  15.607  14.161 -0.1057 -0.0242 -0.1684
36021ION     CL49435  10.547   4.307   0.762  0.0555  0.1028 -0.0334
36022ION     CL49436   7.781   8.840   5.760 -0.1603  0.1717 -0.2261
36023ION     CL49437   3.398  12.953  11.326  0.0227 -0.1525 -0.1447
36024ION     CL49438   2.832  11.322  16.456  0.4452 -0.3544 -0.3526
36025ION     CL49439   4.214   3.825  13.103  0.3338 -0.0883  0.2007
36026ION     CL49440   6.512   4.936   4.557 -0.0445 -0.2523 -0.0068
36027ION     CL49441  11.357   1.951   0.207 -0.2279  0.3471 -0.0977
36028ION     CL49442   3.785   2.677  15.308  0.2080  0.0124  0.1897
36029ION     CL49443   5.999  16.835  13.762  0.0702  0.0443  0.3544
36030ION     CL49444  10.097   5.985  12.003 -0.1503 -0.0305  0.2335
36031ION     CL49445  17.126   4.279  13.531  0.2771 -0.2093  0.0414
36032ION     CL49446  11.850  16.082  13.404  0.0432 -0.1941 -0.0700
36033ION     CL49447   0.214  15.549  11.736  0.0749 -0.0239  0.1899
36034ION     CL49448   4.004   6.974  16.490  0.0619 -0.2173 -0.2099
36035ION     CL49449  17.060   3.423   1.282  0.2426 -0.0326  0.0437
36036ION     CL49450  12.955   8.053  11.657  0.4280  0.1839  0.1957
36037ION     CL49451   9.423  12.187  13.451  0.1478 -0.0076  0.2692
36038ION     CL49452  12.223  12.319   0.478 -0.0364 -0.0850 -0.0207
36039ION     CL49453   1.451   1.823   0.947  0.2103  0.0369  0.1272
36040ION     CL49454  12.528  18.014   3.085 -0.1956  0.3744  0.1078
36041ION     CL49455   9.776   1.654   2.315  0.2138  0.1049  0.1537
36042ION     CL49456   5.747   5.154  15.945  0.0122  0.1299 -0.2137
36043ION     CL49457   2.206  10.866   5.845 -0.1354  0.2339  0.0157
36044ION     CL49458   9.836   7.953  12.319  0.0212  0.1569 -0.0774
36045ION     CL49459   7.178  13.064  10.942 -0.1196  0.0140  0.1962
36046ION     CL49460   1.056  10.098  11.091  0.2421  0.2935  0.0440
36047ION     CL49461  13.649  16.556   2.206 -0.2727 -0.0094 -0.0500
36048ION     CL49462   6.019  15.032   5.365 -0.2433  0.0267  0.1794
36049ION     CL49463   3.654  14.547   2.663 -0.1453  0.1804 -0.0632
36050ION     CL49464   4.496   3.486   5.038 -0.1827 -0.2014  0.2524
36051ION     CL49465  11.589  10.286   0.246  0.1916  0.1483  0.0884
36052ION     CL49466  14.587   3.136   0.588 -0.0414 -0.0878 -0.3078
36053ION     CL49467  12.220   8.452   4.031 -0.0845  0.2080  0.0257
36054ION     CL49468   8.749   9.524   3.855 -0.5282  0.0399 -0.0861
36055ION     CL49469   3.380   7.980   5.533 -0.0335 -0.0066 -0.0605
36056ION     CL49470  11.838  16.643  13.512 -0.0694  0.0073  0.1797
36057ION     CL49471  11.772   3.958  12.290 -0.1980  0.1161  0.0272
36058ION     CL49472  10.970  16.940   3.151  0.2432  0.0517  0.2705
36059ION     CL49473  15.602  12.787   2.892  0.1283  0.0016 -0.0382
36060ION     CL49474  15.240  15.319   5.274  0.4321  0.2545 -0.0811
36061ION     CL49475   6.980  16.469   3.586  0.0801  0.2468  0.1174
36062ION     CL49476  17.755  11.502   1.396 -0.0851 -0.2363 -0.2802
36063ION     CL49477   5.304  10.061   3.620 -0.1546 -0.1604 -0.3144
36064ION     CL49478   5.581   7.672  13.338 -0.2486 -0.0143  0.1739
36065ION     CL49479  10.390  16.713   0.219  0.0278  0.0455 -0.1198
36066ION     CL49480  16.547   8.071  13.780  0.0777  0.2078  0.1334
36067ION     CL49481  12.148   9.270   5.821 -0.1183  0.3193 -0.3964
36068ION     CL49482  17.227   6.710  14.454 -0.0344  0.0732  0.0845
36069ION     CL49483  16.754  16.738  14.776 -0.3625  0.0076 -0.3225
36070ION     CL49484  11.764   1.156  11.147 -0.2665  0.0205  0.0904
36071ION     CL49485   5.466  17.124  15.441 -0.0367 -0.2580 -0.2897
36072ION     CL49486  12.944  10.357   4.225 -0.1239  0.0315 -0.1004
36073ION     CL49487   1.929  11.595  11.135  0.1229  0.3900  0.1624
36074ION     CL49488   2.397  14.413   5.194 -0.1202  0.2278 -0.2071
36075ION     CL49489  16.731  18.203   1.624 -0.0434 -0.0420  0.0145
36076ION     CL49490  10.624  15.020  16.350 -0.1760  0.0617  0.0135
36077ION     CL49491  18.193  12.289  14.858  0.4328 -0.0792 -0.1470
36078ION     CL49492  13.473   2.751  12.956  0.0820 -0.2210  0.2136
36079ION     CL49493  13.671   6.636   5.476 -0.1658  0.0396 -0.0898
36080ION     CL49494  17.743   7.442  14.018 -0.0224  0.5397  0.0937
36081ION     CL49495   1.663  13.596  14.186 -0.0036 -0.0011 -0.1328
36082ION     CL49496  13.464   6.835  13.902  0.0282 -0.0798  0.0826
36083ION     CL49497   0.554   4.717   1.825 -0.1267 -0.2334  0.0183
36084ION     CL49498  16.872  10.777   5.174  0.1931 -0.2739 -0.3258
36085ION     CL49499  16.695   6.407   1.013  0.0341 -0.1602  0.1047
36086ION     CL49500  14.795  12.872   2.596  0.2901 -0.0424 -0.1552
36087ION     CL49501  10.278  14.518   2.314 -0.1016 -0.1345  0.0626
36088ION     CL49502   3.415  17.412  16.491  0.0889 -0.0804  0.0859
36089ION     CL49503  15.148   6.503   2.718  0.3232 -0.0503  0.1454
36090ION     CL49504  15.886   8.287   4.233  0.2198 -0.0089 -0.0110
36091ION     CL49505  16.517   7.912  13.259  0.2600  0.0471 -0.3521
36092ION     CL49506   6.942  15.533  12.029  0.0580 -0.1387  0.1164
36093ION     CL49507  16.084   0.191  14.740 -0.2855  0.1710  0.0686
36094ION     CL49508  10.352   2.434  16.189  0.1775 -0.2401  0.0544
36095ION     CL49509   7.880  15.586  10.693  0.1627  0.0454 -0.1363
36096ION     CL49510   7.991  16.819  14.875  0.1487  0.2642  0.0765
36097ION     CL49511  10.232  16.686   4.704  0.0591 -0.0313 -0.0215
36098ION     CL49512  11.009  17.807   3.418  0.0678  0.0056  0.0283
36099ION     CL49513  14.491  14.102  16.272 -0.1656 -0.2606 -0.1169
36100ION     CL49514   7.910   8.106  14.915 -0.1547  0.0103  0.3547
36101ION     CL49515   3.892   3.930  11.247  0.2790 -0.4931  0.0847
36102ION     CL49516   7.644   0.884   3.881  0.0203  0.0594 -0.1049
36103ION     CL49517   1.020   5.768  16.025 -0.0290  0.1187 -0.2580
36104ION     CL49518   4.433  10.508   3.214  0.1420 -0.0729  0.1077
36105ION     CL49519  11.230  11.849   2.441 -0.1717  0.0280 -0.1346
36106ION     CL49520   3.639   9.036   1.286 -0.0757 -0.0713 -0.0448
36107ION     CL49521  16.474   0.350   2.502  0.1132 -0.1804 -0.3164
36108ION     CL49522   8.901   1.918  14.435  0.2193 -0.0559  0.1059
36109ION     CL49523  14.292  14.753   1.393 -0.1198 -0.1437  0.0921
36110ION     CL49524   3.535   9.947   4.232  0.0234  0.0208  0.0443
36111ION     CL49525   9.279  14.486  11.395 -0.1906  0.1784 -0.2775
36112ION     CL49526   9.024  15.165   1.442  0.1083 -0.1190 -0.1580
36113ION     CL49527   6.697   3.638   5.095 -0.2680 -0.3619 -0.3216
36114ION     CL49528   8.114   7.621  15.803 -0.2563  0.1048 -0.2100
36115ION     CL49529   1.332  10.681   5.571 -0.0488  0.0637 -0.3889
36116ION     CL49530   8.243   2.206  10.707  0.0190  0.0728 -0.2469
36117ION     CL49531  12.209  10.121   3.621  0.2540 -0.1956  0.1694
36118ION     CL49532  17.987  11.687  13.560  0.0156 -0.2862 -0.2694
36119ION     CL49533   6.168   4.279  12.242  0.1443  0.2932 -0.0354
36120ION     CL49534  17.382  11.254  13.959 -0.2600 -0.2134  0.0965
36121ION     CL49535  10.087  15.537   0.395  0.1147 -0.0944  0.1529
36122ION     CL49536   2.456  11.038  13.472  0.0681  0.3718  0.0734
36123ION     CL49537   7.083   4.969   1.469 -0.1994  0.2541  0.0173
36124ION     CL49538   8.955   0.529  13.399  0.0968 -0.0736 -0.3688
36125ION     CL49539   6.717   0.525  15.261 -0.1441  0.3235 -0.1283
36126ION     CL49540   8.210  15.349  14.345  0.0413 -0.2032  0.1528
36127ION     CL49541   6.773  14.652  13.427  0.1507  0.1537  0.0578
36128ION     CL49542   0.602   5.336  11.946 -0.0558  0.2403  0.0062
36129ION     CL49543  12.023   1.823  10.638 -0.0133  0.0133  0.0612
36130ION     CL49544  11.038  14.188   1.141  0.1045 -0.2996 -0.0237
36131ION     CL49545  10.280   0.021  10.998  0.2111 -0.0733 -0.1744
36132ION     CL49546   2.541  12.646   2.883 -0.0577  0.0530  0.3067
36133ION     CL49547  10.142  16.396  13.748  0.1244 -0.1288  0.0547
36134ION     CL49548   1.698  14.308  13.877  0.2153 -0.1810 -0.0760
36135ION     CL49549  14.380   8.697   6.126 -0.0885 -0.0072  0.1177
36136ION     CL49550  13.142   0.993  11.898  0.1396  0.0548  0.0238
36137ION     CL49551  12.669  11.836  16.281 -0.1529 -0.0633 -0.0210
36138ION     CL49552   7.846   3.961   0.205 -0.1668 -0.1807 -0.0864
36139ION     CL49553   6.673   3.487  11.818 -0.1922 -0.3201  0.0331
36140ION     CL49554   0.160   0.996   4.294 -0.1321  0.1663  0.1814
36141ION     CL49555   8.652  14.745  10.654 -0.1508 -0.2456 -0.1963
36142ION     CL49556   7.680   7.096  11.614 -0.1758  0.0115 -0.2286
36143ION     CL49557   8.917  13.554  14.251 -0.0968 -0.1251  0.3539
36144ION     CL49558  14.308   4.760   5.775 -0.0581  0.1222 -0.0107
36145ION     CL49559  11.704   7.097  11.718 -0.0206  0.0563  0.0474
36146ION     CL49560   4.860   9.402   1.503 -0.1295 -0.0751 -0.1332
36147ION     CL49561  11.207   6.735  15.288 -0.0636 -0.0273 -0.0676
36148ION     CL49562   7.880  14.018   1.925 -0.0786 -0.1503 -0.0994
36149ION     CL49563   7.454   5.826  12.056  0.0462  0.2239  0.0385
36150ION     CL49564  11.898   6.447  13.106  0.2092 -0.1798 -0.1757
36151ION     CL49565   2.495  13.650  13.896  0.2079 -0.0857 -0.2026
36152ION     CL49566  14.113  17.385   0.414  0.0240  0.0866  0.3326
36153ION     CL49567  17.956   9.656  12.423 -0.0112  0.1264 -0.2988
36154ION     CL49568  10.591  10.650   4.527  0.1326  0.1776  0.0384
36155ION     CL49569  15.950  11.939   4.455 -0.2625  0.0581  0.0601
36156ION     CL49570   2.273   8.189   3.176  0.1041 -0.3759  0.1125
36157ION     CL49571   4.495  11.819  13.755 -0.3457 -0.1826 -0.0140
36158ION     CL49572  14.487  11.820  13.303  0.1370 -0.2024 -0.1940
36159ION     CL49573   3.069   9.082  14.316 -0.0643  0.1561  0.1109
36160ION     CL49574  15.176  10.587   4.738 -0.1124 -0.3873 -0.2315
36161ION     CL49575   3.964   3.254   4.970 -0.2272 -0.0843 -0.2721
36162ION     CL49576   8.250  14.687   2.604  0.0385  0.2076  0.2686
36163ION     CL49577  13.701   2.521  14.509  0.0882  0.0589 -0.1274
36164ION     CL49578  12.199   1.412   4.210 -0.2024 -0.0518 -0.1842
36165ION     CL49579   4.159   9.325  15.690  0.1795 -0.1951  0.1267
36166ION     CL49580  14.709   5.606  14.587 -0.2019 -0.2681  0.2003
36167ION     CL49581   2.647  14.037  14.903 -0.2724  0.0743  0.0350
36168ION     CL49582  13.882  16.693  14.534  0.0905  0.1442  0.0459
36169ION     CL49583   0.562   2.254  11.660  0.2954 -0.2376 -0.2423
36170ION     CL49584  14.630   0.170   0.966  0.0269 -0.1883  0.0084
36171ION     CL49585  13.520   7.855   1.281 -0.1097  0.2804  0.1546
36172ION     CL49586   5.932   1.579   3.551  0.1662 -0.0593  0.1472
36173ION     CL49587   5.653   1.817  11.007  0.1492  0.0977  0.0343
36174ION     CL49588   3.094   7.902   2.855  0.1866 -0.0319  0.1582
36175ION     CL49589   2.855   5.027  15.350  0.2476  0.3795 -0.0805
36176ION     CL49590  16.304   4.251   2.616  0.3504  0.0751  0.1322
36177ION     CL49591  14.606  12.967  13.890 -0.3542 -0.1444  0.0405
36178ION     CL49592   1.441   0.452   4.179  0.2381  0.1452  0.1756
  18.22447  18.22447  16.52723
