INSANE! Membrane UpperLeaflet>PSPI:POPI:POPS:YOPS:POPE:YOPE:POPC:YOPC:ERGO=6.0:14.0:21.0:9.0:9.0:21.0:12.0:48.0:60.0 LowerLeaflet>PSPI:POPI:POPS:YOPS:POPE:YOPE:POPC:YOPC:ERGO=6.0:14.0:21.0:9.0:9.0:21.0:12.0:48.0:60.0
49592
    1PSPI    C1    1   6.847  13.278  10.700  0.1130 -0.0299 -0.2138
    1PSPI    C2    2   6.865  12.896  10.817  0.1212  0.0339 -0.0010
    1PSPI    C3    3   6.773  13.181  11.081  0.2227  0.1919 -0.1343
    1PSPI   PO4    4   7.092  13.276  10.550  0.0006  0.0873  0.2481
    1PSPI   GL1    5   7.279  13.277  10.142 -0.3853  0.1946 -0.0509
    1PSPI   GL2    6   7.484  13.302  10.002  0.0400  0.2152 -0.0820
    1PSPI   C1A    7   7.162  13.577   9.825  0.0670 -0.0808  0.5293
    1PSPI   C2A    8   7.097  13.684   9.441  0.3775 -0.1400  0.0771
    1PSPI   C3A    9   6.955  13.684   9.046  0.1043 -0.0977 -0.0101
    1PSPI   C4A   10   6.797  13.584   8.609 -0.1386  0.0955 -0.1418
    1PSPI   C1B   11   7.574  13.523   9.578  0.2182 -0.1110  0.0118
    1PSPI   C2B   12   7.700  13.398   9.123  0.0679 -0.2490  0.5829
    1PSPI   C3B   13   7.791  13.413   8.620  0.1455  0.2392 -0.2208
    1PSPI   C4B   14   7.858  12.896   8.435  0.0340 -0.0051  0.0963
    2PSPI    C1   15  11.219   1.679  10.333 -0.1428  0.0259 -0.0047
    2PSPI    C2   16  10.937   1.626  10.612 -0.0140 -0.1538  0.0938
    2PSPI    C3   17  11.174   1.947  10.626 -0.2469  0.0261 -0.0203
    2PSPI   PO4   18  11.151   1.552  10.092  0.2246 -0.1234 -0.3275
    2PSPI   GL1   19  11.241   1.307   9.707  0.1818  0.1386 -0.1542
    2PSPI   GL2   20  11.008   1.583   9.608 -0.0960  0.1017 -0.2268
    2PSPI   C1A   21  11.307   1.363   9.264 -0.0516 -0.4227  0.1290
    2PSPI   C2A   22  11.019   1.420   8.925 -0.1362 -0.2242  0.1016
    2PSPI   C3A   23  10.847   1.663   8.465 -0.0755 -0.2454  0.0855
    2PSPI   C4A   24  10.835   1.612   8.088 -0.2535 -0.3637  0.2543
    2PSPI   C1B   25  10.710   1.407   9.322  0.0110 -0.0144 -0.0103
    2PSPI   C2B   26  10.523   1.321   8.894  0.0769 -0.0943  0.0623
    2PSPI   C3B   27  10.325   1.570   8.443  0.1284  0.2818 -0.0346
    2PSPI   C4B   28  10.159   1.303   8.148 -0.0874  0.2461 -0.0390
    3PSPI    C1   29  10.075  12.698  10.739 -0.1180 -0.1708  0.0515
    3PSPI    C2   30  10.167  12.349  10.566  0.1574 -0.1501  0.1518
    3PSPI    C3   31  10.220  12.398  10.960  0.0395 -0.0224  0.1524
    3PSPI   PO4   32  10.181  12.934  10.642 -0.1784  0.2183  0.0253
    3PSPI   GL1   33  10.305  12.942  10.321 -0.0945 -0.2012  0.0982
    3PSPI   GL2   34  10.101  13.126  10.221  0.0892 -0.3558 -0.6101
    3PSPI   C1A   35  10.333  12.816   9.868  0.1644 -0.0984 -0.1064
    3PSPI   C2A   36  10.190  12.637   9.551  0.1524  0.2428  0.3606
    3PSPI   C3A   37  10.194  12.465   9.201  0.0165  0.3721 -0.0541
    3PSPI   C4A   38   9.996  12.076   9.067  0.1217 -0.1118  0.0530
    3PSPI   C1B   39  10.229  13.384   9.890  0.1906 -0.4703 -0.2649
    3PSPI   C2B   40  10.125  13.539   9.489 -0.2421 -0.4419  0.5220
    3PSPI   C3B   41  10.430  13.447   9.035  0.0867  0.0324  0.0859
    3PSPI   C4B   42  10.514  13.140   8.645  0.0625 -0.3502 -0.2268
    4PSPI    C1   43   3.904  10.276  10.281  0.0846 -0.0297  0.0102
    4PSPI    C2   44   3.712  10.621  10.345 -0.1155 -0.1360 -0.0082
    4PSPI    C3   45   4.020  10.517  10.578  0.1463  0.1990 -0.1960
    4PSPI   PO4   46   4.017  10.246  10.005 -0.1235  0.3241  0.1286
    4PSPI   GL1   47   3.900  10.218   9.605  0.0350 -0.1633  0.0465
    4PSPI   GL2   48   3.719  10.421   9.380 -0.0005 -0.0148  0.1250
    4PSPI   C1A   49   4.175  10.147   9.338 -0.3288  0.2432  0.0196
    4PSPI   C2A   50   4.496  10.214   8.958 -0.3448 -0.1631 -0.0161
    4PSPI   C3A   51   4.651  10.194   8.436 -0.1002 -0.2567  0.0315
    4PSPI   C4A   52   4.749  10.453   8.139  0.0984 -0.0615 -0.0751
    4PSPI   C1B   53   3.941  10.562   9.015  0.1100  0.0185  0.0411
    4PSPI   C2B   54   4.186  10.481   8.639 -0.0501  0.2001  0.3106
    4PSPI   C3B   55   4.221  10.476   8.183  0.2265  0.0442 -0.0639
    4PSPI   C4B   56   4.304  10.079   7.938 -0.1127 -0.3857  0.1771
    5PSPI    C1   57   8.693  13.174  10.816  0.0666  0.0964  0.2588
    5PSPI    C2   58   8.678  13.562  10.911  0.0080  0.0769  0.3294
    5PSPI    C3   59   8.669  13.285  11.200  0.1789  0.0262  0.2867
    5PSPI   PO4   60   8.635  13.171  10.585  0.1830  0.1653  0.3036
    5PSPI   GL1   61   8.881  13.246  10.249 -0.1813  0.4949 -0.1363
    5PSPI   GL2   62   9.121  13.394  10.149  0.1743  0.1182  0.0059
    5PSPI   C1A   63   8.872  13.046   9.819 -0.5150  0.0083 -0.2382
    5PSPI   C2A   64   8.511  12.774   9.610 -0.1512 -0.0237  0.2054
    5PSPI   C3A   65   8.265  12.768   9.142  0.0768 -0.0133 -0.0246
    5PSPI   C4A   66   8.227  12.644   8.661 -0.3162  0.0781  0.0777
    5PSPI   C1B   67   9.535  13.414   9.932 -0.0066 -0.0549  0.0623
    5PSPI   C2B   68   9.593  13.562   9.517 -0.2682  0.3312 -0.3446
    5PSPI   C3B   69   9.567  13.548   9.034 -0.2129 -0.0776  0.0566
    5PSPI   C4B   70   9.536  13.520   8.538  0.0610  0.1672 -0.2642
    6PSPI    C1   71   3.072   2.236  10.647 -0.0138  0.0071 -0.0153
    6PSPI    C2   72   3.199   1.878  10.771 -0.0008 -0.0184 -0.1022
    6PSPI    C3   73   3.397   2.209  10.879 -0.0808 -0.0275  0.0751
    6PSPI   PO4   74   3.027   2.141  10.417  0.0587 -0.3269  0.0676
    6PSPI   GL1   75   3.301   2.073  10.137  0.1206 -0.2925 -0.1627
    6PSPI   GL2   76   3.385   1.754  10.256  0.1004 -0.1838 -0.2214
    6PSPI   C1A   77   3.193   1.779   9.746 -0.1665  0.0856  0.0987
    6PSPI   C2A   78   3.082   1.845   9.412 -0.0102 -0.0432  0.1055
    6PSPI   C3A   79   2.880   1.654   9.061  0.2057  0.1342 -0.0132
    6PSPI   C4A   80   2.524   1.681   8.881 -0.0464  0.2085  0.1053
    6PSPI   C1B   81   3.049   1.369  10.149 -0.0380  0.2610 -0.0288
    6PSPI   C2B   82   2.834   0.955   9.997 -0.1156  0.3228 -0.1549
    6PSPI   C3B   83   2.501   0.706   9.953  0.1641  0.2136 -0.0001
    6PSPI   C4B   84   2.345   0.707   9.625  0.2007  0.3317  0.2541
    7PSPI    C1   85  14.305   7.229   9.590  0.0753  0.1115  0.0272
    7PSPI    C2   86  14.395   6.941   9.853 -0.2319 -0.1457 -0.1421
    7PSPI    C3   87  14.246   7.290   9.981  0.0338 -0.1016  0.0551
    7PSPI   PO4   88  14.195   7.099   9.388  0.1748  0.1844  0.1190
    7PSPI   GL1   89  14.045   7.025   8.971 -0.0327 -0.1094 -0.1457
    7PSPI   GL2   90  13.982   6.723   9.058  0.1873 -0.0875  0.1185
    7PSPI   C1A   91  13.780   6.964   8.623  0.1424  0.1927 -0.0350
    7PSPI   C2A   92  13.709   6.941   8.180 -0.0471 -0.0889 -0.2289
    7PSPI   C3A   93  13.905   6.772   7.788 -0.1414 -0.0851  0.0214
    7PSPI   C4A   94  13.763   6.274   7.804  0.1413  0.2509 -0.1374
    7PSPI   C1B   95  14.057   6.517   8.645  0.1251 -0.0427  0.1371
    7PSPI   C2B   96  14.047   6.669   8.348  0.1585 -0.1513  0.2819
    7PSPI   C3B   97  14.472   6.781   8.117  0.2443 -0.0897  0.0469
    7PSPI   C4B   98  14.730   6.699   7.888 -0.1985  0.0510 -0.1097
    8PSPI    C1   99   4.872  16.575  10.860  0.0974 -0.3365  0.2954
    8PSPI    C2  100   4.609  16.759  11.099  0.0880  0.0073  0.0276
    8PSPI    C3  101   4.992  16.728  11.209  0.1101  0.2784  0.0341
    8PSPI   PO4  102   4.827  16.701  10.629 -0.1149 -0.0421  0.0369
    8PSPI   GL1  103   4.569  16.447  10.278  0.0698  0.0501  0.1492
    8PSPI   GL2  104   4.971  16.268  10.318 -0.1214 -0.2036 -0.0826
    8PSPI   C1A  105   4.593  16.444   9.879  0.1499  0.1717  0.1961
    8PSPI   C2A  106   4.531  16.362   9.488  0.3994  0.0585 -0.1777
    8PSPI   C3A  107   4.363  16.228   9.155  0.0776  0.0454  0.2177
    8PSPI   C4A  108   4.377  15.913   8.840 -0.2426 -0.1481  0.1853
    8PSPI   C1B  109   5.123  16.649  10.044  0.1133  0.1515 -0.0310
    8PSPI   C2B  110   5.320  16.877   9.618 -0.1767  0.2625 -0.1203
    8PSPI   C3B  111   5.424  17.300   9.434 -0.0078 -0.0473 -0.0656
    8PSPI   C4B  112   5.381  17.574   9.176  0.2275  0.2192  0.3192
    9PSPI    C1  113   9.172  11.170   9.980  0.0620 -0.0270 -0.1730
    9PSPI    C2  114   9.338  11.194  10.344 -0.0974  0.2949 -0.1179
    9PSPI    C3  115   9.519  11.364  10.030  0.0267  0.0400 -0.1867
    9PSPI   PO4  116   8.983  11.157  10.002  0.0635 -0.2713 -0.0574
    9PSPI   GL1  117   8.846  11.354   9.605 -0.3357  0.1824 -0.0225
    9PSPI   GL2  118   8.935  11.026   9.444 -0.1363  0.0331  0.3166
    9PSPI   C1A  119   8.682  11.408   9.187  0.0288 -0.1315  0.1418
    9PSPI   C2A  120   8.624  11.271   8.836  0.0902 -0.3676 -0.1607
    9PSPI   C3A  121   8.381  10.958   8.545  0.2232  0.3483  0.0667
    9PSPI   C4A  122   8.149  11.108   8.179  0.2880 -0.1219 -0.1792
    9PSPI   C1B  123   9.005  11.029   9.029  0.0727  0.2419  0.0106
    9PSPI   C2B  124   9.005  11.171   8.595 -0.3225  0.1399 -0.0149
    9PSPI   C3B  125   8.812  11.491   8.375  0.1360  0.0644  0.5068
    9PSPI   C4B  126   8.829  11.638   7.920  0.1530  0.0214 -0.1968
   10PSPI    C1  127   3.418   8.165  10.224  0.0205 -0.0369  0.1382
   10PSPI    C2  128   3.810   8.106  10.172 -0.0378 -0.1115 -0.2462
   10PSPI    C3  129   3.673   8.472  10.256  0.1221 -0.1051 -0.0044
   10PSPI   PO4  130   3.302   8.099  10.039 -0.1993 -0.3124 -0.2309
   10PSPI   GL1  131   3.206   7.828   9.766  0.1469 -0.0391 -0.0160
   10PSPI   GL2  132   2.863   7.935   9.718 -0.1087  0.2515 -0.0623
   10PSPI   C1A  133   3.392   7.664   9.413 -0.1396 -0.0875  0.1419
   10PSPI   C2A  134   3.761   7.672   9.154  0.2029 -0.2898 -0.1198
   10PSPI   C3A  135   3.937   7.579   8.816 -0.0725 -0.0673  0.2516
   10PSPI   C4A  136   3.835   7.731   8.463  0.2477  0.1759 -0.2916
   10PSPI   C1B  137   2.904   7.868   9.214 -0.0435  0.0043 -0.0919
   10PSPI   C2B  138   2.893   7.585   8.745 -0.0554 -0.0052 -0.0198
   10PSPI   C3B  139   2.826   7.632   8.364 -0.0344  0.0097  0.1054
   10PSPI   C4B  140   2.480   7.553   8.099 -0.0628 -0.1554 -0.1406
   11PSPI    C1  141   3.354  17.346  10.607  0.2291 -0.2729 -0.1309
   11PSPI    C2  142   3.511  17.079  10.860  0.1595 -0.1821  0.0098
   11PSPI    C3  143   3.152  17.239  10.935  0.1476 -0.1384 -0.1362
   11PSPI   PO4  144   3.374  17.299  10.402  0.1215  0.3397 -0.1654
   11PSPI   GL1  145   3.470  17.044  10.058  0.2230 -0.0124 -0.4895
   11PSPI   GL2  146   3.771  16.826  10.037 -0.1225  0.2233  0.1883
   11PSPI   C1A  147   3.393  17.319   9.796 -0.1244 -0.2570 -0.0714
   11PSPI   C2A  148   3.228  17.315   9.498 -0.1220 -0.2456 -0.1935
   11PSPI   C3A  149   3.021  17.404   9.103  0.1488  0.3334 -0.3692
   11PSPI   C4A  150   2.818  17.736   8.845  0.2042 -0.3519 -0.1476
   11PSPI   C1B  151   3.623  16.842   9.560  0.0971 -0.0523 -0.4130
   11PSPI   C2B  152   3.421  17.007   9.215 -0.2831  0.0923  0.0427
   11PSPI   C3B  153   3.521  17.485   9.056  0.0915  0.1902  0.2575
   11PSPI   C4B  154   3.500  17.935   8.837 -0.0333 -0.2034  0.0788
   12PSPI    C1  155  13.914  13.227  11.209 -0.1437  0.0888 -0.0460
   12PSPI    C2  156  14.292  13.314  11.308 -0.1401  0.1221 -0.0888
   12PSPI    C3  157  14.148  12.946  11.372 -0.0673  0.0788 -0.1709
   12PSPI   PO4  158  13.885  13.464  11.024  0.0262 -0.1547 -0.2960
   12PSPI   GL1  159  14.303  13.455  10.813  0.1042 -0.0626  0.3641
   12PSPI   GL2  160  14.057  13.506  10.603  0.2682 -0.1108  0.2109
   12PSPI   C1A  161  14.777  13.580  10.584  0.1835 -0.3252  0.0689
   12PSPI   C2A  162  15.058  13.872  10.417 -0.0425  0.0941  0.1051
   12PSPI   C3A  163  15.370  14.129  10.033  0.2256 -0.1110 -0.2080
   12PSPI   C4A  164  15.528  14.176   9.562  0.0570  0.2304 -0.1815
   12PSPI   C1B  165  14.317  13.721  10.371 -0.0056  0.2515 -0.1890
   12PSPI   C2B  166  14.667  13.635  10.043 -0.1624 -0.0579 -0.3675
   12PSPI   C3B  167  14.591  13.600   9.620  0.0705  0.1024 -0.0136
   12PSPI   C4B  168  14.348  13.499   9.168 -0.2105  0.1149  0.1764
   13PSPI    C1  169   4.674   0.666  10.756 -0.1836  0.2433 -0.0120
   13PSPI    C2  170   5.067   0.734  10.725 -0.1290 -0.0974 -0.1110
   13PSPI    C3  171   4.909   0.635  11.078 -0.0963 -0.1360 -0.1071
   13PSPI   PO4  172   4.513   0.800  10.657  0.0249 -0.0193  0.2099
   13PSPI   GL1  173   4.255   0.840  10.296 -0.1979  0.1480 -0.0322
   13PSPI   GL2  174   4.531   0.905   9.945 -0.0039 -0.0092 -0.3011
   13PSPI   C1A  175   4.063   1.145  10.032  0.0186 -0.0333  0.1952
   13PSPI   C2A  176   3.786   1.104   9.635  0.0462 -0.0874  0.0209
   13PSPI   C3A  177   3.769   1.093   9.292 -0.2025  0.0304 -0.1050
   13PSPI   C4A  178   3.588   0.958   8.967  0.0090  0.0891 -0.1311
   13PSPI   C1B  179   4.355   0.848   9.650 -0.2869 -0.0901 -0.1347
   13PSPI   C2B  180   4.268   0.886   9.300 -0.2327  0.1587  0.1413
   13PSPI   C3B  181   4.125   0.926   8.890 -0.0932 -0.3196 -0.1036
   13PSPI   C4B  182   3.879   0.760   8.634 -0.0863 -0.1680 -0.3998
   14PSPI    C1  183   7.115   1.899  10.311 -0.0255 -0.1629  0.0781
   14PSPI    C2  184   7.382   1.682  10.108 -0.1189 -0.2822  0.0814
   14PSPI    C3  185   7.109   1.499  10.335 -0.0017 -0.1495  0.3322
   14PSPI   PO4  186   7.014   2.069  10.043 -0.0275  0.0624 -0.3036
   14PSPI   GL1  187   6.775   2.112   9.648 -0.0903 -0.0822 -0.1697
   14PSPI   GL2  188   6.923   2.275   9.466  0.1926  0.1826 -0.0568
   14PSPI   C1A  189   6.354   2.351   9.553  0.1363  0.0900 -0.1351
   14PSPI   C2A  190   6.236   2.390   9.141 -0.0033  0.0658  0.2463
   14PSPI   C3A  191   6.189   2.360   8.715  0.4313 -0.0374  0.2848
   14PSPI   C4A  192   6.269   2.221   8.283  0.0554  0.3286  0.0375
   14PSPI   C1B  193   6.647   2.167   9.070 -0.1270  0.0833 -0.1522
   14PSPI   C2B  194   6.611   2.136   8.612  0.1179 -0.0911 -0.0489
   14PSPI   C3B  195   6.361   1.803   8.503 -0.2327 -0.3375  0.0779
   14PSPI   C4B  196   6.365   1.640   8.175  0.2125 -0.2197 -0.0576
   15PSPI    C1  197  16.723   4.013  10.447 -0.0154 -0.0637  0.1488
   15PSPI    C2  198  16.386   3.836  10.571 -0.0574 -0.1191 -0.0404
   15PSPI    C3  199  16.378   4.216  10.446 -0.0104 -0.0553  0.1466
   15PSPI   PO4  200  16.831   3.779  10.230  0.1747  0.0945  0.0461
   15PSPI   GL1  201  16.927   3.802   9.837  0.1829  0.1152 -0.1761
   15PSPI   GL2  202  17.093   3.551   9.741  0.0181 -0.2172  0.1754
   15PSPI   C1A  203  16.602   3.592   9.462  0.0317 -0.0339 -0.1911
   15PSPI   C2A  204  16.484   3.461   9.050 -0.1708 -0.0592 -0.0480
   15PSPI   C3A  205  16.493   3.220   8.746  0.0792 -0.1881 -0.1052
   15PSPI   C4A  206  16.504   3.103   8.407  0.2097 -0.1602  0.4652
   15PSPI   C1B  207  16.965   3.254   9.498 -0.0213 -0.2358 -0.0520
   15PSPI   C2B  208  16.907   3.129   9.041  0.2062  0.0389  0.0492
   15PSPI   C3B  209  16.940   2.945   8.631  0.1488 -0.1482 -0.0268
   15PSPI   C4B  210  16.786   2.681   8.235 -0.2365 -0.1869  0.1763
   16PSPI    C1  211  13.774  14.453  10.929  0.4210  0.0637  0.1746
   16PSPI    C2  212  13.600  14.490  11.287 -0.2879  0.1759 -0.1658
   16PSPI    C3  213  13.681  14.816  11.070  0.2336  0.1147 -0.0742
   16PSPI   PO4  214  13.634  14.286  10.761  0.2917  0.1164  0.2286
   16PSPI   GL1  215  13.652  14.165  10.342 -0.0987  0.2282 -0.6537
   16PSPI   GL2  216  13.393  14.359  10.320 -0.1547  0.3047 -0.1020
   16PSPI   C1A  217  14.000  14.084  10.162  0.0835 -0.1149  0.0317
   16PSPI   C2A  218  14.239  14.019   9.808 -0.0415 -0.0861 -0.0196
   16PSPI   C3A  219  14.277  13.960   9.378 -0.1141 -0.0704 -0.1412
   16PSPI   C4A  220  14.214  14.048   8.873  0.2927 -0.1922  0.0914
   16PSPI   C1B  221  13.618  14.284   9.885  0.0557  0.0487 -0.2310
   16PSPI   C2B  222  13.872  14.385   9.518  0.4262  0.2019  0.4732
   16PSPI   C3B  223  14.085  14.518   9.186  0.1435  0.0873 -0.0389
   16PSPI   C4B  224  14.359  14.928   9.068  0.1418 -0.1477  0.3768
   17PSPI    C1  225   1.566   4.774  10.446 -0.0306  0.0261 -0.0476
   17PSPI    C2  226   1.684   4.633  10.801  0.1421 -0.1880 -0.1873
   17PSPI    C3  227   1.295   4.650  10.713  0.0904  0.0013  0.0652
   17PSPI   PO4  228   1.737   4.988  10.436 -0.3334  0.1556  0.0565
   17PSPI   GL1  229   1.766   5.208  10.081  0.0030 -0.2180  0.1523
   17PSPI   GL2  230   1.748   5.375   9.831 -0.1519 -0.1859  0.0694
   17PSPI   C1A  231   2.017   4.964   9.750  0.2471 -0.0363  0.2551
   17PSPI   C2A  232   2.288   5.114   9.395  0.0201  0.0322 -0.1267
   17PSPI   C3A  233   2.306   5.136   8.962 -0.4796 -0.2054 -0.1103
   17PSPI   C4A  234   2.544   5.231   8.592  0.0349 -0.0890 -0.1057
   17PSPI   C1B  235   1.916   5.426   9.489  0.0765  0.1606 -0.3157
   17PSPI   C2B  236   2.057   5.570   9.113 -0.3241 -0.1538  0.0432
   17PSPI   C3B  237   2.489   5.637   8.931 -0.0499  0.0911  0.1966
   17PSPI   C4B  238   2.797   5.256   9.074 -0.1437  0.3953  0.0272
   18PSPI    C1  239  14.419   5.357  10.282  0.0776  0.0310  0.2155
   18PSPI    C2  240  14.439   4.957  10.289 -0.1050  0.0065 -0.2893
   18PSPI    C3  241  14.773   5.175  10.327 -0.0001 -0.1914 -0.0456
   18PSPI   PO4  242  14.238   5.388  10.087 -0.1554  0.1299  0.0882
   18PSPI   GL1  243  14.292   5.174   9.674 -0.0424 -0.0319 -0.1297
   18PSPI   GL2  244  14.371   5.133   9.368  0.0999  0.0260 -0.0629
   18PSPI   C1A  245  14.061   4.825   9.511 -0.1284 -0.3220  0.2164
   18PSPI   C2A  246  14.036   4.333   9.455 -0.0430  0.4580  0.1248
   18PSPI   C3A  247  13.963   3.892   9.623 -0.0882  0.3418 -0.1156
   18PSPI   C4A  248  13.855   3.403   9.377  0.1574  0.1761  0.2701
   18PSPI   C1B  249  14.314   5.033   8.870  0.2971 -0.2082 -0.0797
   18PSPI   C2B  250  14.216   4.873   8.493  0.0488  0.1851 -0.3152
   18PSPI   C3B  251  14.078   4.869   8.117  0.1590  0.2123  0.0928
   18PSPI   C4B  252  14.134   4.868   7.689 -0.1413  0.3402  0.0044
   19PSPI    C1  253  11.179   9.709  10.087 -0.0218  0.1203 -0.0396
   19PSPI    C2  254  11.244   9.502  10.424 -0.1237 -0.0088 -0.0982
   19PSPI    C3  255  10.947   9.396  10.178  0.0868 -0.0503 -0.3385
   19PSPI   PO4  256  11.389   9.775   9.925  0.2970  0.1232 -0.1877
   19PSPI   GL1  257  11.494   9.971   9.627  0.3405  0.1883 -0.0322
   19PSPI   GL2  258  11.350  10.235   9.465 -0.3567  0.2639 -0.2348
   19PSPI   C1A  259  11.663   9.844   9.287  0.0530  0.2023 -0.0007
   19PSPI   C2A  260  11.744   9.760   8.920  0.1389 -0.0930  0.2343
   19PSPI   C3A  261  11.836   9.602   8.500 -0.1815 -0.0519  0.1646
   19PSPI   C4A  262  11.557   9.617   8.185  0.2497  0.1296 -0.1032
   19PSPI   C1B  263  11.296  10.083   9.009 -0.3569  0.1913  0.4839
   19PSPI   C2B  264  11.333   9.889   8.647 -0.0325  0.2748 -0.1065
   19PSPI   C3B  265  11.170   9.998   8.341  0.1996  0.3219  0.1134
   19PSPI   C4B  266  11.341   9.988   7.979 -0.1533  0.0818  0.2294
   20PSPI    C1  267  14.862   6.310  10.100 -0.0930 -0.1278  0.0702
   20PSPI    C2  268  14.519   6.493  10.006  0.0670  0.0025 -0.2746
   20PSPI    C3  269  14.858   6.704  10.032  0.1080 -0.1087  0.1634
   20PSPI   PO4  270  14.857   6.161   9.988 -0.0885 -0.1345  0.0916
   20PSPI   GL1  271  14.854   6.054   9.501 -0.2465  0.0691 -0.3007
   20PSPI   GL2  272  15.013   5.794   9.622  0.2849 -0.0515  0.3876
   20PSPI   C1A  273  14.720   5.936   9.153 -0.2232 -0.0741 -0.0393
   20PSPI   C2A  274  14.654   5.847   8.763  0.2011  0.1480 -0.2309
   20PSPI   C3A  275  14.654   5.788   8.392 -0.0189  0.0077  0.4258
   20PSPI   C4A  276  14.764   5.619   8.028 -0.2937 -0.1271 -0.2351
   20PSPI   C1B  277  15.158   5.781   9.207  0.1398  0.2590 -0.3419
   20PSPI   C2B  278  15.247   5.715   8.932  0.0287  0.1338 -0.1774
   20PSPI   C3B  279  15.605   5.565   8.702 -0.1800 -0.0838 -0.0292
   20PSPI   C4B  280  15.981   5.608   8.700  0.0026  0.0091 -0.0897
   21POPI    C1  281   5.507   6.445  10.287 -0.1114  0.3904 -0.1065
   21POPI    C2  282   5.611   6.668  10.603  0.2100  0.0523  0.0334
   21POPI    C3  283   5.477   6.295  10.657  0.0015  0.0886 -0.2167
   21POPI   PO4  284   5.439   6.627  10.123  0.0546 -0.0103 -0.1550
   21POPI   GL1  285   5.598   6.949   9.750 -0.4548 -0.0056 -0.2242
   21POPI   GL2  286   5.452   6.673   9.650 -0.0922 -0.0467  0.1413
   21POPI   C1A  287   5.546   7.146   9.526  0.2769  0.1719 -0.3045
   21POPI   D2A  288   5.631   7.208   9.075 -0.1534 -0.1040  0.0502
   21POPI   C3A  289   5.547   7.243   8.654 -0.0241 -0.1156  0.0684
   21POPI   C4A  290   5.466   7.237   8.232 -0.1049 -0.0475  0.2381
   21POPI   C1B  291   5.463   6.747   9.161 -0.2027  0.1532 -0.1819
   21POPI   C2B  292   5.435   6.631   8.787  0.0857  0.3078 -0.1409
   21POPI   C3B  293   5.397   6.744   8.356  0.1389 -0.1306  0.2613
   21POPI   C4B  294   5.108   6.939   8.047 -0.0293 -0.2976 -0.1965
   22POPI    C1  295   7.881   9.535  10.737  0.0510  0.1404  0.0150
   22POPI    C2  296   8.115   9.722  10.471  0.0168  0.0956 -0.0471
   22POPI    C3  297   8.189   9.757  10.863  0.2911 -0.1360 -0.0756
   22POPI   PO4  298   7.623   9.642  10.625 -0.1467  0.0615  0.0345
   22POPI   GL1  299   7.602   9.654  10.172 -0.1269  0.0202  0.2747
   22POPI   GL2  300   7.732   9.934  10.175  0.2075  0.0350  0.0097
   22POPI   C1A  301   7.537   9.674   9.771 -0.2168 -0.0602 -0.1158
   22POPI   D2A  302   7.544   9.505   9.418  0.0715 -0.0339 -0.1275
   22POPI   C3A  303   7.395   9.279   9.029  0.0450 -0.1115 -0.1925
   22POPI   C4A  304   7.245   8.983   8.840  0.1592 -0.0896 -0.2053
   22POPI   C1B  305   7.977   9.970   9.816 -0.0341 -0.2786  0.0651
   22POPI   C2B  306   7.816  10.058   9.403 -0.0768 -0.0735 -0.1322
   22POPI   C3B  307   7.502  10.108   9.171  0.3795  0.5199  0.0199
   22POPI   C4B  308   7.231  10.123   8.834  0.2043 -0.0202 -0.1661
   23POPI    C1  309  15.349  12.356  10.857  0.0058  0.0866 -0.0583
   23POPI    C2  310  15.604  12.663  10.872  0.3009 -0.1589  0.0541
   23POPI    C3  311  15.515  12.461  11.205 -0.1025 -0.0301  0.0295
   23POPI   PO4  312  15.172  12.322  10.738  0.2742 -0.0813  0.0352
   23POPI   GL1  313  15.080  12.393  10.329  0.1720  0.1837  0.0103
   23POPI   GL2  314  14.798  12.259  10.331  0.0624  0.1443  0.0224
   23POPI   C1A  315  15.294  12.350   9.971  0.0697 -0.1543 -0.2143
   23POPI   D2A  316  15.360  12.344   9.470  0.1004 -0.6163 -0.1690
   23POPI   C3A  317  15.662  12.171   9.341 -0.1205  0.1532 -0.0512
   23POPI   C4A  318  15.831  11.797   9.253  0.2018 -0.2298 -0.0114
   23POPI   C1B  319  14.823  12.095   9.978 -0.2629  0.0345 -0.1051
   23POPI   C2B  320  14.771  12.243   9.543  0.1977  0.0646  0.0202
   23POPI   C3B  321  14.896  12.315   9.200  0.0137  0.2072  0.0002
   23POPI   C4B  322  14.838  12.332   8.813 -0.0729 -0.1467  0.0064
   24POPI    C1  323  18.214   7.114   9.870  0.1753  0.1333 -0.1133
   24POPI    C2  324  18.002   6.868  10.104  0.1519 -0.0942 -0.3682
   24POPI    C3  325  17.966   7.264  10.146  0.0377 -0.1314 -0.0891
   24POPI   PO4  326  18.377   7.009   9.777 -0.0496  0.1494  0.1238
   24POPI   GL1  327  18.414   6.770   9.416 -0.0829  0.1443  0.4436
   24POPI   GL2  328  18.176   6.982   9.329 -0.0681 -0.3994  0.1853
   24POPI   C1A  329  18.601   6.954   9.009 -0.0119  0.0786  0.4023
   24POPI   D2A  330  18.593   7.196   8.648 -0.1788  0.1912  0.0033
   24POPI   C3A  331  18.746   7.132   8.294  0.3313  0.2027 -0.0655
   24POPI   C4A  332  19.089   7.083   8.058  0.0751  0.1990  0.0195
   24POPI   C1B  333  18.122   7.011   8.882 -0.1445 -0.1418 -0.0295
   24POPI   C2B  334  18.210   6.914   8.442 -0.0246 -0.0084  0.2228
   24POPI   C3B  335  18.066   6.820   8.053  0.0081 -0.2961  0.1624
   24POPI   C4B  336  18.123   6.479   7.765 -0.2117 -0.1015 -0.0052
   25POPI    C1  337  11.510  12.276  10.519 -0.0360  0.1069 -0.1133
   25POPI    C2  338  11.601  12.129  10.880  0.0208  0.4068 -0.0023
   25POPI    C3  339  11.272  12.004  10.690  0.0062  0.2258  0.1396
   25POPI   PO4  340  11.790  12.377  10.236 -0.0899  0.4159  0.0022
   25POPI   GL1  341  12.106  12.077  10.039  0.2589 -0.1780 -0.0362
   25POPI   GL2  342  11.836  11.899  10.000 -0.1622 -0.5742 -0.3243
   25POPI   C1A  343  12.176  12.209   9.595 -0.3399  0.0158 -0.2177
   25POPI   D2A  344  12.116  12.159   9.182 -0.3702 -0.2466  0.0833
   25POPI   C3A  345  12.454  12.376   8.848  0.1669  0.1897  0.2618
   25POPI   C4A  346  12.718  12.428   8.533  0.0706  0.1542 -0.1466
   25POPI   C1B  347  11.651  12.083   9.609 -0.1486  0.0758  0.0336
   25POPI   C2B  348  11.602  12.181   9.164  0.0295 -0.1991  0.1623
   25POPI   C3B  349  11.607  12.290   8.799  0.0343 -0.2201 -0.1160
   25POPI   C4B  350  12.047  12.532   8.546 -0.4002 -0.2884  0.1203
   26POPI    C1  351  13.659  16.584  10.848 -0.0378  0.0304  0.0461
   26POPI    C2  352  13.352  16.545  11.100  0.0219  0.0023  0.1149
   26POPI    C3  353  13.579  16.874  11.111  0.0413 -0.0110  0.1166
   26POPI   PO4  354  13.564  16.402  10.631 -0.1750 -0.0231 -0.2372
   26POPI   GL1  355  13.397  16.469  10.204  0.2052 -0.2282  0.0927
   26POPI   GL2  356  13.504  16.117  10.177 -0.0385 -0.4607 -0.0140
   26POPI   C1A  357  13.574  16.591   9.855  0.1825 -0.1906 -0.1169
   26POPI   D2A  358  13.535  16.510   9.437  0.1850 -0.2125  0.1803
   26POPI   C3A  359  13.845  16.679   9.147  0.2242 -0.2209  0.2564
   26POPI   C4A  360  14.044  16.378   9.072 -0.1018  0.0603  0.0591
   26POPI   C1B  361  13.666  16.063   9.781  0.1287  0.0900 -0.0915
   26POPI   C2B  362  13.788  16.054   9.345  0.0804 -0.0782  0.1351
   26POPI   C3B  363  13.924  15.830   8.872  0.1034  0.1313 -0.1095
   26POPI   C4B  364  14.271  15.972   8.675  0.1689  0.4022  0.0152
   27POPI    C1  365   9.384   3.912  10.117 -0.0882 -0.1644 -0.1882
   27POPI    C2  366   9.402   3.535  10.249 -0.1977 -0.1132 -0.0245
   27POPI    C3  367   9.073   3.753  10.312 -0.1166  0.0253 -0.0765
   27POPI   PO4  368   9.418   3.969   9.818  0.3032  0.1816 -0.1724
   27POPI   GL1  369   9.608   4.041   9.504 -0.0755  0.0522  0.0998
   27POPI   GL2  370   9.374   4.006   9.254 -0.2752 -0.1344 -0.2199
   27POPI   C1A  371   9.823   4.334   9.216  0.4967 -0.0783 -0.0746
   27POPI   D2A  372  10.154   4.406   8.880  0.3268  0.0635 -0.0526
   27POPI   C3A  373  10.114   4.502   8.481 -0.0875  0.1291  0.1319
   27POPI   C4A  374   9.792   4.676   8.162 -0.0837 -0.0495 -0.0380
   27POPI   C1B  375   9.718   3.893   8.885 -0.3366 -0.1896 -0.1928
   27POPI   C2B  376   9.598   3.961   8.421 -0.0537 -0.1176  0.0252
   27POPI   C3B  377   9.468   3.580   8.090  0.0597 -0.0956  0.1197
   27POPI   C4B  378   9.152   3.258   7.991  0.0528  0.2545 -0.1548
   28POPI    C1  379  18.086   5.308  10.235 -0.1126 -0.2948  0.2562
   28POPI    C2  380  17.862   5.375  10.560 -0.0782  0.1150  0.2013
   28POPI    C3  381  18.193   5.590  10.498 -0.0772  0.0313 -0.0998
   28POPI   PO4  382  17.944   5.230  10.085 -0.0905  0.1293  0.3033
   28POPI   GL1  383  17.788   5.080   9.687  0.1696  0.0400 -0.0698
   28POPI   GL2  384  18.018   4.885   9.677  0.2204  0.1882 -0.0608
   28POPI   C1A  385  17.539   4.859   9.316 -0.0267 -0.0401  0.0378
   28POPI   D2A  386  17.725   4.682   8.977 -0.2877  0.0565 -0.2138
   28POPI   C3A  387  17.494   4.825   8.559  0.1568  0.0895 -0.2086
   28POPI   C4A  388  17.332   4.802   8.034 -0.3679 -0.0845  0.0659
   28POPI   C1B  389  18.088   4.847   9.232 -0.2292  0.0046 -0.0969
   28POPI   C2B  390  18.175   4.603   8.848 -0.0030 -0.1736 -0.1095
   28POPI   C3B  391  17.916   4.428   8.543 -0.0042  0.0934  0.0025
   28POPI   C4B  392  17.674   4.506   8.178  0.0633 -0.0847  0.1292
   29POPI    C1  393   8.425   0.240  10.194  0.1305 -0.0580  0.0791
   29POPI    C2  394   8.114   0.086   9.996  0.1609  0.1544 -0.1376
   29POPI    C3  395   8.064   0.227  10.367  0.0061  0.1555 -0.1580
   29POPI   PO4  396   8.510   0.432  10.108 -0.1860  0.3182  0.0603
   29POPI   GL1  397   8.638   0.455   9.639  0.2518 -0.0208  0.0434
   29POPI   GL2  398   8.399   0.666   9.476  0.1398  0.2127  0.2536
   29POPI   C1A  399   8.765   0.348   9.145  0.1474  0.1649 -0.0196
   29POPI   D2A  400   8.779   0.432   8.725 -0.1055  0.0397  0.0745
   29POPI   C3A  401   8.947   0.260   8.547 -0.4340  0.2590  0.0636
   29POPI   C4A  402   9.321   0.247   8.284  0.0467  0.2403  0.0190
   29POPI   C1B  403   8.493   0.747   8.974 -0.0092  0.1512 -0.0420
   29POPI   C2B  404   8.648   0.921   8.539  0.0719  0.1318  0.0936
   29POPI   C3B  405   8.862   0.969   8.216  0.1201 -0.0721  0.0540
   29POPI   C4B  406   8.689   0.875   8.021  0.1205 -0.2371  0.1966
   30POPI    C1  407   0.962  13.596  10.713  0.1314 -0.1480  0.2563
   30POPI    C2  408   0.709  13.906  10.724  0.0045 -0.2217 -0.2726
   30POPI    C3  409   0.924  13.811  11.048  0.0367  0.4057 -0.0962
   30POPI   PO4  410   1.111  13.642  10.530 -0.0853 -0.3676  0.0580
   30POPI   GL1  411   1.051  13.680  10.082  0.0544  0.1283 -0.0203
   30POPI   GL2  412   1.425  13.501  10.053 -0.2371  0.0352  0.0377
   30POPI   C1A  413   1.056  13.721   9.701 -0.1187 -0.0768 -0.0037
   30POPI   D2A  414   0.891  13.789   9.300 -0.3940  0.1864  0.1050
   30POPI   C3A  415   0.544  13.841   9.219 -0.3474  0.0387  0.3392
   30POPI   C4A  416   0.124  13.881   9.364  0.0448  0.0437  0.1124
   30POPI   C1B  417   1.543  13.528   9.650 -0.0636 -0.1617  0.1539
   30POPI   C2B  418   1.701  13.409   9.306  0.2263 -0.1615 -0.0102
   30POPI   C3B  419   1.738  13.493   8.919  0.0723  0.2322 -0.1412
   30POPI   C4B  420   1.952  13.785   8.759 -0.2571 -0.0675 -0.2650
   31POPI    C1  421  13.976   1.407  10.364  0.0453 -0.0397 -0.0743
   31POPI    C2  422  14.199   1.667  10.571  0.1601 -0.0440 -0.1913
   31POPI    C3  423  14.219   1.276  10.654  0.0844 -0.0292 -0.1020
   31POPI   PO4  424  13.964   1.548  10.050  0.0419  0.1302 -0.0142
   31POPI   GL1  425  14.320   1.644   9.723  0.0269 -0.2032 -0.0473
   31POPI   GL2  426  14.059   1.935   9.753  0.2757  0.2202 -0.2111
   31POPI   C1A  427  14.377   1.274   9.523  0.0126  0.0433  0.0883
   31POPI   D2A  428  14.695   1.282   9.218 -0.0194 -0.0422  0.3509
   31POPI   C3A  429  14.753   0.926   8.868  0.0606  0.2092  0.0793
   31POPI   C4A  430  14.546   0.647   8.664  0.3849  0.1610  0.1786
   31POPI   C1B  431  14.125   2.120   9.306 -0.2734 -0.0648  0.0057
   31POPI   C2B  432  14.193   2.137   8.840 -0.1844  0.3078  0.0071
   31POPI   C3B  433  14.259   2.451   8.574  0.0080 -0.0915  0.0916
   31POPI   C4B  434  13.968   2.497   8.211  0.1258 -0.0271 -0.3734
   32POPI    C1  435   1.924  10.927  10.276 -0.1977 -0.1692  0.0595
   32POPI    C2  436   1.611  11.045  10.495 -0.1223 -0.0906  0.1257
   32POPI    C3  437   1.946  10.923  10.675 -0.0370  0.0361  0.0544
   32POPI   PO4  438   1.845  10.964   9.947  0.1387 -0.4631  0.0798
   32POPI   GL1  439   1.837  11.386   9.611 -0.1613  0.2297  0.0488
   32POPI   GL2  440   1.985  10.989   9.437  0.1647  0.1156  0.1564
   32POPI   C1A  441   2.193  11.468   9.282  0.2572 -0.0878 -0.3557
   32POPI   D2A  442   2.453  11.591   9.065  0.0430 -0.0288  0.0102
   32POPI   C3A  443   2.615  11.224   8.796  0.1277 -0.4207 -0.3297
   32POPI   C4A  444   2.749  11.027   8.419 -0.0164  0.0765 -0.1004
   32POPI   C1B  445   2.202  10.898   9.099  0.0706 -0.1959 -0.2377
   32POPI   C2B  446   2.293  10.872   8.690  0.1835 -0.1170 -0.0185
   32POPI   C3B  447   2.299  10.754   8.270  0.0055  0.2208  0.2270
   32POPI   C4B  448   2.583  10.662   7.998  0.0774 -0.5951 -0.0234
   33POPI    C1  449   8.855  18.345  10.303 -0.1557 -0.0516 -0.0484
   33POPI    C2  450   9.018  18.236  10.652  0.3337  0.1634 -0.2008
   33POPI    C3  451   8.881  17.957  10.399  0.1713 -0.0043  0.0671
   33POPI   PO4  452   9.057  18.430  10.175  0.1343 -0.0588 -0.0338
   33POPI   GL1  453   9.160  18.621   9.689  0.1168  0.1055  0.2793
   33POPI   GL2  454   9.041  18.395   9.479 -0.0052 -0.0899 -0.4536
   33POPI   C1A  455   9.505  18.479   9.355 -0.0416  0.1144  0.2287
   33POPI   D2A  456   9.879  18.256   9.226 -0.0016  0.0487 -0.0770
   33POPI   C3A  457   9.867  17.834   8.960 -0.0414  0.1891 -0.1938
   33POPI   C4A  458  10.144  17.575   8.851 -0.1036  0.3395  0.0707
   33POPI   C1B  459   9.028  18.337   8.966 -0.0743  0.1706 -0.1043
   33POPI   C2B  460   9.043  18.178   8.512 -0.0108  0.0033  0.1076
   33POPI   C3B  461   9.057  18.214   8.180  0.0172 -0.1801  0.0790
   33POPI   C4B  462   8.765  18.229   7.783 -0.0262 -0.5230 -0.1913
   34POPI    C1  463  16.598  12.957  10.871  0.0871  0.1386  0.1678
   34POPI    C2  464  16.745  12.743  11.174  0.0459 -0.4166 -0.1908
   34POPI    C3  465  16.356  12.835  11.164  0.0451 -0.4077 -0.0824
   34POPI   PO4  466  16.709  12.824  10.624 -0.0791  0.0895  0.0063
   34POPI   GL1  467  16.652  12.909  10.237 -0.1525  0.1548  0.1114
   34POPI   GL2  468  16.810  12.739  10.009 -0.1864  0.3796  0.1740
   34POPI   C1A  469  16.531  13.131   9.915 -0.0615  0.2410  0.3073
   34POPI   D2A  470  16.536  13.339   9.512 -0.2331  0.2310 -0.2318
   34POPI   C3A  471  16.786  13.573   9.430 -0.0936 -0.2283  0.0764
   34POPI   C4A  472  16.914  14.004   9.290  0.2958 -0.1854 -0.1231
   34POPI   C1B  473  16.882  12.723   9.578 -0.2576 -0.0819 -0.1068
   34POPI   C2B  474  16.705  12.696   9.101 -0.2351 -0.0332  0.3158
   34POPI   C3B  475  16.759  12.861   8.744 -0.1058 -0.0148  0.1297
   34POPI   C4B  476  16.769  13.276   8.543  0.1504  0.1894  0.0356
   35POPI    C1  477   9.843   3.306  10.446 -0.2200 -0.0769 -0.0141
   35POPI    C2  478   9.528   3.059  10.428 -0.2342 -0.0782  0.2307
   35POPI    C3  479   9.531   3.362  10.689 -0.0952  0.0115  0.1266
   35POPI   PO4  480   9.992   3.210  10.181  0.0450 -0.2794  0.1116
   35POPI   GL1  481  10.135   3.179   9.760 -0.0158 -0.0925  0.0256
   35POPI   GL2  482  10.008   3.361   9.497 -0.1323 -0.0886  0.2294
   35POPI   C1A  483  10.050   2.808   9.536 -0.3268  0.2333  0.0360
   35POPI   D2A  484   9.758   2.520   9.296  0.1426  0.1539  0.5728
   35POPI   C3A  485   9.665   2.286   9.059 -0.1274 -0.0121  0.1575
   35POPI   C4A  486   9.345   2.011   8.809  0.2168  0.1515  0.0934
   35POPI   C1B  487  10.186   3.391   9.051  0.0701  0.1364 -0.1739
   35POPI   C2B  488   9.954   3.521   8.607  0.3346 -0.4627  0.1216
   35POPI   C3B  489  10.000   3.587   8.141 -0.1482 -0.0552  0.1331
   35POPI   C4B  490   9.794   3.707   7.687 -0.1216 -0.1459 -0.1436
   36POPI    C1  491   8.356   9.130  10.317 -0.1302 -0.0089 -0.1973
   36POPI    C2  492   8.484   9.348  10.627  0.1212 -0.0020 -0.3040
   36POPI    C3  493   8.209   9.063  10.683  0.2022 -0.0356 -0.0653
   36POPI   PO4  494   8.303   9.258  10.122 -0.0621 -0.0553 -0.0187
   36POPI   GL1  495   8.014   9.449   9.901 -0.2029 -0.2065 -0.2152
   36POPI   GL2  496   7.834   9.222   9.754 -0.3483 -0.1287  0.3136
   36POPI   C1A  497   8.074   9.596   9.478  0.3191  0.3178  0.5308
   36POPI   D2A  498   8.020   9.698   9.076 -0.1655  0.1595  0.1092
   36POPI   C3A  499   7.717   9.678   8.976  0.2463 -0.3310  0.0748
   36POPI   C4A  500   7.379   9.691   8.680 -0.1068 -0.0184  0.2735
   36POPI   C1B  501   7.891   9.177   9.294 -0.2458 -0.0023 -0.2273
   36POPI   C2B  502   7.917   9.252   8.940  0.1844 -0.1342  0.0777
   36POPI   C3B  503   7.684   9.323   8.557 -0.0952  0.2148  0.0249
   36POPI   C4B  504   7.370   9.111   8.245  0.1205 -0.4336 -0.0493
   37POPI    C1  505   8.906   1.120  10.317  0.0608 -0.0580 -0.0224
   37POPI    C2  506   8.732   0.775  10.420 -0.0736  0.0573  0.1422
   37POPI    C3  507   8.950   0.977  10.688  0.0577  0.0692  0.0277
   37POPI   PO4  508   8.967   1.102  10.070  0.0356 -0.0205 -0.0454
   37POPI   GL1  509   9.223   0.963   9.770 -0.0274 -0.0407 -0.1298
   37POPI   GL2  510   8.890   0.863   9.611 -0.0622  0.0924 -0.1941
   37POPI   C1A  511   9.355   0.701   9.481 -0.0882 -0.2219 -0.1830
   37POPI   D2A  512   9.235   0.418   9.179  0.0309 -0.0158  0.0201
   37POPI   C3A  513   9.455   0.449   8.786 -0.1241  0.2183 -0.1809
   37POPI   C4A  514   9.836   0.627   8.615 -0.2606  0.1572 -0.0492
   37POPI   C1B  515   8.918   0.835   9.189  0.0706 -0.1327 -0.3296
   37POPI   C2B  516   9.046   0.866   8.796 -0.0521 -0.1557 -0.2466
   37POPI   C3B  517   9.232   0.751   8.488 -0.2866  0.0944  0.1807
   37POPI   C4B  518   9.410   0.701   8.077 -0.4633 -0.2467  0.2029
   38POPI    C1  519   4.427  15.132  11.103 -0.0711 -0.0221  0.0975
   38POPI    C2  520   4.070  15.020  10.960 -0.1068  0.0299  0.1458
   38POPI    C3  521   4.092  15.264  11.277 -0.0291  0.1435  0.0544
   38POPI   PO4  522   4.631  15.082  10.926  0.2674  0.1282  0.0491
   38POPI   GL1  523   4.642  15.250  10.564  0.1239 -0.2354 -0.0416
   38POPI   GL2  524   4.278  15.247  10.566  0.0802  0.2174 -0.0387
   38POPI   C1A  525   4.989  15.271  10.306  0.1541  0.1468 -0.4637
   38POPI   D2A  526   5.323  15.213  10.009 -0.0486 -0.1014  0.1372
   38POPI   C3A  527   5.353  14.981   9.545 -0.4101 -0.0433  0.1133
   38POPI   C4A  528   5.553  15.043   9.194  0.2242  0.0055  0.2045
   38POPI   C1B  529   4.488  15.549  10.246  0.0711  0.0172 -0.1235
   38POPI   C2B  530   4.510  15.507   9.748 -0.1492  0.0994  0.0462
   38POPI   C3B  531   4.399  15.465   9.264 -0.1982 -0.1959  0.0319
   38POPI   C4B  532   4.392  15.391   8.752  0.3277 -0.0690 -0.1246
   39POPI    C1  533   7.905   4.003   9.832  0.0738 -0.0852  0.0800
   39POPI    C2  534   7.863   3.883  10.211  0.2122 -0.0413  0.1099
   39POPI    C3  535   7.755   4.254  10.105 -0.0665 -0.1366  0.0509
   39POPI   PO4  536   7.911   3.739   9.716 -0.4886 -0.0487  0.1483
   39POPI   GL1  537   7.868   3.649   9.325 -0.0189 -0.0624 -0.2264
   39POPI   GL2  538   7.676   3.937   9.277 -0.0937 -0.2587  0.1848
   39POPI   C1A  539   7.712   3.544   8.942 -0.3715 -0.1145 -0.2701
   39POPI   D2A  540   7.633   3.583   8.465 -0.0724 -0.0736 -0.0032
   39POPI   C3A  541   7.459   3.443   8.106 -0.1433  0.0234  0.2426
   39POPI   C4A  542   7.247   3.615   7.871 -0.1707 -0.2464  0.2771
   39POPI   C1B  543   7.703   3.994   8.793  0.3135 -0.0779  0.4060
   39POPI   C2B  544   7.792   4.112   8.408 -0.0849  0.2256 -0.2700
   39POPI   C3B  545   7.900   4.388   8.079 -0.1071 -0.2526 -0.1730
   39POPI   C4B  546   7.942   4.714   7.741 -0.0241  0.0964 -0.0452
   40POPI    C1  547   0.146   2.030  10.629 -0.0411  0.0628  0.1015
   40POPI    C2  548  -0.185   2.236  10.539 -0.0853  0.1240  0.3917
   40POPI    C3  549   0.171   2.362  10.407 -0.1780  0.0371  0.0462
   40POPI   PO4  550   0.033   1.788  10.628  0.1836  0.1591 -0.3175
   40POPI   GL1  551   0.197   1.567  10.298 -0.3415  0.2711  0.0044
   40POPI   GL2  552  -0.099   1.864  10.175  0.1393  0.0774  0.0122
   40POPI   C1A  553  -0.081   1.390   9.935 -0.0335 -0.0568 -0.0711
   40POPI   D2A  554  -0.147   1.356   9.552 -0.1349  0.0200  0.1351
   40POPI   C3A  555  -0.329   1.211   9.150 -0.0004 -0.2853  0.2956
   40POPI   C4A  556  -0.191   1.156   8.695  0.2874  0.3431  0.4334
   40POPI   C1B  557  -0.286   1.796   9.770  0.2802 -0.0639 -0.0851
   40POPI   C2B  558  -0.354   1.811   9.328  0.0623 -0.0920 -0.1193
   40POPI   C3B  559  -0.519   1.857   8.964  0.4191  0.3281  0.0056
   40POPI   C4B  560  -0.175   2.120   8.743 -0.0838 -0.3695 -0.0140
   41POPI    C1  561   5.668   5.148   9.968 -0.2469 -0.2937  0.0068
   41POPI    C2  562   5.444   5.088  10.294 -0.0708 -0.0401  0.1786
   41POPI    C3  563   5.842   5.102  10.325 -0.0500 -0.0688 -0.0573
   41POPI   PO4  564   5.651   4.920   9.821 -0.0973 -0.0736  0.0444
   41POPI   GL1  565   5.842   4.546   9.628  0.0695  0.2154  0.5169
   41POPI   GL2  566   6.125   4.685   9.550 -0.0161  0.0763  0.0959
   41POPI   C1A  567   5.851   4.449   9.227 -0.2403  0.0128  0.1518
   41POPI   D2A  568   5.767   4.115   8.941  0.0791  0.2347 -0.0380
   41POPI   C3A  569   5.667   4.126   8.530 -0.0009 -0.2577 -0.0072
   41POPI   C4A  570   5.577   4.337   8.139 -0.0697  0.1207  0.3294
   41POPI   C1B  571   6.361   4.635   9.221  0.1795 -0.1641  0.2522
   41POPI   C2B  572   6.251   4.627   8.779  0.2424  0.1195  0.0206
   41POPI   C3B  573   6.060   4.356   8.418  0.0682 -0.0236  0.0563
   41POPI   C4B  574   5.979   4.111   8.052  0.1811  0.2383 -0.0052
   42POPI    C1  575   6.779   3.041  10.132 -0.0123  0.1126 -0.1051
   42POPI    C2  576   6.882   3.290  10.429 -0.0262  0.0909 -0.0819
   42POPI    C3  577   6.571   3.041  10.475  0.2016 -0.1791  0.0289
   42POPI   PO4  578   6.922   3.084   9.974 -0.0214 -0.0858  0.0341
   42POPI   GL1  579   6.855   2.967   9.584 -0.4772  0.1083  0.0680
   42POPI   GL2  580   6.680   2.737   9.703  0.2150  0.0098  0.0138
   42POPI   C1A  581   6.958   3.117   9.183 -0.0402 -0.1103  0.0561
   42POPI   D2A  582   6.944   3.231   8.819 -0.1953  0.0551  0.0623
   42POPI   C3A  583   6.836   3.078   8.382  0.1847  0.2194 -0.1521
   42POPI   C4A  584   7.069   3.056   8.068  0.1060 -0.1206 -0.0120
   42POPI   C1B  585   6.641   2.731   9.215 -0.1914 -0.1758  0.1349
   42POPI   C2B  586   6.604   2.797   8.738  0.0636  0.2823 -0.0272
   42POPI   C3B  587   6.517   2.614   8.433  0.0630  0.0627 -0.0655
   42POPI   C4B  588   6.254   2.666   8.119  0.1113 -0.0607 -0.2813
   43POPI    C1  589  10.862   3.307  10.422  0.1127  0.5323 -0.2372
   43POPI    C2  590  10.887   3.373  10.816 -0.2248  0.2428 -0.1617
   43POPI    C3  591  10.586   3.531  10.606 -0.1640  0.2228 -0.2648
   43POPI   PO4  592  11.062   3.424  10.258  0.0867  0.0694  0.2122
   43POPI   GL1  593  11.267   3.403   9.816 -0.4991  0.0955 -0.1659
   43POPI   GL2  594  11.054   3.605   9.692 -0.0438 -0.1612 -0.1005
   43POPI   C1A  595  11.390   3.134   9.546  0.3877  0.2383  0.1225
   43POPI   D2A  596  11.349   3.120   9.112 -0.3267 -0.1406 -0.1702
   43POPI   C3A  597  11.660   3.178   8.818 -0.0395 -0.1487 -0.1562
   43POPI   C4A  598  11.656   3.358   8.407  0.1679  0.2026 -0.2017
   43POPI   C1B  599  11.220   3.630   9.317 -0.3947 -0.1051  0.1048
   43POPI   C2B  600  11.086   3.553   8.993 -0.1205 -0.0617  0.0790
   43POPI   C3B  601  10.996   3.538   8.573 -0.0231  0.1082 -0.0420
   43POPI   C4B  602  11.074   3.377   8.262 -0.2841  0.0428 -0.0275
   44POPI    C1  603  12.684   0.162  10.254  0.0353 -0.2686  0.0307
   44POPI    C2  604  12.371   0.146  10.503  0.0779  0.0994  0.1144
   44POPI    C3  605  12.704   0.339  10.612  0.2333 -0.0505 -0.0856
   44POPI   PO4  606  12.703  -0.059  10.152 -0.2046  0.0500  0.1007
   44POPI   GL1  607  12.432  -0.056   9.759  0.2084  0.1792  0.1052
   44POPI   GL2  608  12.817   0.157   9.719  0.0165  0.2336  0.1048
   44POPI   C1A  609  12.325  -0.364   9.450 -0.3030  0.2822  0.0970
   44POPI   D2A  610  12.399  -0.457   9.018 -0.0471 -0.0518 -0.2819
   44POPI   C3A  611  12.087  -0.523   8.771  0.2518  0.0505 -0.3968
   44POPI   C4A  612  11.798  -0.556   8.342  0.1210  0.1054 -0.0014
   44POPI   C1B  613  12.882  -0.205   9.553  0.0577 -0.1040  0.3796
   44POPI   C2B  614  12.942  -0.536   9.300 -0.2737 -0.2985  0.0436
   44POPI   C3B  615  13.052  -0.579   8.827 -0.0900  0.1570  0.1260
   44POPI   C4B  616  13.158  -0.953   8.586 -0.1282 -0.1876  0.0366
   45POPI    C1  617  11.353   8.291  10.071 -0.1547 -0.0232 -0.2003
   45POPI    C2  618  11.336   7.902  10.166 -0.2874  0.0778  0.2090
   45POPI    C3  619  11.540   8.156  10.398 -0.1486  0.2448 -0.0910
   45POPI   PO4  620  11.110   8.348   9.886 -0.2547  0.2833  0.0707
   45POPI   GL1  621  10.796   8.732   9.824 -0.1870  0.0050 -0.0455
   45POPI   GL2  622  11.077   8.856   9.966  0.0277  0.0209 -0.3088
   45POPI   C1A  623  10.665   8.867   9.418 -0.0315  0.1594  0.0023
   45POPI   D2A  624  10.434   8.768   9.153 -0.1093  0.1230 -0.0620
   45POPI   C3A  625  10.452   9.128   8.870  0.0101  0.0227 -0.1235
   45POPI   C4A  626  10.303   9.444   8.576 -0.1288 -0.1637 -0.0040
   45POPI   C1B  627  11.179   8.950   9.540  0.0003 -0.1572  0.3065
   45POPI   C2B  628  11.171   9.116   9.109  0.0433 -0.0081 -0.1486
   45POPI   C3B  629  10.898   9.196   8.777 -0.0141  0.0586  0.0017
   45POPI   C4B  630  10.934   9.070   8.371 -0.1921 -0.2564 -0.2517
   46POPI    C1  631   1.463  17.637  11.037 -0.0178  0.0775 -0.0154
   46POPI    C2  632   1.262  17.657  11.382 -0.2133  0.1909 -0.1340
   46POPI    C3  633   1.395  17.992  11.209 -0.2677  0.1494 -0.2568
   46POPI   PO4  634   1.256  17.447  10.798 -0.1054  0.0666  0.2387
   46POPI   GL1  635   0.918  17.357  10.543  0.0548  0.1607 -0.3118
   46POPI   GL2  636   0.744  17.068  10.690  0.0319  0.0792 -0.1326
   46POPI   C1A  637   1.010  17.281  10.153 -0.0865 -0.1951 -0.2385
   46POPI   D2A  638   1.195  17.273   9.823  0.0580 -0.1606  0.1910
   46POPI   C3A  639   1.180  16.899   9.762 -0.0573 -0.1535 -0.4385
   46POPI   C4A  640   0.863  16.614   9.498 -0.1792  0.1581 -0.1559
   46POPI   C1B  641   0.587  17.019  10.199 -0.0050  0.0366  0.0571
   46POPI   C2B  642   0.660  17.081   9.777  0.0612  0.1994 -0.2536
   46POPI   C3B  643   0.895  17.091   9.380  0.1437  0.3316  0.0556
   46POPI   C4B  644   1.185  16.816   9.135  0.3744 -0.1922  0.0984
   47POPI    C1  645   2.663  10.649  10.340 -0.0894  0.4330  0.0443
   47POPI    C2  646   2.282  10.636  10.461 -0.0438 -0.1929  0.1585
   47POPI    C3  647   2.500  10.301  10.452  0.4219  0.1063 -0.1872
   47POPI   PO4  648   2.628  10.759  10.068 -0.0930  0.1174  0.2422
   47POPI   GL1  649   2.537  10.746   9.534  0.1782  0.1677 -0.4041
   47POPI   GL2  650   2.665  10.396   9.562 -0.2755  0.2197  0.1274
   47POPI   C1A  651   2.709  10.768   9.062 -0.0234  0.5044 -0.1232
   47POPI   D2A  652   2.865  10.602   8.803  0.0816  0.0094 -0.2901
   47POPI   C3A  653   2.697  10.454   8.420 -0.0034 -0.1466 -0.0812
   47POPI   C4A  654   2.778  10.172   8.001  0.3162 -0.0743  0.0403
   47POPI   C1B  655   2.566  10.355   9.226  0.0298 -0.2126 -0.4160
   47POPI   C2B  656   2.397  10.429   8.904  0.0680 -0.1990  0.1870
   47POPI   C3B  657   2.076  10.383   8.542  0.0614 -0.3097 -0.0446
   47POPI   C4B  658   1.748  10.751   8.285  0.1753  0.0952 -0.0123
   48POPI    C1  659  17.438   6.079  10.201  0.1538 -0.1725 -0.1503
   48POPI    C2  660  17.707   5.923  10.453  0.0615  0.0529  0.0930
   48POPI    C3  661  17.316   5.879  10.525  0.0296 -0.1976 -0.2121
   48POPI   PO4  662  17.539   6.006   9.875  0.2257 -0.1042 -0.2460
   48POPI   GL1  663  17.774   6.086   9.606  0.0042 -0.2438 -0.2008
   48POPI   GL2  664  17.862   5.820   9.479  0.0810 -0.3102  0.3189
   48POPI   C1A  665  17.651   6.282   9.162  0.1092  0.0419  0.0123
   48POPI   D2A  666  17.485   6.436   8.747 -0.2128  0.2015  0.1227
   48POPI   C3A  667  17.572   6.154   8.485  0.2635  0.6083  0.0279
   48POPI   C4A  668  17.657   6.058   8.115  0.0173 -0.2203 -0.1773
   48POPI   C1B  669  17.957   5.776   9.049 -0.1123 -0.1091  0.1003
   48POPI   C2B  670  18.074   5.834   8.592  0.3923 -0.0515  0.1925
   48POPI   C3B  671  18.029   5.719   8.113 -0.0442 -0.2162 -0.0250
   48POPI   C4B  672  17.951   5.869   7.744 -0.4108 -0.0940 -0.0784
   49POPI    C1  673   8.138   1.558  10.024 -0.1590 -0.0238  0.0731
   49POPI    C2  674   8.191   1.193  10.179  0.1512 -0.0364 -0.0557
   49POPI    C3  675   7.981   1.467  10.380 -0.0090 -0.2572  0.0821
   49POPI   PO4  676   8.198   1.488   9.782  0.0654 -0.0564  0.2175
   49POPI   GL1  677   8.539   1.304   9.572  0.0415  0.1005 -0.0420
   49POPI   GL2  678   8.614   1.152   9.384 -0.2056 -0.2334  0.2290
   49POPI   C1A  679   8.743   1.696   9.436 -0.1101  0.0383 -0.0801
   49POPI   D2A  680   8.905   2.170   9.516 -0.2277  0.2099 -0.0288
   49POPI   C3A  681   9.133   2.424   9.198  0.0327 -0.1860  0.0217
   49POPI   C4A  682   9.373   2.765   9.146  0.0394 -0.1257 -0.1483
   49POPI   C1B  683   8.842   1.320   9.067  0.0950  0.0273  0.5043
   49POPI   C2B  684   9.104   1.460   8.700  0.1884 -0.1486 -0.1078
   49POPI   C3B  685   9.186   1.289   8.316  0.2218 -0.3012  0.2721
   49POPI   C4B  686   9.443   1.205   7.956  0.3318 -0.0834 -0.1480
   50POPI    C1  687   0.046   4.119  10.342  0.0764 -0.0194 -0.0223
   50POPI    C2  688  -0.165   4.372  10.568 -0.0544 -0.0390 -0.1207
   50POPI    C3  689   0.053   4.084  10.740 -0.1573 -0.0578 -0.0198
   50POPI   PO4  690   0.192   4.228  10.185 -0.1895 -0.0821  0.2637
   50POPI   GL1  691   0.302   4.450   9.820  0.1044 -0.1730  0.1919
   50POPI   GL2  692  -0.070   4.408   9.745  0.0551 -0.2096 -0.0517
   50POPI   C1A  693   0.654   4.551   9.704  0.1768 -0.2046  0.2023
   50POPI   D2A  694   0.645   4.905   9.450 -0.5028 -0.1319 -0.0517
   50POPI   C3A  695   0.659   4.824   8.962 -0.1354  0.0741 -0.0919
   50POPI   C4A  696   0.492   4.669   8.657 -0.0056 -0.4750 -0.1220
   50POPI   C1B  697   0.158   4.642   9.366  0.1832 -0.1692  0.0052
   50POPI   C2B  698   0.200   4.908   9.102  0.2189 -0.5123 -0.1588
   50POPI   C3B  699   0.053   4.940   8.687 -0.2239 -0.1729 -0.2323
   50POPI   C4B  700   0.050   5.073   8.291 -0.0592 -0.1785  0.3013
   51POPI    C1  701  13.144  14.155  10.802  0.1477 -0.1048  0.1767
   51POPI    C2  702  13.286  13.999  11.142  0.0620 -0.0562  0.2352
   51POPI    C3  703  13.088  14.346  11.148  0.0245 -0.0755  0.1411
   51POPI   PO4  704  13.023  13.905  10.707  0.1535 -0.1891  0.1434
   51POPI   GL1  705  13.205  13.773  10.331 -0.1039  0.0830  0.1703
   51POPI   GL2  706  12.898  13.560  10.307 -0.1862  0.1150  0.1659
   51POPI   C1A  707  13.632  13.726  10.066 -0.1622 -0.0911  0.3307
   51POPI   D2A  708  13.768  13.814   9.737 -0.1466  0.1145  0.0857
   51POPI   C3A  709  13.862  13.740   9.275 -0.0648 -0.0953 -0.2337
   51POPI   C4A  710  13.753  13.521   8.981  0.0823 -0.1832 -0.0785
   51POPI   C1B  711  13.127  13.389  10.018 -0.3380  0.1644  0.2065
   51POPI   C2B  712  13.431  13.466   9.629  0.0616  0.1228 -0.0326
   51POPI   C3B  713  13.783  13.229   9.403 -0.0108  0.0864 -0.4404
   51POPI   C4B  714  14.240  13.076   9.310 -0.1391 -0.1792  0.0834
   52POPI    C1  715  15.438  10.570  10.146  0.3514 -0.0406  0.1996
   52POPI    C2  716  15.370  10.601  10.539 -0.2158  0.0451  0.1044
   52POPI    C3  717  15.266  10.900  10.293 -0.0818 -0.1051 -0.1396
   52POPI   PO4  718  15.635  10.501  10.141  0.0874  0.0503 -0.0867
   52POPI   GL1  719  15.712  10.566   9.696  0.5589  0.1278  0.0453
   52POPI   GL2  720  15.892  10.360   9.704 -0.0743 -0.3794  0.2213
   52POPI   C1A  721  15.535  10.247   9.274  0.0850  0.3920  0.2586
   52POPI   D2A  722  15.156  10.306   9.016 -0.2123 -0.2714 -0.1214
   52POPI   C3A  723  15.376  10.554   8.749 -0.0705  0.0271 -0.5227
   52POPI   C4A  724  15.669  10.919   8.601 -0.4555  0.0574 -0.2053
   52POPI   C1B  725  16.166  10.790   9.548  0.1122  0.1475  0.0333
   52POPI   C2B  726  15.953  11.146   9.657 -0.1372 -0.1013  0.1755
   52POPI   C3B  727  15.751  11.498   9.701  0.1499 -0.0473 -0.1423
   52POPI   C4B  728  15.536  11.907   9.862 -0.2427  0.1840 -0.3265
   53POPI    C1  729   7.504  16.585  10.242  0.2145 -0.1854 -0.0493
   53POPI    C2  730   7.735  16.908  10.191  0.2578 -0.2213 -0.0818
   53POPI    C3  731   7.857  16.610  10.429  0.2392 -0.2348 -0.0891
   53POPI   PO4  732   7.258  16.651  10.104 -0.1270 -0.0438 -0.0625
   53POPI   GL1  733   7.106  16.625   9.691 -0.1780  0.1036  0.1151
   53POPI   GL2  734   7.312  16.338   9.626  0.1097  0.3623 -0.0645
   53POPI   C1A  735   7.018  16.699   9.217 -0.0188  0.0621 -0.0826
   53POPI   D2A  736   7.001  16.658   8.873  0.0866 -0.0843 -0.2047
   53POPI   C3A  737   7.017  16.638   8.388 -0.1250 -0.1740  0.1130
   53POPI   C4A  738   7.022  16.876   8.134 -0.0879 -0.1353  0.4678
   53POPI   C1B  739   7.232  16.158   9.208  0.0766  0.1382 -0.0083
   53POPI   C2B  740   7.048  16.198   8.782 -0.0515 -0.0486  0.1485
   53POPI   C3B  741   6.784  16.207   8.358 -0.2207  0.0435 -0.0488
   53POPI   C4B  742   6.687  16.532   8.077  0.0672  0.0887  0.0841
   54POPI    C1  743  10.222   4.583  10.150 -0.1867 -0.1308  0.2064
   54POPI    C2  744  10.403   4.551  10.505  0.0380 -0.3575  0.0746
   54POPI    C3  745  10.195   4.881  10.415  0.3761 -0.0940  0.2333
   54POPI   PO4  746  10.370   4.331  10.021 -0.0628  0.0841 -0.3177
   54POPI   GL1  747  10.277   3.959   9.834 -0.2811 -0.1828 -0.1196
   54POPI   GL2  748  10.127   3.877   9.698  0.2436 -0.3784 -0.0949
   54POPI   C1A  749  10.323   4.217   9.354  0.1155  0.1560  0.0506
   54POPI   D2A  750  10.248   4.669   9.268 -0.0738  0.3697  0.0756
   54POPI   C3A  751  10.299   4.904   8.944  0.0627 -0.1183 -0.2710
   54POPI   C4A  752  10.528   5.191   8.591 -0.2729 -0.3755 -0.3130
   54POPI   C1B  753  10.005   3.814   9.281  0.0152  0.2213  0.0492
   54POPI   C2B  754  10.210   3.925   8.921 -0.0188  0.2881  0.0619
   54POPI   C3B  755  10.049   3.988   8.527  0.4049 -0.0666  0.0263
   54POPI   C4B  756   9.948   4.178   8.147  0.1171 -0.1936  0.1623
   55POPI    C1  757  12.320   6.778   9.825  0.1125  0.1691  0.2798
   55POPI    C2  758  12.379   6.384   9.785  0.0151  0.1549  0.2744
   55POPI    C3  759  12.556   6.583  10.083  0.2634  0.1528  0.1309
   55POPI   PO4  760  12.037   6.808   9.788 -0.0637  0.0263 -0.0379
   55POPI   GL1  761  11.770   6.809   9.552 -0.0592  0.0663 -0.2191
   55POPI   GL2  762  11.966   6.817   9.305  0.0173 -0.2513  0.0983
   55POPI   C1A  763  11.508   6.580   9.298  0.1107 -0.0089 -0.0944
   55POPI   D2A  764  11.309   6.362   8.912  0.0367 -0.2288 -0.2626
   55POPI   C3A  765  11.174   6.245   8.566  0.0297 -0.2512  0.1676
   55POPI   C4A  766  11.071   5.877   8.312  0.2167 -0.1138 -0.2089
   55POPI   C1B  767  11.832   6.870   8.943  0.5541 -0.2050 -0.0765
   55POPI   C2B  768  11.530   6.812   8.771 -0.1206  0.1989 -0.4139
   55POPI   C3B  769  11.125   6.779   8.471  0.3043  0.1473  0.2527
   55POPI   C4B  770  10.805   6.660   8.193 -0.1827 -0.1262 -0.0751
   56POPI    C1  771   6.460   6.377  10.336  0.0975 -0.1822 -0.0794
   56POPI    C2  772   6.307   6.032  10.470  0.0332 -0.0270  0.2592
   56POPI    C3  773   6.703   6.083  10.454  0.0429 -0.1192  0.1976
   56POPI   PO4  774   6.373   6.385  10.122 -0.0396 -0.4093  0.4174
   56POPI   GL1  775   6.286   6.381   9.724  0.2683  0.1789  0.2847
   56POPI   GL2  776   6.040   6.221   9.644  0.1029 -0.2321 -0.0748
   56POPI   C1A  777   6.321   6.334   9.251  0.1980  0.4110  0.2979
   56POPI   D2A  778   6.330   6.346   8.827 -0.1685 -0.1138  0.0337
   56POPI   C3A  779   6.337   6.030   8.524 -0.1056 -0.0246 -0.0641
   56POPI   C4A  780   6.085   5.993   8.150  0.0829 -0.0811  0.2400
   56POPI   C1B  781   5.812   6.272   9.378  0.0017 -0.0502 -0.2162
   56POPI   C2B  782   5.797   6.391   9.065  0.0287  0.1742  0.0591
   56POPI   C3B  783   5.884   6.371   8.555 -0.3939  0.4301 -0.0267
   56POPI   C4B  784   5.746   6.336   8.125 -0.0828  0.1755 -0.0702
   57POPI    C1  785  17.289  10.166  10.197 -0.1718 -0.1286 -0.0140
   57POPI    C2  786  17.683  10.116  10.238 -0.1581 -0.1479 -0.1632
   57POPI    C3  787  17.492  10.390  10.459 -0.0144  0.0584 -0.2907
   57POPI   PO4  788  17.251   9.997   9.991  0.1512 -0.3551  0.4341
   57POPI   GL1  789  16.916  10.194   9.587  0.0240 -0.0780 -0.3576
   57POPI   GL2  790  17.124   9.925   9.456 -0.0756  0.1690  0.0143
   57POPI   C1A  791  16.787  10.379   9.252  0.2573 -0.1104  0.0141
   57POPI   D2A  792  16.793  10.488   8.887 -0.0219  0.0745 -0.1804
   57POPI   C3A  793  16.776  10.782   8.605 -0.1363  0.0397  0.2451
   57POPI   C4A  794  17.207  10.813   8.453  0.1128  0.0690  0.4097
   57POPI   C1B  795  17.161  10.172   9.059  0.2476 -0.0412  0.3701
   57POPI   C2B  796  17.159  10.280   8.583 -0.0560  0.0908 -0.0955
   57POPI   C3B  797  17.003  10.318   8.304  0.0036 -0.1367  0.1032
   57POPI   C4B  798  16.615  10.469   8.226  0.3352  0.0260 -0.1977
   58POPI    C1  799   7.373   5.115  10.430 -0.1368 -0.1421  0.3170
   58POPI    C2  800   7.532   5.445  10.590  0.0918 -0.0891 -0.0084
   58POPI    C3  801   7.606   5.088  10.753 -0.0118  0.0011  0.2406
   58POPI   PO4  802   7.464   5.119  10.122 -0.2604 -0.1487  0.3666
   58POPI   GL1  803   7.302   4.996   9.694 -0.3091  0.3379  0.2956
   58POPI   GL2  804   7.379   5.342   9.646  0.1650  0.3268  0.2073
   58POPI   C1A  805   7.406   4.690   9.296  0.2021 -0.1162 -0.0399
   58POPI   D2A  806   7.500   4.319   9.067  0.3347  0.1305 -0.1930
   58POPI   C3A  807   7.299   4.138   8.630  0.2462  0.0820  0.6124
   58POPI   C4A  808   7.339   3.938   8.307  0.0366 -0.3429  0.3595
   58POPI   C1B  809   7.253   5.220   9.283 -0.0455 -0.2678 -0.3300
   58POPI   C2B  810   7.251   4.973   8.905 -0.1924 -0.0485 -0.0980
   58POPI   C3B  811   7.138   5.026   8.480  0.1689  0.3067  0.1117
   58POPI   C4B  812   6.883   4.762   8.241  0.3285 -0.1668  0.2113
   59POPI    C1  813  16.965  16.223  10.933  0.1119 -0.0102 -0.0403
   59POPI    C2  814  17.117  16.576  10.824  0.1963 -0.1111 -0.2528
   59POPI    C3  815  17.221  16.414  11.174 -0.0490  0.1979 -0.0317
   59POPI   PO4  816  16.632  16.135  10.848 -0.0207 -0.0816 -0.3971
   59POPI   GL1  817  16.389  16.212  10.496 -0.1024  0.2777 -0.0806
   59POPI   GL2  818  16.777  16.417  10.432  0.1576  0.1807  0.0238
   59POPI   C1A  819  16.342  16.007  10.113 -0.3385 -0.0851  0.2928
   59POPI   D2A  820  16.232  15.586   9.941  0.0217 -0.2480  0.2019
   59POPI   C3A  821  16.403  15.439   9.573  0.0666  0.0039  0.1872
   59POPI   C4A  822  16.165  15.306   9.207 -0.2379 -0.1179  0.1773
   59POPI   C1B  823  16.801  16.278  10.101  0.1812 -0.1721  0.1083
   59POPI   C2B  824  16.692  16.088   9.762  0.2100 -0.1562 -0.2697
   59POPI   C3B  825  16.694  15.854   9.434  0.3305 -0.3714  0.1639
   59POPI   C4B  826  16.759  15.515   9.124  0.1620  0.0109 -0.0337
   60POPI    C1  827  16.305   3.864  10.083  0.1766 -0.0169 -0.0431
   60POPI    C2  828  16.205   3.507  10.234 -0.1048  0.0603 -0.0422
   60POPI    C3  829  16.496   3.534   9.961  0.1228 -0.1313  0.1768
   60POPI   PO4  830  15.985   3.954   9.991  0.1288 -0.5059  0.1130
   60POPI   GL1  831  15.787   3.865   9.567  0.2490 -0.0864 -0.0668
   60POPI   GL2  832  15.580   3.588   9.503  0.0786 -0.0787 -0.1203
   60POPI   C1A  833  16.087   3.696   9.279 -0.2241 -0.3370 -0.0817
   60POPI   D2A  834  16.091   3.655   8.813  0.0901  0.0636 -0.2804
   60POPI   C3A  835  16.356   3.637   8.439  0.3181 -0.1454  0.0795
   60POPI   C4A  836  16.709   3.568   8.169  0.5738  0.1036  0.1806
   60POPI   C1B  837  15.647   3.563   9.078 -0.0539  0.1580 -0.0196
   60POPI   C2B  838  15.555   3.462   8.670 -0.3992  0.1192 -0.1273
   60POPI   C3B  839  15.375   3.537   8.340  0.3427  0.1176 -0.1261
   60POPI   C4B  840  15.139   3.578   8.026 -0.0913  0.2660  0.1728
   61POPI    C1  841   3.369  11.804  10.218  0.2607  0.1221  0.0354
   61POPI    C2  842   3.264  11.420  10.253  0.3461  0.1019  0.0721
   61POPI    C3  843   3.615  11.517  10.087  0.1299  0.1813 -0.3529
   61POPI   PO4  844   3.148  11.938  10.032 -0.0089  0.1724 -0.0240
   61POPI   GL1  845   2.969  12.234   9.661 -0.2893  0.1495 -0.1122
   61POPI   GL2  846   2.742  12.089   9.733 -0.3284  0.3193  0.0303
   61POPI   C1A  847   2.900  12.362   9.230  0.0637  0.1348  0.0309
   61POPI   D2A  848   3.143  12.611   8.927  0.1392 -0.0448 -0.0142
   61POPI   C3A  849   2.972  12.505   8.505  0.3501 -0.0215  0.1251
   61POPI   C4A  850   2.986  12.249   8.186  0.1384  0.0327 -0.0345
   61POPI   C1B  851   2.621  11.984   9.362  0.0228 -0.1931  0.0090
   61POPI   C2B  852   2.616  12.075   8.987 -0.2282 -0.1632  0.3578
   61POPI   C3B  853   2.588  12.275   8.635 -0.0000 -0.1767 -0.0978
   61POPI   C4B  854   2.512  12.714   8.610  0.0804  0.1208 -0.0367
   62POPI    C1  855   1.683   0.375  10.837 -0.0052 -0.1582 -0.0066
   62POPI    C2  856   1.843   0.262  11.185  0.0147  0.0879  0.0666
   62POPI    C3  857   1.548   0.047  11.021  0.1071 -0.1125  0.1589
   62POPI   PO4  858   1.718   0.696  10.925  0.3706 -0.1241  0.6086
   62POPI   GL1  859   1.544   0.859  10.540 -0.0934 -0.1929  0.0101
   62POPI   GL2  860   1.322   0.861  10.206 -0.0714  0.1846  0.2772
   62POPI   C1A  861   1.461   0.331  10.375 -0.0294  0.0278  0.1947
   62POPI   D2A  862   1.812   0.262  10.027  0.0107 -0.1878  0.1782
   62POPI   C3A  863   1.592   0.260   9.695  0.2834 -0.2718 -0.1656
   62POPI   C4A  864   1.665   0.157   9.193  0.1489  0.1067 -0.0249
   62POPI   C1B  865   1.118   0.579   9.992  0.0543  0.3114 -0.5320
   62POPI   C2B  866   1.148   0.497   9.623  0.2456  0.0189 -0.0518
   62POPI   C3B  867   1.221   0.183   9.345 -0.2279 -0.3879  0.1630
   62POPI   C4B  868   1.185   0.105   8.939  0.0194  0.1269  0.1540
   63POPI    C1  869  12.442  15.180  11.227 -0.1221  0.0779  0.1375
   63POPI    C2  870  12.618  14.833  11.135  0.1887  0.2177  0.1940
   63POPI    C3  871  12.420  14.871  11.480 -0.0909  0.0120  0.0603
   63POPI   PO4  872  12.282  15.295  10.963 -0.0546 -0.2382  0.1301
   63POPI   GL1  873  12.411  15.214  10.464  0.3636 -0.0449  0.1055
   63POPI   GL2  874  12.624  14.860  10.228 -0.1844  0.0946 -0.4117
   63POPI   C1A  875  12.226  15.200  10.014 -0.0194  0.1007 -0.1044
   63POPI   D2A  876  12.112  15.540   9.675  0.0918 -0.1846  0.3467
   63POPI   C3A  877  12.050  15.399   9.276  0.0422  0.0778 -0.3664
   63POPI   C4A  878  12.328  15.486   9.009 -0.0947  0.1711 -0.2276
   63POPI   C1B  879  12.491  14.747   9.837 -0.0683  0.1161 -0.0547
   63POPI   C2B  880  12.747  14.573   9.545  0.3421  0.0507  0.1457
   63POPI   C3B  881  12.863  14.710   9.201  0.0279 -0.1042 -0.1391
   63POPI   C4B  882  12.938  14.938   8.871 -0.1024  0.3699  0.0504
   64POPI    C1  883   7.809  13.071  10.326 -0.2002 -0.2169  0.0349
   64POPI    C2  884   7.627  13.272  10.620 -0.1900 -0.1014 -0.0370
   64POPI    C3  885   8.026  13.267  10.599 -0.1939  0.0703 -0.1713
   64POPI   PO4  886   7.616  12.882  10.219  0.1997  0.0175 -0.0248
   64POPI   GL1  887   7.340  12.761   9.834 -0.1795 -0.1881 -0.2948
   64POPI   GL2  888   7.164  12.467   9.935 -0.1365  0.0970  0.0347
   64POPI   C1A  889   7.273  12.968   9.446  0.2205 -0.0398 -0.1231
   64POPI   D2A  890   7.243  13.238   9.210 -0.1264 -0.2233 -0.1512
   64POPI   C3A  891   7.283  13.123   8.807  0.1666  0.1884 -0.1719
   64POPI   C4A  892   7.449  13.082   8.345  0.1900 -0.1614 -0.1814
   64POPI   C1B  893   7.015  12.559   9.472 -0.1275  0.1097 -0.1059
   64POPI   C2B  894   6.817  12.410   9.048 -0.0664 -0.0266  0.0664
   64POPI   C3B  895   6.712  12.251   8.607 -0.1306  0.1966  0.1298
   64POPI   C4B  896   6.472  12.012   8.274  0.0605 -0.1860 -0.0211
   65POPI    C1  897   8.670  16.252  10.110  0.0358  0.0194  0.0546
   65POPI    C2  898   8.873  16.089   9.806  0.0170  0.0931  0.0019
   65POPI    C3  899   9.059  16.332  10.063  0.1089 -0.2181  0.2371
   65POPI   PO4  900   8.435  16.335   9.861  0.1018  0.2731 -0.2967
   65POPI   GL1  901   8.426  16.238   9.392  0.1617 -0.1325 -0.1865
   65POPI   GL2  902   8.669  16.433   9.458 -0.0960  0.1464 -0.0565
   65POPI   C1A  903   8.384  16.071   8.956 -0.2352 -0.3500  0.0993
   65POPI   D2A  904   8.037  16.072   8.684 -0.3256  0.2000 -0.0248
   65POPI   C3A  905   7.889  16.059   8.290  0.0616 -0.2116  0.0065
   65POPI   C4A  906   7.640  16.043   7.936  0.0189  0.1497  0.0176
   65POPI   C1B  907   8.666  16.525   9.077 -0.1689 -0.1873  0.1125
   65POPI   C2B  908   8.751  16.512   8.623  0.0130  0.0993 -0.2619
   65POPI   C3B  909   8.744  16.440   8.162 -0.2260 -0.2730  0.0117
   65POPI   C4B  910   8.611  16.134   7.798 -0.2891 -0.0974  0.3594
   66POPI    C1  911   0.463  11.617  10.577 -0.0111 -0.2336 -0.2046
   66POPI    C2  912   0.803  11.407  10.551  0.0702 -0.1214 -0.0612
   66POPI    C3  913   0.471  11.235  10.694  0.1775 -0.1087  0.2101
   66POPI   PO4  914   0.508  11.836  10.367 -0.0518  0.0498  0.1134
   66POPI   GL1  915   0.519  11.837   9.894  0.0644 -0.2329 -0.0012
   66POPI   GL2  916   0.712  11.869   9.582  0.1917 -0.0964  0.0886
   66POPI   C1A  917   0.330  12.220   9.700  0.0374  0.2041 -0.0260
   66POPI   D2A  918  -0.072  12.325   9.492 -0.0433  0.0994  0.2419
   66POPI   C3A  919  -0.091  12.339   9.013  0.0446 -0.1485 -0.0726
   66POPI   C4A  920   0.069  12.174   8.743  0.0745 -0.3238  0.1920
   66POPI   C1B  921   0.957  11.971   9.356  0.3800  0.2208 -0.4086
   66POPI   C2B  922   1.201  12.003   9.078 -0.1882  0.2059 -0.0352
   66POPI   C3B  923   1.337  12.045   8.613 -0.3995 -0.0463  0.0137
   66POPI   C4B  924   1.672  12.225   8.382  0.1526 -0.1269 -0.0746
   67POPI    C1  925  13.725   2.946  10.109  0.0978 -0.1565 -0.1389
   67POPI    C2  926  13.695   3.320  10.249 -0.2473 -0.1313 -0.2713
   67POPI    C3  927  13.937   3.058  10.429  0.2174  0.2324 -0.3460
   67POPI   PO4  928  13.722   2.976   9.840  0.5601 -0.1798 -0.0362
   67POPI   GL1  929  13.631   2.692   9.452  0.2142  0.0419 -0.2822
   67POPI   GL2  930  13.319   2.975   9.573 -0.0253  0.2429  0.1256
   67POPI   C1A  931  13.765   2.990   9.086 -0.0971  0.1080 -0.2566
   67POPI   D2A  932  13.889   3.150   8.797 -0.0725 -0.2384 -0.0559
   67POPI   C3A  933  13.786   3.495   8.827  0.1102 -0.2079  0.0359
   67POPI   C4A  934  13.527   3.723   9.068  0.0466 -0.0422 -0.1664
   67POPI   C1B  935  12.894   3.052   9.345 -0.0209  0.4369  0.2990
   67POPI   C2B  936  12.805   2.995   8.914  0.1061  0.1381  0.0345
   67POPI   C3B  937  12.907   2.976   8.450 -0.0615  0.0954  0.0276
   67POPI   C4B  938  13.233   3.080   8.204  0.1368  0.1501  0.2878
   68POPS   CNO  939  15.379   3.801  10.482  0.0962 -0.2220 -0.1884
   68POPS   PO4  940  15.477   4.104  10.215  0.2032  0.0510 -0.0804
   68POPS   GL1  941  15.435   4.302   9.741  0.4151  0.4399  0.1172
   68POPS   GL2  942  15.460   4.542   9.783  0.0804 -0.1944 -0.0246
   68POPS   C1A  943  15.189   4.149   9.450 -0.2528  0.0206 -0.1673
   68POPS   D2A  944  15.389   4.066   9.098  0.1918 -0.0475 -0.1232
   68POPS   C3A  945  15.207   3.834   8.670 -0.1135 -0.1540  0.2714
   68POPS   C4A  946  14.866   3.526   8.618 -0.1107 -0.0320  0.2139
   68POPS   C1B  947  15.487   4.607   9.330 -0.2493  0.1159 -0.4052
   68POPS   C2B  948  15.591   4.593   8.900 -0.0486 -0.0980 -0.3018
   68POPS   C3B  949  15.551   4.672   8.404 -0.1774 -0.0507  0.1869
   68POPS   C4B  950  15.404   4.655   7.976  0.3318  0.1158 -0.1482
   69POPS   CNO  951  10.838  12.970  10.370  0.2981  0.1561 -0.1271
   69POPS   PO4  952  11.084  12.638  10.496  0.3561  0.1270  0.1524
   69POPS   GL1  953  11.266  12.566  10.129  0.2503 -0.1102  0.2366
   69POPS   GL2  954  11.288  12.874   9.975  0.2437 -0.1603 -0.0104
   69POPS   C1A  955  11.307  12.425   9.697  0.1095 -0.1555 -0.2753
   69POPS   D2A  956  11.341  12.536   9.341  0.1001 -0.5737 -0.1251
   69POPS   C3A  957  11.486  12.743   8.992  0.0789 -0.2245 -0.1816
   69POPS   C4A  958  11.624  12.773   8.589 -0.0713  0.1051 -0.2664
   69POPS   C1B  959  11.359  12.989   9.554  0.0400  0.2646 -0.0540
   69POPS   C2B  960  11.129  13.020   9.194 -0.0446  0.0082 -0.0091
   69POPS   C3B  961  10.876  13.200   9.026  0.2262 -0.0921 -0.0714
   69POPS   C4B  962  10.809  13.529   8.632  0.0086  0.1617 -0.0655
   70POPS   CNO  963  10.185  14.428  10.849 -0.3587  0.0751  0.2043
   70POPS   PO4  964  10.355  14.582  10.472  0.1341 -0.0808 -0.1169
   70POPS   GL1  965  10.269  14.371  10.144  0.0766  0.2190  0.2794
   70POPS   GL2  966  10.005  14.506   9.941  0.1369 -0.2464 -0.2043
   70POPS   C1A  967  10.397  14.109   9.690 -0.1910  0.3721 -0.3486
   70POPS   D2A  968  10.189  14.086   9.266  0.4025 -0.2201 -0.2662
   70POPS   C3A  969   9.937  13.861   9.114 -0.2199 -0.0582  0.1054
   70POPS   C4A  970   9.888  13.970   8.657  0.2507  0.1013  0.1645
   70POPS   C1B  971  10.029  14.508   9.529 -0.4075  0.1250 -0.2711
   70POPS   C2B  972   9.870  14.560   9.203 -0.5131 -0.0136 -0.0729
   70POPS   C3B  973   9.591  14.367   8.833 -0.1051 -0.1001  0.1115
   70POPS   C4B  974   9.394  14.058   8.545  0.0169  0.1807 -0.3223
   71POPS   CNO  975  16.617   2.119  11.234 -0.0529  0.0349 -0.0354
   71POPS   PO4  976  16.481   2.272  10.850 -0.3267  0.0965 -0.0253
   71POPS   GL1  977  16.571   2.293  10.377  0.0752  0.1099  0.4242
   71POPS   GL2  978  16.782   2.029  10.393  0.2657  0.2866  0.0190
   71POPS   C1A  979  16.430   2.063  10.026  0.1308  0.0514 -0.1724
   71POPS   D2A  980  16.693   1.855   9.743 -0.1154  0.0085 -0.1841
   71POPS   C3A  981  16.807   1.598  10.030  0.0730 -0.3051  0.1018
   71POPS   C4A  982  17.170   1.337   9.997  0.0552 -0.0398 -0.2386
   71POPS   C1B  983  17.001   2.075  10.100  0.0276  0.5115  0.1816
   71POPS   C2B  984  17.152   1.809   9.783 -0.0230 -0.0998 -0.1067
   71POPS   C3B  985  17.030   1.514   9.535 -0.3583  0.1874 -0.0177
   71POPS   C4B  986  17.078   1.504   9.038 -0.1353  0.0637 -0.0663
   72POPS   CNO  987  12.659   4.337  10.208 -0.1893 -0.2530  0.0884
   72POPS   PO4  988  12.430   4.598   9.985  0.2710  0.1646 -0.2717
   72POPS   GL1  989  12.179   4.567   9.679  0.0858  0.4585 -0.1588
   72POPS   GL2  990  11.884   4.833   9.664 -0.3817  0.3405 -0.0158
   72POPS   C1A  991  12.287   4.725   9.282  0.0011  0.2044  0.0362
   72POPS   D2A  992  12.599   4.886   8.964  0.3981 -0.0350  0.0462
   72POPS   C3A  993  12.413   4.831   8.537  0.1223  0.0696  0.2764
   72POPS   C4A  994  12.121   4.555   8.270 -0.2573  0.0446 -0.1728
   72POPS   C1B  995  11.726   5.101   9.284  0.0684  0.0384  0.0618
   72POPS   C2B  996  11.468   5.262   8.936 -0.1967 -0.0394  0.0847
   72POPS   C3B  997  11.500   5.358   8.575  0.0159 -0.3504 -0.1736
   72POPS   C4B  998  11.473   5.159   8.237  0.4120 -0.1956  0.1558
   73POPS   CNO  999   6.070   5.586  10.128 -0.2136  0.0417 -0.0622
   73POPS   PO4 1000   6.148   5.311   9.865  0.1798 -0.4628 -0.1330
   73POPS   GL1 1001   5.918   5.317   9.485  0.0139 -0.4422 -0.1510
   73POPS   GL2 1002   5.841   5.059   9.405  0.0638  0.2540  0.1070
   73POPS   C1A 1003   5.623   5.401   9.120 -0.2526  0.2124  0.0409
   73POPS   D2A 1004   5.744   5.343   8.685 -0.2879  0.0162 -0.0928
   73POPS   C3A 1005   6.135   5.049   8.635 -0.2486 -0.1205 -0.0655
   73POPS   C4A 1006   6.259   4.820   8.299  0.0359 -0.0885 -0.1884
   73POPS   C1B 1007   5.855   4.891   9.064 -0.2775  0.0750 -0.1692
   73POPS   C2B 1008   5.717   4.640   8.713 -0.2577  0.1025  0.2924
   73POPS   C3B 1009   5.701   4.844   8.334 -0.2132  0.1340 -0.2149
   73POPS   C4B 1010   5.916   5.158   8.102 -0.0914 -0.1923 -0.1499
   74POPS   CNO 1011  13.496   8.708   9.930  0.0964 -0.0714  0.0149
   74POPS   PO4 1012  13.973   8.681  10.049  0.3909  0.1909  0.1659
   74POPS   GL1 1013  13.856   8.623   9.532 -0.0332  0.3262 -0.0433
   74POPS   GL2 1014  13.528   8.907   9.493  0.2867 -0.0032  0.2238
   74POPS   C1A 1015  13.824   8.575   9.035 -0.0493 -0.0693  0.0033
   74POPS   D2A 1016  13.904   8.697   8.604 -0.0002 -0.0814  0.0370
   74POPS   C3A 1017  13.782   8.553   8.262  0.2525  0.1756  0.1434
   74POPS   C4A 1018  13.491   8.821   7.981  0.0468  0.0231  0.0364
   74POPS   C1B 1019  13.717   9.115   9.181 -0.0720 -0.0754 -0.3094
   74POPS   C2B 1020  13.668   9.156   8.703  0.0728  0.1586 -0.2330
   74POPS   C3B 1021  13.886   9.040   8.244 -0.3228 -0.3904  0.2242
   74POPS   C4B 1022  14.050   9.310   7.922  0.1533  0.4857 -0.2175
   75POPS   CNO 1023  13.935   9.619  10.297  0.1186  0.0489  0.0522
   75POPS   PO4 1024  14.111   9.539   9.864  0.2914 -0.0683 -0.1243
   75POPS   GL1 1025  14.036   9.802   9.548 -0.4692  0.0590 -0.0052
   75POPS   GL2 1026  13.716   9.983   9.646  0.1301 -0.1050 -0.1659
   75POPS   C1A 1027  13.895  10.033   9.100  0.0740  0.0095  0.3144
   75POPS   D2A 1028  13.798  10.183   8.684  0.0370 -0.3547 -0.0805
   75POPS   C3A 1029  14.037   9.839   8.504 -0.0627 -0.0265  0.0041
   75POPS   C4A 1030  14.140   9.770   8.059 -0.1939 -0.2341  0.0163
   75POPS   C1B 1031  13.450  10.111   9.347 -0.1418 -0.0421 -0.1848
   75POPS   C2B 1032  13.257  10.124   9.041  0.0635 -0.1930  0.0175
   75POPS   C3B 1033  13.336  10.131   8.542  0.1618 -0.3112 -0.0360
   75POPS   C4B 1034  13.451  10.517   8.309 -0.2563 -0.0345 -0.1105
   76POPS   CNO 1035  12.261  13.558  10.367 -0.0747  0.1249 -0.0355
   76POPS   PO4 1036  12.139  13.964  10.680  0.1985  0.2483 -0.0862
   76POPS   GL1 1037  12.022  14.008  10.248 -0.0868  0.1448 -0.0816
   76POPS   GL2 1038  11.701  13.752  10.274 -0.2314  0.1160  0.0664
   76POPS   C1A 1039  11.948  13.907   9.809  0.0223 -0.1564 -0.2371
   76POPS   D2A 1040  12.084  13.666   9.454  0.0335  0.2895 -0.1709
   76POPS   C3A 1041  12.416  13.832   9.291  0.1669  0.0462  0.1073
   76POPS   C4A 1042  12.715  13.673   8.972 -0.0667  0.1805 -0.0130
   76POPS   C1B 1043  11.352  13.904   9.965 -0.3116  0.2366  0.0562
   76POPS   C2B 1044  11.279  14.047   9.581 -0.0664  0.3975  0.0386
   76POPS   C3B 1045  11.255  14.117   9.129  0.1465  0.0455  0.1124
   76POPS   C4B 1046  11.623  14.189   8.809 -0.1737  0.2079 -0.0349
   77POPS   CNO 1047  12.416   1.042  10.479 -0.0027 -0.0475  0.0256
   77POPS   PO4 1048  12.566   0.912  10.111  0.3683 -0.4748  0.0761
   77POPS   GL1 1049  12.546   0.868   9.627 -0.3506  0.0203  0.3602
   77POPS   GL2 1050  12.798   1.219   9.619  0.3216 -0.1101 -0.0851
   77POPS   C1A 1051  12.573   0.751   9.137  0.1334 -0.0239 -0.0077
   77POPS   D2A 1052  12.674   0.919   8.766 -0.1076  0.1777  0.0797
   77POPS   C3A 1053  12.358   0.876   8.444 -0.1579 -0.1703  0.0724
   77POPS   C4A 1054  12.106   1.005   8.114 -0.0210 -0.1211  0.1825
   77POPS   C1B 1055  13.075   1.173   9.315 -0.4021 -0.0675 -0.1893
   77POPS   C2B 1056  13.290   0.954   9.005 -0.4570  0.0297  0.1620
   77POPS   C3B 1057  13.632   1.025   8.567  0.2376 -0.1136  0.1057
   77POPS   C4B 1058  13.872   1.189   8.232  0.0689 -0.0533  0.0454
   78POPS   CNO 1059   1.295  15.974  10.895  0.0345  0.2026 -0.1347
   78POPS   PO4 1060   1.732  15.934  10.754  0.2635  0.0671  0.0848
   78POPS   GL1 1061   1.448  15.850  10.431  0.2847 -0.0280 -0.2033
   78POPS   GL2 1062   1.530  16.106  10.278 -0.0581 -0.3142 -0.0595
   78POPS   C1A 1063   1.134  15.619  10.247 -0.0604  0.0975  0.0999
   78POPS   D2A 1064   0.977  15.460   9.817 -0.1273  0.4156 -0.1093
   78POPS   C3A 1065   0.731  15.727   9.549 -0.1291  0.0535  0.2604
   78POPS   C4A 1066   0.870  16.139   9.346  0.0175  0.1181 -0.2028
   78POPS   C1B 1067   1.176  16.023   9.939  0.1379 -0.0086 -0.3737
   78POPS   C2B 1068   1.257  15.933   9.548 -0.0325 -0.1144  0.1838
   78POPS   C3B 1069   1.194  15.860   9.126  0.0120 -0.0104  0.3116
   78POPS   C4B 1070   0.992  15.869   8.767  0.2332  0.2512  0.0437
   79POPS   CNO 1071  17.769   0.267  11.531  0.0787 -0.3656 -0.0925
   79POPS   PO4 1072  18.136   0.089  11.140 -0.2869 -0.1638 -0.1072
   79POPS   GL1 1073  18.426  -0.057  10.809  0.3531  0.0383 -0.2451
   79POPS   GL2 1074  18.360   0.164  10.470 -0.0899 -0.0944  0.0164
   79POPS   C1A 1075  18.712  -0.250  10.456 -0.0748 -0.2050 -0.3413
   79POPS   D2A 1076  18.901  -0.144  10.152 -0.1162  0.2183  0.3325
   79POPS   C3A 1077  18.870  -0.461   9.796 -0.0571  0.0658  0.0943
   79POPS   C4A 1078  18.733  -0.569   9.432 -0.0532  0.2325  0.4544
   79POPS   C1B 1079  18.246  -0.077  10.233 -0.3682  0.2032  0.1342
   79POPS   C2B 1080  18.467  -0.097   9.815  0.2426  0.2137  0.2407
   79POPS   C3B 1081  18.324  -0.041   9.489 -0.0179  0.3516  0.1242
   79POPS   C4B 1082  18.223  -0.024   9.033  0.0491 -0.0733  0.5583
   80POPS   CNO 1083   5.381  15.845  10.961 -0.0261  0.4406  0.0018
   80POPS   PO4 1084   5.503  15.679  10.664 -0.0109 -0.0051  0.0554
   80POPS   GL1 1085   5.323  15.681  10.268  0.0730 -0.3885  0.0315
   80POPS   GL2 1086   4.948  15.770  10.381 -0.2147  0.0670  0.1244
   80POPS   C1A 1087   5.213  16.067   9.959 -0.0200  0.3593  0.0052
   80POPS   D2A 1088   5.040  16.353   9.586  0.1355 -0.1231 -0.0065
   80POPS   C3A 1089   4.849  16.260   9.132 -0.2055 -0.0071 -0.0220
   80POPS   C4A 1090   4.851  16.127   8.701 -0.3176  0.4777  0.1876
   80POPS   C1B 1091   5.003  15.555   9.912 -0.1931 -0.1596 -0.0744
   80POPS   C2B 1092   4.919  15.224   9.658 -0.0684 -0.3082 -0.1146
   80POPS   C3B 1093   4.925  15.006   9.320 -0.1202 -0.2954  0.1012
   80POPS   C4B 1094   4.872  15.003   8.857 -0.5382 -0.1012 -0.4802
   81POPS   CNO 1095  16.954   7.789   9.855 -0.1149  0.2868  0.1625
   81POPS   PO4 1096  16.929   7.932   9.495  0.0280 -0.2803 -0.1250
   81POPS   GL1 1097  16.798   7.747   9.103 -0.1035 -0.0733 -0.1233
   81POPS   GL2 1098  16.530   7.822   9.211  0.0544 -0.2054  0.0247
   81POPS   C1A 1099  16.620   7.592   8.816  0.0156 -0.0361 -0.0245
   81POPS   D2A 1100  16.541   7.318   8.477  0.5019  0.1452 -0.1476
   81POPS   C3A 1101  16.774   6.964   8.198  0.1976  0.2532  0.1397
   81POPS   C4A 1102  16.807   6.543   8.028 -0.3933 -0.0166 -0.1632
   81POPS   C1B 1103  16.401   8.079   8.892  0.4794 -0.0872 -0.4599
   81POPS   C2B 1104  16.400   8.396   8.573 -0.0325 -0.2471 -0.0396
   81POPS   C3B 1105  16.172   8.672   8.384 -0.0393  0.0310 -0.2443
   81POPS   C4B 1106  16.004   8.723   7.930 -0.1435 -0.0359 -0.1332
   82POPS   CNO 1107  13.493  18.378  10.840 -0.0117  0.0581 -0.1108
   82POPS   PO4 1108  13.784  18.387  10.494  0.3383 -0.1795  0.0328
   82POPS   GL1 1109  13.980  18.146  10.263 -0.1893 -0.0018 -0.1392
   82POPS   GL2 1110  14.316  18.304  10.237 -0.1007  0.1628  0.0029
   82POPS   C1A 1111  14.112  17.853  10.126 -0.3657  0.4022 -0.0550
   82POPS   D2A 1112  14.114  17.535   9.950  0.0353 -0.2827 -0.1699
   82POPS   C3A 1113  14.305  17.511   9.566 -0.0724 -0.1430  0.1132
   82POPS   C4A 1114  14.388  17.473   9.163 -0.0002 -0.0859  0.2044
   82POPS   C1B 1115  14.565  18.064   9.991 -0.0309 -0.1050  0.3875
   82POPS   C2B 1116  14.549  17.927   9.654  0.1651 -0.0158  0.1318
   82POPS   C3B 1117  14.737  17.844   9.204  0.0326  0.3710  0.0217
   82POPS   C4B 1118  15.151  17.882   8.934  0.0947  0.1578  0.0315
   83POPS   CNO 1119   2.954  15.091  10.837 -0.2422 -0.1696 -0.1607
   83POPS   PO4 1120   3.316  15.034  11.064 -0.2787 -0.2226  0.1884
   83POPS   GL1 1121   3.590  15.270  10.778  0.0795  0.1187  0.0083
   83POPS   GL2 1122   3.681  15.041  10.625  0.1108 -0.1203  0.0275
   83POPS   C1A 1123   3.610  15.384  10.294  0.0776  0.0480  0.1743
   83POPS   D2A 1124   3.161  15.640  10.112 -0.1817 -0.3023 -0.2090
   83POPS   C3A 1125   3.217  15.831   9.732 -0.3119  0.1950 -0.1278
   83POPS   C4A 1126   3.564  15.969   9.512 -0.0762 -0.0715  0.0620
   83POPS   C1B 1127   3.887  14.949  10.184  0.3421  0.1419 -0.0384
   83POPS   C2B 1128   3.855  14.930   9.758 -0.1883  0.0088 -0.0792
   83POPS   C3B 1129   3.596  15.014   9.455 -0.1838 -0.0482 -0.1293
   83POPS   C4B 1130   3.459  15.153   9.096  0.0057  0.0038 -0.1103
   84POPS   CNO 1131   3.500  17.608  11.041  0.3768  0.3406  0.3795
   84POPS   PO4 1132   3.309  17.872  10.744  0.2317 -0.2574 -0.0732
   84POPS   GL1 1133   3.254  17.826  10.303 -0.2586  0.2014  0.1264
   84POPS   GL2 1134   3.120  17.587  10.141  0.3481 -0.2195 -0.0015
   84POPS   C1A 1135   2.801  17.924  10.112 -0.2105  0.1278  0.1030
   84POPS   D2A 1136   2.447  17.832   9.828  0.0253 -0.1931 -0.1148
   84POPS   C3A 1137   2.056  17.758  10.066 -0.2811  0.0887 -0.0619
   84POPS   C4A 1138   1.738  17.495  10.011  0.0654  0.0484  0.0480
   84POPS   C1B 1139   2.984  17.709   9.706  0.3310  0.1739 -0.1777
   84POPS   C2B 1140   2.763  17.917   9.354 -0.1568 -0.0861  0.1539
   84POPS   C3B 1141   2.417  18.118   9.435  0.1837 -0.4711 -0.0524
   84POPS   C4B 1142   2.111  18.310   9.389  0.4104  0.0243  0.0035
   85POPS   CNO 1143   7.079   9.730  10.473  0.0655  0.0350  0.2016
   85POPS   PO4 1144   6.718   9.811  10.125  0.2036  0.1895 -0.2680
   85POPS   GL1 1145   6.657   9.964   9.731 -0.0171 -0.0655  0.0518
   85POPS   GL2 1146   6.427   9.965   9.513 -0.1227  0.1731  0.1706
   85POPS   C1A 1147   6.814  10.322   9.425 -0.1790 -0.0016  0.0549
   85POPS   D2A 1148   6.788  10.263   8.923  0.1301 -0.2104 -0.5006
   85POPS   C3A 1149   6.581  10.364   8.563 -0.3519 -0.2844  0.1379
   85POPS   C4A 1150   6.595  10.434   8.108 -0.1727  0.3614  0.3415
   85POPS   C1B 1151   6.426   9.928   9.154  0.0082 -0.0768  0.2597
   85POPS   C2B 1152   6.508   9.791   8.712  0.3521  0.0330 -0.1046
   85POPS   C3B 1153   6.865   9.924   8.446  0.0019 -0.1094 -0.0648
   85POPS   C4B 1154   7.063  10.227   8.340  0.0167  0.1714  0.0032
   86POPS   CNO 1155   1.906   7.945  10.018 -0.0424 -0.1853 -0.1565
   86POPS   PO4 1156   1.598   8.090   9.969 -0.2752 -0.3910 -0.2099
   86POPS   GL1 1157   1.647   7.963   9.538  0.1461  0.0738 -0.0471
   86POPS   GL2 1158   1.907   8.205   9.350 -0.0655  0.2731  0.1460
   86POPS   C1A 1159   1.756   7.832   9.108 -0.1194  0.1314  0.2557
   86POPS   D2A 1160   1.672   7.710   8.668 -0.0588 -0.2010 -0.4880
   86POPS   C3A 1161   1.612   7.957   8.384  0.0294  0.0057  0.0544
   86POPS   C4A 1162   1.610   8.034   7.953  0.0100 -0.2991 -0.0613
   86POPS   C1B 1163   1.929   8.336   8.813  0.2924  0.0906 -0.2312
   86POPS   C2B 1164   1.941   8.328   8.336  0.0151  0.2381  0.1103
   86POPS   C3B 1165   2.133   8.047   7.967 -0.1234 -0.2229 -0.4223
   86POPS   C4B 1166   2.345   7.880   7.701 -0.1536  0.4377  0.0308
   87POPS   CNO 1167   6.595  14.442  10.123 -0.4741  0.0556  0.0767
   87POPS   PO4 1168   6.683  14.148  10.448  0.0001 -0.1255  0.3779
   87POPS   GL1 1169   6.437  13.826  10.212  0.3241  0.0926 -0.0358
   87POPS   GL2 1170   6.499  13.960   9.930 -0.0475  0.2417 -0.1927
   87POPS   C1A 1171   6.152  13.596   9.817  0.1547  0.0691  0.0997
   87POPS   D2A 1172   6.182  13.467   9.418  0.4044 -0.0377 -0.2911
   87POPS   C3A 1173   6.441  13.491   9.138  0.0205 -0.2133  0.0783
   87POPS   C4A 1174   6.413  13.277   8.663 -0.2436 -0.2042  0.0631
   87POPS   C1B 1175   6.147  14.025   9.536 -0.0716  0.0684  0.5415
   87POPS   C2B 1176   6.005  13.840   9.129 -0.2866  0.0714  0.3288
   87POPS   C3B 1177   5.987  13.568   8.809 -0.3142  0.3193  0.0654
   87POPS   C4B 1178   5.701  13.516   8.574  0.1413 -0.0964  0.0876
   88POPS   CNO 1179  15.643  16.685  10.931  0.1986  0.0175  0.3276
   88POPS   PO4 1180  15.636  16.253  11.019  0.0329 -0.2418  0.0040
   88POPS   GL1 1181  15.740  16.262  10.622 -0.0795 -0.0459  0.2154
   88POPS   GL2 1182  15.466  16.459  10.437 -0.0813  0.2697  0.1027
   88POPS   C1A 1183  15.826  16.122  10.149  0.2502  0.1159 -0.0354
   88POPS   D2A 1184  16.028  16.184   9.807  0.1349 -0.0957 -0.0901
   88POPS   C3A 1185  16.143  15.954   9.467 -0.0302  0.0615  0.4899
   88POPS   C4A 1186  16.236  15.793   9.104  0.1653  0.1916 -0.4923
   88POPS   C1B 1187  15.568  16.544  10.043 -0.1002 -0.1240  0.1870
   88POPS   C2B 1188  15.360  16.919   9.662  0.1590  0.1389 -0.2734
   88POPS   C3B 1189  15.350  17.204   9.369  0.0469 -0.0239  0.0335
   88POPS   C4B 1190  15.389  17.407   9.084 -0.2805 -0.1270 -0.0480
   89POPS   CNO 1191   8.804  11.776  10.560 -0.2299 -0.1869 -0.0070
   89POPS   PO4 1192   8.501  11.884  10.193 -0.3741  0.1081  0.0286
   89POPS   GL1 1193   8.494  11.781   9.662 -0.0652 -0.2444 -0.1905
   89POPS   GL2 1194   8.336  11.556   9.533 -0.0993  0.0683 -0.2076
   89POPS   C1A 1195   8.590  11.899   9.218  0.1471  0.0578  0.0783
   89POPS   D2A 1196   8.546  11.824   8.764  0.0126 -0.1446  0.1000
   89POPS   C3A 1197   8.197  11.601   8.490 -0.1764  0.0543  0.2375
   89POPS   C4A 1198   7.794  11.663   8.314  0.1293  0.0172 -0.1496
   89POPS   C1B 1199   8.223  11.572   9.076 -0.0105  0.1764 -0.2479
   89POPS   C2B 1200   8.123  11.322   8.841 -0.2871 -0.3499 -0.0905
   89POPS   C3B 1201   7.817  11.073   8.592 -0.1408  0.0626 -0.1938
   89POPS   C4B 1202   7.657  11.094   8.111 -0.0009 -0.3775 -0.2283
   90POPS   CNO 1203  18.389  12.775  10.323  0.0615 -0.0679  0.1031
   90POPS   PO4 1204  17.980  12.743  10.292 -0.0872  0.2349 -0.3274
   90POPS   GL1 1205  17.753  12.796   9.952  0.0695  0.2635  0.4185
   90POPS   GL2 1206  17.377  12.737   9.942 -0.0677  0.1043  0.1125
   90POPS   C1A 1207  17.750  12.932   9.556  0.2883  0.0378  0.0439
   90POPS   D2A 1208  17.675  13.077   9.116 -0.1648 -0.1006  0.2637
   90POPS   C3A 1209  17.576  13.524   8.860 -0.0325 -0.1769 -0.0893
   90POPS   C4A 1210  17.518  13.795   8.517 -0.1861  0.2070 -0.1271
   90POPS   C1B 1211  17.278  13.105   9.560  0.1091  0.0875  0.2746
   90POPS   C2B 1212  17.008  13.169   9.343  0.0738 -0.1111  0.0559
   90POPS   C3B 1213  16.651  13.272   9.029  0.2351 -0.0964 -0.1554
   90POPS   C4B 1214  16.631  13.729   8.977  0.1045  0.4379 -0.0798
   91POPS   CNO 1215  13.095  10.224  10.600  0.0367  0.1343  0.3665
   91POPS   PO4 1216  13.096  10.580  10.163  0.1993 -0.1485  0.2067
   91POPS   GL1 1217  12.725  10.445   9.853 -0.4039  0.2211 -0.2262
   91POPS   GL2 1218  12.355  10.517   9.844 -0.0964 -0.0856 -0.0885
   91POPS   C1A 1219  12.542  10.348   9.445 -0.0159 -0.1826  0.0088
   91POPS   D2A 1220  12.347  10.300   9.250 -0.0206 -0.0258  0.3965
   91POPS   C3A 1221  12.439  10.290   8.836 -0.0208 -0.0520 -0.0148
   91POPS   C4A 1222  12.618  10.094   8.612  0.0433  0.1011 -0.1328
   91POPS   C1B 1223  12.602  10.791   9.575 -0.1987 -0.2382  0.1202
   91POPS   C2B 1224  12.507  10.784   9.123 -0.1258 -0.0218  0.1768
   91POPS   C3B 1225  12.664  10.989   8.835 -0.5884 -0.3774  0.1041
   91POPS   C4B 1226  12.558  11.154   8.479 -0.1494 -0.0766  0.2460
   92POPS   CNO 1227   8.569   5.875  10.126  0.1075  0.2424  0.3948
   92POPS   PO4 1228   8.277   6.275  10.167  0.0424 -0.0266  0.1697
   92POPS   GL1 1229   8.525   6.287   9.712  0.2184  0.3691 -0.0468
   92POPS   GL2 1230   8.716   6.573   9.753 -0.0828 -0.2569  0.1650
   92POPS   C1A 1231   8.787   6.293   9.285 -0.2032 -0.1462 -0.1969
   92POPS   D2A 1232   8.657   6.084   8.855  0.0392  0.0018  0.1623
   92POPS   C3A 1233   8.911   6.038   8.551 -0.2092 -0.2588  0.1793
   92POPS   C4A 1234   9.180   6.043   8.124  0.0813  0.0146  0.0912
   92POPS   C1B 1235   8.565   6.794   9.337  0.3129  0.1151 -0.0461
   92POPS   C2B 1236   8.641   6.674   8.897  0.2321 -0.2428  0.0897
   92POPS   C3B 1237   8.738   6.500   8.546 -0.2491 -0.3010 -0.0731
   92POPS   C4B 1238   8.778   6.458   8.088  0.0785 -0.1144 -0.0561
   93POPS   CNO 1239   5.593   8.379   9.799  0.2681 -0.0980 -0.1653
   93POPS   PO4 1240   5.305   8.060   9.900 -0.1277 -0.1981  0.1172
   93POPS   GL1 1241   5.226   8.088   9.479 -0.0130  0.3225 -0.0850
   93POPS   GL2 1242   5.193   8.208   9.152  0.0388 -0.6294  0.2892
   93POPS   C1A 1243   5.393   7.738   9.200  0.1544  0.1080  0.0980
   93POPS   D2A 1244   5.310   7.670   8.806  0.0707  0.0550  0.0218
   93POPS   C3A 1245   5.269   8.020   8.598  0.0899 -0.1121 -0.3329
   93POPS   C4A 1246   5.167   8.009   8.152  0.0112 -0.0285 -0.1903
   93POPS   C1B 1247   5.199   8.502   8.847  0.2991  0.2486 -0.1476
   93POPS   C2B 1248   5.147   8.511   8.436 -0.2112  0.3146  0.1498
   93POPS   C3B 1249   4.908   8.458   8.012 -0.1746 -0.1832  0.0323
   93POPS   C4B 1250   4.806   8.067   7.812  0.1021  0.0047 -0.2569
   94POPS   CNO 1251  10.545  16.406  10.300  0.1865  0.1876  0.3818
   94POPS   PO4 1252  10.666  16.468   9.866 -0.1430  0.0602 -0.2763
   94POPS   GL1 1253  10.563  16.143   9.481  0.1397  0.1944 -0.3339
   94POPS   GL2 1254  10.170  16.040   9.448  0.1135 -0.1359  0.3272
   94POPS   C1A 1255  10.546  16.294   9.097  0.2509 -0.1798  0.0759
   94POPS   D2A 1256  10.629  16.199   8.736 -0.2910  0.1718  0.0589
   94POPS   C3A 1257  10.544  15.820   8.491  0.1929 -0.0701 -0.0932
   94POPS   C4A 1258  10.734  15.611   8.225  0.0009  0.0667  0.0546
   94POPS   C1B 1259  10.254  15.927   9.038  0.3191  0.1211  0.0559
   94POPS   C2B 1260  10.020  15.837   8.610  0.0424  0.1564  0.0215
   94POPS   C3B 1261   9.688  15.983   8.395 -0.0833  0.0205  0.1367
   94POPS   C4B 1262   9.598  16.164   8.688  0.2187  0.0341 -0.1402
   95POPS   CNO 1263   9.115  13.021  11.058 -0.0259  0.2889 -0.3966
   95POPS   PO4 1264   9.314  13.299  10.683  0.0264 -0.0230 -0.2843
   95POPS   GL1 1265   9.434  13.668  10.417 -0.1335  0.1281 -0.0318
   95POPS   GL2 1266   9.815  13.604  10.355 -0.0265 -0.2216  0.2052
   95POPS   C1A 1267   9.562  13.934  10.032  0.1712  0.2303 -0.1294
   95POPS   D2A 1268   9.285  14.193   9.729 -0.2431 -0.0454  0.3049
   95POPS   C3A 1269   9.540  14.547   9.623  0.2028 -0.1785  0.3389
   95POPS   C4A 1270   9.715  14.848   9.678  0.2040 -0.1158 -0.2470
   95POPS   C1B 1271  10.008  13.847   9.880  0.0756  0.2545  0.0114
   95POPS   C2B 1272   9.787  14.063   9.559  0.0286 -0.0492  0.4069
   95POPS   C3B 1273   9.506  14.072   9.249 -0.0707  0.0624  0.3646
   95POPS   C4B 1274   9.233  13.896   9.051 -0.3202 -0.0933 -0.2977
   96POPS   CNO 1275  12.154  16.135  10.505 -0.1092 -0.0832 -0.0943
   96POPS   PO4 1276  11.728  15.938  10.586  0.2247  0.0221 -0.5190
   96POPS   GL1 1277  11.978  15.782  10.240  0.0041  0.0362  0.0517
   96POPS   GL2 1278  11.796  15.603  10.074  0.1610 -0.2223  0.4062
   96POPS   C1A 1279  12.376  15.656  10.063 -0.0907  0.1018  0.2080
   96POPS   D2A 1280  12.679  15.490   9.811  0.1050 -0.0555  0.0145
   96POPS   C3A 1281  12.453  15.179   9.538 -0.5129 -0.2243 -0.0653
   96POPS   C4A 1282  12.479  15.013   9.188  0.0562  0.1982 -0.1177
   96POPS   C1B 1283  11.645  15.544   9.673 -0.0759  0.2147  0.0095
   96POPS   C2B 1284  11.516  15.446   9.290 -0.1616 -0.2005  0.1547
   96POPS   C3B 1285  11.674  15.550   8.810 -0.2005 -0.2683  0.1594
   96POPS   C4B 1286  11.534  15.373   8.414 -0.2412 -0.0628  0.1403
   97POPS   CNO 1287   6.692   6.787  10.286 -0.2655 -0.2107  0.1089
   97POPS   PO4 1288   6.543   7.190  10.396  0.0694 -0.1083  0.3009
   97POPS   GL1 1289   6.536   7.180   9.976  0.1339  0.2299  0.0980
   97POPS   GL2 1290   6.321   6.878   9.844  0.0774  0.0237  0.0343
   97POPS   C1A 1291   6.479   7.404   9.617  0.1000  0.0633  0.1423
   97POPS   D2A 1292   6.368   7.240   9.233  0.2256  0.0043  0.1051
   97POPS   C3A 1293   6.385   7.230   8.749  0.3371 -0.2442  0.0386
   97POPS   C4A 1294   6.349   7.125   8.380  0.2658 -0.4643  0.1414
   97POPS   C1B 1295   6.539   6.802   9.469  0.3204 -0.0535  0.0587
   97POPS   C2B 1296   6.580   6.760   9.001 -0.0874  0.1739 -0.1181
   97POPS   C3B 1297   6.580   6.766   8.615  0.0283 -0.1135  0.0696
   97POPS   C4B 1298   6.337   6.523   8.303  0.0925 -0.4289 -0.0971
   98POPS   CNO 1299   1.830  13.228  10.498  0.0320 -0.0804 -0.0232
   98POPS   PO4 1300   1.995  13.450  10.219 -0.2366  0.1215 -0.1599
   98POPS   GL1 1301   2.314  13.373   9.880 -0.1830  0.3309 -0.0282
   98POPS   GL2 1302   2.069  13.428   9.628  0.0419  0.0201  0.0509
   98POPS   C1A 1303   2.432  13.185   9.420 -0.1092 -0.3102  0.1667
   98POPS   D2A 1304   2.278  13.041   8.952 -0.1547  0.2523 -0.1862
   98POPS   C3A 1305   2.031  13.142   8.662  0.1067  0.0227 -0.1463
   98POPS   C4A 1306   2.149  13.025   8.195 -0.1488 -0.2714  0.1882
   98POPS   C1B 1307   2.190  13.513   9.136  0.0921  0.1811 -0.1257
   98POPS   C2B 1308   2.430  13.592   8.730  0.0280  0.0963 -0.2848
   98POPS   C3B 1309   2.517  13.196   8.574 -0.1410  0.1377  0.2466
   98POPS   C4B 1310   2.896  12.994   8.447  0.0724  0.1883  0.0657
   99POPS   CNO 1311  11.768  16.547  10.489 -0.0860 -0.0108  0.1863
   99POPS   PO4 1312  11.993  16.909  10.344 -0.2302 -0.2042 -0.0163
   99POPS   GL1 1313  12.078  16.790   9.929  0.0173  0.0715 -0.0844
   99POPS   GL2 1314  11.779  16.798   9.834 -0.1172 -0.1295  0.1087
   99POPS   C1A 1315  12.226  16.930   9.543  0.0065 -0.2048  0.0939
   99POPS   D2A 1316  12.446  17.036   9.214  0.2579  0.3207  0.2485
   99POPS   C3A 1317  12.588  16.642   8.935  0.1429  0.2168 -0.0243
   99POPS   C4A 1318  12.617  16.324   8.669 -0.0561  0.0236 -0.1637
   99POPS   C1B 1319  11.943  16.563   9.538  0.1799 -0.2405 -0.0165
   99POPS   C2B 1320  12.349  16.462   9.315 -0.1832  0.3128 -0.3697
   99POPS   C3B 1321  12.447  16.100   9.154 -0.0309  0.1979  0.1140
   99POPS   C4B 1322  12.619  15.733   8.775  0.1107 -0.0181 -0.3152
  100POPS   CNO 1323   8.950   7.121  10.567 -0.1210 -0.1554 -0.1636
  100POPS   PO4 1324   8.601   7.130  10.421 -0.0443 -0.2382 -0.0777
  100POPS   GL1 1325   8.594   7.288  10.026  0.1785 -0.0532  0.0426
  100POPS   GL2 1326   8.658   7.050   9.751  0.3198  0.1430 -0.0723
  100POPS   C1A 1327   8.852   7.579   9.768 -0.0915 -0.2598 -0.1463
  100POPS   D2A 1328   8.900   7.762   9.326  0.2429 -0.0010  0.1696
  100POPS   C3A 1329   9.046   7.524   8.909  0.0215 -0.1843  0.0162
  100POPS   C4A 1330   9.014   7.398   8.512 -0.1024  0.1136  0.1605
  100POPS   C1B 1331   8.790   7.275   9.347 -0.1412  0.1251  0.0381
  100POPS   C2B 1332   8.624   7.204   8.934 -0.0756  0.0245 -0.0729
  100POPS   C3B 1333   8.656   7.010   8.516 -0.0108  0.0075 -0.1035
  100POPS   C4B 1334   8.813   6.956   8.127  0.1708  0.0875 -0.0160
  101POPS   CNO 1335  17.954  11.956  10.714 -0.2206  0.1927 -0.0397
  101POPS   PO4 1336  17.973  12.002  10.188  0.0864 -0.1097  0.1024
  101POPS   GL1 1337  17.948  11.977   9.739 -0.4048  0.2267 -0.0764
  101POPS   GL2 1338  17.722  11.714   9.875 -0.1320  0.2592 -0.0764
  101POPS   C1A 1339  18.016  11.968   9.220 -0.1258  0.0226 -0.0197
  101POPS   D2A 1340  17.944  11.945   8.752 -0.1315 -0.1622 -0.1801
  101POPS   C3A 1341  18.129  12.003   8.317  0.0535 -0.0200 -0.2200
  101POPS   C4A 1342  17.893  11.926   7.981  0.1222 -0.3288 -0.1128
  101POPS   C1B 1343  17.504  11.871   9.558  0.2258  0.2142 -0.0225
  101POPS   C2B 1344  17.484  11.972   9.175  0.0370 -0.1600 -0.0894
  101POPS   C3B 1345  17.481  12.131   8.739 -0.1875  0.3737 -0.0538
  101POPS   C4B 1346  17.357  12.575   8.692  0.1266 -0.1686 -0.0468
  102POPS   CNO 1347   9.645   7.768  10.614  0.0614  0.1623 -0.0591
  102POPS   PO4 1348   9.923   7.553  10.323  0.2353  0.1091  0.0852
  102POPS   GL1 1349   9.857   7.702   9.852 -0.0339  0.2059 -0.2161
  102POPS   GL2 1350   9.854   7.344   9.854  0.2006  0.0699 -0.0128
  102POPS   C1A 1351   9.805   7.684   9.304 -0.0402 -0.1922  0.0242
  102POPS   D2A 1352   9.961   7.592   8.940 -0.2345  0.0520  0.1260
  102POPS   C3A 1353   9.765   7.667   8.533  0.2690 -0.0667 -0.0497
  102POPS   C4A 1354   9.762   7.640   8.112 -0.1819  0.1218  0.0080
  102POPS   C1B 1355  10.047   7.247   9.516 -0.0389 -0.2276  0.0716
  102POPS   C2B 1356   9.867   7.130   9.131 -0.0520 -0.1882  0.3262
  102POPS   C3B 1357   9.493   7.247   8.832 -0.1079  0.0361 -0.1645
  102POPS   C4B 1358   9.539   7.222   8.309  0.2786 -0.0917  0.3636
  103POPS   CNO 1359  17.753   7.881   9.868  0.2803 -0.2160 -0.2648
  103POPS   PO4 1360  17.542   7.531   9.934 -0.3633 -0.2240  0.1611
  103POPS   GL1 1361  17.283   7.486   9.491 -0.1253 -0.0134  0.0533
  103POPS   GL2 1362  17.423   7.817   9.458 -0.3336  0.0098 -0.2010
  103POPS   C1A 1363  17.194   7.441   9.075 -0.0665  0.1830 -0.0391
  103POPS   D2A 1364  17.062   7.345   8.726  0.0757 -0.0033 -0.0133
  103POPS   C3A 1365  17.362   7.145   8.406  0.4053 -0.1084 -0.1412
  103POPS   C4A 1366  17.462   7.006   7.968 -0.0268  0.2768  0.3905
  103POPS   C1B 1367  17.460   8.025   9.047 -0.0299  0.1169 -0.0041
  103POPS   C2B 1368  17.542   8.096   8.529  0.1442 -0.0626  0.3386
  103POPS   C3B 1369  17.404   8.210   8.039 -0.0886 -0.2668 -0.0714
  103POPS   C4B 1370  17.281   8.369   7.699  0.2825 -0.0160 -0.2935
  104POPS   CNO 1371  14.349   1.999  10.117 -0.0406 -0.1038 -0.0443
  104POPS   PO4 1372  14.302   2.415  10.145 -0.1226 -0.1159  0.2156
  104POPS   GL1 1373  14.614   2.390   9.912 -0.4866 -0.0958 -0.0431
  104POPS   GL2 1374  14.789   2.745   9.872 -0.0243  0.0657  0.1201
  104POPS   C1A 1375  14.558   2.195   9.528 -0.0574 -0.2095 -0.1129
  104POPS   D2A 1376  14.589   2.290   9.112  0.1490  0.3633  0.0145
  104POPS   C3A 1377  14.823   2.331   8.785  0.0851  0.3403  0.0671
  104POPS   C4A 1378  14.710   2.318   8.403 -0.1468  0.1848  0.1055
  104POPS   C1B 1379  14.688   2.631   9.485  0.1801 -0.2820  0.0172
  104POPS   C2B 1380  14.898   2.690   9.077  0.0609  0.1931 -0.0662
  104POPS   C3B 1381  14.928   2.794   8.648  0.0346  0.1309  0.1910
  104POPS   C4B 1382  15.163   3.054   8.391 -0.2314  0.1532 -0.0190
  105POPS   CNO 1383   8.505   5.122  10.395  0.0248  0.3481  0.0665
  105POPS   PO4 1384   8.285   5.410  10.198  0.0939 -0.2049  0.1341
  105POPS   GL1 1385   8.400   5.476   9.770 -0.0019 -0.2161 -0.1045
  105POPS   GL2 1386   8.207   5.500   9.529 -0.1089 -0.0910  0.1655
  105POPS   C1A 1387   8.658   5.792   9.495  0.3263  0.0373  0.1567
  105POPS   D2A 1388   9.092   5.905   9.312  0.1430  0.2791  0.1367
  105POPS   C3A 1389   9.380   6.010   9.012 -0.1152 -0.0537 -0.0899
  105POPS   C4A 1390   9.779   6.274   8.826  0.2090 -0.2652 -0.2807
  105POPS   C1B 1391   7.747   5.536   9.254 -0.0314 -0.1190  0.1595
  105POPS   C2B 1392   7.617   5.367   8.881  0.1127 -0.1818 -0.2109
  105POPS   C3B 1393   7.667   5.125   8.567  0.2261 -0.1772 -0.1590
  105POPS   C4B 1394   7.574   4.926   8.194  0.1967  0.1842 -0.0487
  106POPS   CNO 1395  16.609   1.259  11.206  0.0364 -0.3753  0.0527
  106POPS   PO4 1396  16.798   1.256  10.862 -0.1639  0.2331  0.0309
  106POPS   GL1 1397  17.032   1.128  10.435  0.1719 -0.1812  0.1523
  106POPS   GL2 1398  16.752   1.016  10.207  0.4352  0.2791  0.0909
  106POPS   C1A 1399  17.206   0.815  10.101 -0.1871 -0.0982 -0.2272
  106POPS   D2A 1400  17.344   1.000   9.703  0.0332 -0.0382  0.0676
  106POPS   C3A 1401  17.317   0.976   9.121 -0.0332 -0.0509 -0.0614
  106POPS   C4A 1402  17.301   0.950   8.646 -0.3385 -0.1078  0.0735
  106POPS   C1B 1403  16.709   0.704   9.865  0.1364 -0.1658 -0.3289
  106POPS   C2B 1404  16.806   0.585   9.404  0.0098 -0.1307 -0.1633
  106POPS   C3B 1405  16.535   0.419   9.121  0.1373  0.0074 -0.0514
  106POPS   C4B 1406  16.217   0.327   8.912 -0.0947  0.2522 -0.0184
  107POPS   CNO 1407  10.301   8.641   9.920  0.1380 -0.0945 -0.1643
  107POPS   PO4 1408   9.867   8.604   9.878 -0.2681  0.1622  0.1224
  107POPS   GL1 1409   9.651   8.622   9.555 -0.1942  0.0950 -0.0337
  107POPS   GL2 1410   9.404   8.596   9.587 -0.1975 -0.0872  0.1427
  107POPS   C1A 1411   9.632   8.593   9.080  0.0715 -0.1945 -0.2163
  107POPS   D2A 1412  10.013   8.584   8.907 -0.2530 -0.2182 -0.0633
  107POPS   C3A 1413  10.275   8.744   8.643 -0.2838  0.2582  0.3161
  107POPS   C4A 1414  10.385   9.029   8.350 -0.1086  0.0535 -0.1379
  107POPS   C1B 1415   9.117   8.634   9.171 -0.2012 -0.2145  0.0385
  107POPS   C2B 1416   8.762   8.538   8.977 -0.1896  0.1095 -0.1747
  107POPS   C3B 1417   8.559   8.326   8.749 -0.0750 -0.1438  0.3787
  107POPS   C4B 1418   8.460   8.131   8.409  0.0786  0.0708 -0.1536
  108POPS   CNO 1419  13.572   9.668   9.991  0.1663  0.0357 -0.3359
  108POPS   PO4 1420  13.162   9.575  10.042  0.0677  0.0701 -0.2690
  108POPS   GL1 1421  13.070   9.613   9.598 -0.4065  0.0807 -0.1178
  108POPS   GL2 1422  12.952   9.984   9.549  0.0807  0.1761  0.0025
  108POPS   C1A 1423  13.022   9.597   9.161 -0.0132  0.3120 -0.0695
  108POPS   D2A 1424  13.086   9.680   8.731 -0.0444  0.0550  0.1632
  108POPS   C3A 1425  12.936   9.681   8.379  0.1664  0.4320 -0.0008
  108POPS   C4A 1426  12.687   9.859   8.130  0.1082 -0.1795  0.0368
  108POPS   C1B 1427  12.761   9.997   9.109  0.1299  0.0787  0.1508
  108POPS   C2B 1428  12.582   9.662   8.799 -0.2553  0.1976 -0.1742
  108POPS   C3B 1429  12.320   9.587   8.362 -0.0452  0.3742 -0.3009
  108POPS   C4B 1430  12.038   9.559   7.996 -0.2381  0.0334  0.2217
  109POPS   CNO 1431  14.336  12.823  10.902  0.0129  0.2380 -0.1346
  109POPS   PO4 1432  14.680  13.026  11.021 -0.3118  0.4489  0.3200
  109POPS   GL1 1433  14.687  13.089  10.571 -0.0618  0.1808  0.1027
  109POPS   GL2 1434  14.549  12.839  10.398  0.0361 -0.0529 -0.1575
  109POPS   C1A 1435  14.930  13.195  10.170  0.1088 -0.0267 -0.1943
  109POPS   D2A 1436  15.324  13.003  10.090  0.0176  0.0100 -0.1853
  109POPS   C3A 1437  15.454  12.977   9.633  0.1351 -0.2393  0.0945
  109POPS   C4A 1438  15.295  13.191   9.284  0.2679  0.1387  0.2592
  109POPS   C1B 1439  14.804  12.706  10.059  0.0633  0.0755 -0.0366
  109POPS   C2B 1440  15.002  12.629   9.668 -0.0663  0.1280  0.1076
  109POPS   C3B 1441  15.147  12.740   9.193 -0.1014  0.2111 -0.0493
  109POPS   C4B 1442  15.038  13.024   8.825  0.0157  0.2235  0.0132
  110POPS   CNO 1443  10.070  10.415   9.876 -0.1858 -0.0585  0.2387
  110POPS   PO4 1444   9.695  10.344  10.007  0.1763  0.2682 -0.0601
  110POPS   GL1 1445   9.803  10.589   9.557  0.1471 -0.1696  0.1488
  110POPS   GL2 1446   9.606  10.657   9.398  0.2039  0.4019 -0.0402
  110POPS   C1A 1447  10.092  10.447   9.220 -0.4306  0.0781 -0.0626
  110POPS   D2A 1448  10.413  10.469   9.219 -0.3151  0.0938 -0.0748
  110POPS   C3A 1449  10.467  10.873   9.086  0.0275 -0.1381 -0.0212
  110POPS   C4A 1450  10.418  11.214   8.835  0.2335 -0.0052 -0.0868
  110POPS   C1B 1451   9.750  10.679   9.006 -0.0060 -0.0114  0.1041
  110POPS   C2B 1452   9.762  10.446   8.620  0.0107 -0.5413  0.1651
  110POPS   C3B 1453   9.789  10.519   8.161 -0.0003 -0.1486 -0.0496
  110POPS   C4B 1454   9.525  10.702   7.886  0.0170  0.1482 -0.1945
  111POPS   CNO 1455  11.591   2.641   9.662  0.3735 -0.2250  0.1197
  111POPS   PO4 1456  11.208   2.585   9.854  0.1096  0.1702 -0.1476
  111POPS   GL1 1457  11.123   2.720   9.443 -0.2709 -0.0211 -0.0284
  111POPS   GL2 1458  11.177   2.492   9.164  0.1147 -0.0604  0.1258
  111POPS   C1A 1459  10.892   2.881   8.957  0.1249 -0.4006 -0.2288
  111POPS   D2A 1460  10.750   2.933   8.551 -0.2015  0.1913  0.0998
  111POPS   C3A 1461  10.439   2.703   8.337 -0.2596 -0.1391  0.1695
  111POPS   C4A 1462  10.144   2.912   8.090  0.0623 -0.2056  0.0924
  111POPS   C1B 1463  11.319   2.684   8.880  0.3799  0.0724 -0.0504
  111POPS   C2B 1464  11.366   2.857   8.445 -0.0062 -0.2016  0.0961
  111POPS   C3B 1465  11.321   2.934   7.991  0.1451 -0.1062  0.0323
  111POPS   C4B 1466  11.296   2.852   7.508  0.0276 -0.0645  0.0484
  112POPS   CNO 1467  15.096   2.038  10.458  0.0955  0.1675  0.0240
  112POPS   PO4 1468  14.844   1.921  10.159  0.1578 -0.1131 -0.1926
  112POPS   GL1 1469  15.226   1.861   9.932 -0.1418  0.0542 -0.1776
  112POPS   GL2 1470  15.505   2.062  10.019 -0.2517 -0.2544 -0.2681
  112POPS   C1A 1471  15.308   1.705   9.581  0.3673 -0.0194 -0.0078
  112POPS   D2A 1472  15.209   1.492   9.319 -0.2806 -0.1017  0.1628
  112POPS   C3A 1473  15.110   1.381   9.000  0.3333 -0.2228  0.1647
  112POPS   C4A 1474  14.853   1.428   8.643  0.1668 -0.0562  0.1480
  112POPS   C1B 1475  15.732   2.074   9.755  0.1813  0.1307  0.0979
  112POPS   C2B 1476  16.134   2.039   9.532  0.2424  0.2581  0.2922
  112POPS   C3B 1477  16.399   1.820   9.343 -0.0447 -0.3816  0.1769
  112POPS   C4B 1478  16.572   1.513   9.144 -0.0527 -0.1055 -0.1849
  113POPS   CNO 1479  10.560   6.782  10.428  0.1981  0.1059 -0.1725
  113POPS   PO4 1480  10.765   7.145  10.286  0.2832 -0.1083  0.0029
  113POPS   GL1 1481  10.689   6.999   9.922  0.2256 -0.0703 -0.0402
  113POPS   GL2 1482  10.731   7.248   9.660 -0.0725  0.0835 -0.3544
  113POPS   C1A 1483  10.702   6.786   9.501  0.0064  0.3055 -0.3281
  113POPS   D2A 1484  10.612   6.516   9.193  0.1734 -0.0172  0.3523
  113POPS   C3A 1485  10.793   6.519   8.762 -0.0717  0.3029  0.0030
  113POPS   C4A 1486  10.701   6.208   8.419  0.2313  0.0486 -0.2018
  113POPS   C1B 1487  10.540   7.184   9.273  0.2894 -0.1695 -0.1344
  113POPS   C2B 1488  10.488   7.405   8.967 -0.0486 -0.1612  0.3345
  113POPS   C3B 1489  10.761   7.535   8.562  0.1188 -0.0868  0.2417
  113POPS   C4B 1490  10.964   7.782   8.178 -0.4098  0.1131 -0.0987
  114POPS   CNO 1491   4.439   7.459  10.529  0.0242 -0.4862 -0.1574
  114POPS   PO4 1492   4.098   7.647  10.323 -0.2031  0.0140  0.1477
  114POPS   GL1 1493   3.929   7.674   9.882 -0.1424  0.0512 -0.1827
  114POPS   GL2 1494   3.857   7.458   9.690 -0.1445  0.0840  0.0691
  114POPS   C1A 1495   3.831   7.984   9.620 -0.0951 -0.3209  0.0760
  114POPS   D2A 1496   3.889   8.206   9.239 -0.1472  0.0172  0.1518
  114POPS   C3A 1497   3.861   8.089   8.860 -0.0345 -0.2383 -0.1447
  114POPS   C4A 1498   3.780   8.311   8.441  0.1293  0.3737 -0.0502
  114POPS   C1B 1499   4.228   7.464   9.391 -0.0071 -0.1537 -0.1902
  114POPS   C2B 1500   4.445   7.408   8.930 -0.1711  0.0776  0.3098
  114POPS   C3B 1501   4.338   7.252   8.498 -0.5552  0.2030 -0.5546
  114POPS   C4B 1502   4.126   7.408   8.183  0.2040  0.0603  0.1018
  115POPS   CNO 1503   7.624   0.741   9.770  0.2102 -0.1960 -0.1274
  115POPS   PO4 1504   7.290   0.433   9.726  0.2274  0.1356 -0.2076
  115POPS   GL1 1505   7.421   0.545   9.384 -0.1940 -0.1652  0.1757
  115POPS   GL2 1506   7.108   0.669   9.256 -0.0082 -0.0169  0.0552
  115POPS   C1A 1507   7.490   0.644   8.932  0.1231  0.1153  0.0065
  115POPS   D2A 1508   7.523   1.043   8.629 -0.2199 -0.3435 -0.1144
  115POPS   C3A 1509   7.708   1.218   8.333 -0.2392 -0.0038 -0.2027
  115POPS   C4A 1510   7.859   1.508   8.189 -0.0652 -0.0306  0.0103
  115POPS   C1B 1511   7.026   0.779   8.865  0.3109 -0.0769  0.0324
  115POPS   C2B 1512   6.981   1.167   8.695  0.1866  0.3290  0.0639
  115POPS   C3B 1513   7.150   1.213   8.305 -0.0446  0.3606 -0.1863
  115POPS   C4B 1514   7.338   1.360   7.999  0.1250  0.2524 -0.3589
  116POPS   CNO 1515  13.524   7.212   9.393  0.2674 -0.2723 -0.3117
  116POPS   PO4 1516  13.101   7.247   9.484 -0.1567  0.0336  0.2901
  116POPS   GL1 1517  13.029   7.204   9.112  0.3395  0.0104  0.1077
  116POPS   GL2 1518  12.792   6.943   9.172 -0.1331  0.5930  0.1512
  116POPS   C1A 1519  12.797   7.362   8.715  0.3767 -0.3945 -0.0764
  116POPS   D2A 1520  12.715   7.404   8.252  0.0548  0.2227 -0.0233
  116POPS   C3A 1521  12.878   7.499   7.906  0.3848  0.1855 -0.1599
  116POPS   C4A 1522  12.820   7.760   7.596  0.1222 -0.3923  0.0119
  116POPS   C1B 1523  12.814   6.844   8.775  0.1921 -0.2686 -0.2277
  116POPS   C2B 1524  12.558   6.949   8.459 -0.0173 -0.1072  0.2012
  116POPS   C3B 1525  12.636   6.979   8.073  0.2701 -0.1573  0.0250
  116POPS   C4B 1526  12.721   7.077   7.671 -0.0018  0.0874 -0.1491
  117POPS   CNO 1527   6.074   3.017  10.533 -0.0398  0.1765 -0.2042
  117POPS   PO4 1528   5.751   2.772  10.263 -0.4580  0.2681 -0.0416
  117POPS   GL1 1529   5.405   3.125  10.121  0.2259  0.0901  0.0513
  117POPS   GL2 1530   5.565   3.243   9.911  0.0796 -0.1505  0.1907
  117POPS   C1A 1531   5.013   3.073   9.912 -0.0049  0.0878  0.0801
  117POPS   D2A 1532   4.738   3.046   9.569 -0.2098 -0.0390  0.0868
  117POPS   C3A 1533   4.781   2.746   9.192  0.1761 -0.1693  0.3406
  117POPS   C4A 1534   4.963   2.529   9.003 -0.0982 -0.2174  0.1128
  117POPS   C1B 1535   5.368   3.092   9.582  0.0349 -0.0615 -0.1794
  117POPS   C2B 1536   5.256   3.075   9.276  0.1672  0.2117 -0.1599
  117POPS   C3B 1537   5.095   3.010   8.909 -0.0875 -0.4557 -0.0410
  117POPS   C4B 1538   4.880   2.841   8.565 -0.2452  0.1520  0.0368
  118POPS   CNO 1539  14.756  12.072  10.872 -0.0281  0.2107 -0.3107
  118POPS   PO4 1540  14.550  11.758  10.668  0.1663 -0.2265 -0.1638
  118POPS   GL1 1541  14.728  11.776  10.285 -0.3090  0.4490 -0.0862
  118POPS   GL2 1542  14.404  11.896  10.162 -0.0969 -0.3465 -0.1627
  118POPS   C1A 1543  14.720  11.523   9.960  0.0324 -0.0406  0.0685
  118POPS   D2A 1544  14.804  11.192   9.735  0.2139 -0.3133 -0.1554
  118POPS   C3A 1545  14.903  11.274   9.297 -0.1286 -0.0206  0.1310
  118POPS   C4A 1546  15.108  11.469   8.976 -0.3437 -0.1434 -0.2285
  118POPS   C1B 1547  14.364  11.943   9.708 -0.3264 -0.2122 -0.2895
  118POPS   C2B 1548  14.366  11.939   9.266  0.3689  0.0343  0.2643
  118POPS   C3B 1549  14.335  12.131   8.962 -0.1074 -0.1736 -0.0260
  118POPS   C4B 1550  14.214  12.122   8.591  0.0353 -0.0468  0.1282
  119POPS   CNO 1551   5.395  11.600  10.595  0.1210 -0.0671  0.0411
  119POPS   PO4 1552   5.062  11.540  10.399  0.0070  0.1096  0.4711
  119POPS   GL1 1553   5.367  11.477  10.101  0.0999 -0.4700 -0.0575
  119POPS   GL2 1554   5.433  11.664  10.023  0.0276 -0.3702 -0.2301
  119POPS   C1A 1555   5.702  11.221  10.001 -0.2143 -0.1614 -0.0301
  119POPS   D2A 1556   6.197  11.233  10.051  0.1863  0.3126  0.1208
  119POPS   C3A 1557   6.425  11.195   9.642 -0.1883  0.0995  0.3158
  119POPS   C4A 1558   6.791  10.861   9.564 -0.2938  0.4266 -0.2709
  119POPS   C1B 1559   5.487  11.592   9.620  0.1249 -0.1090 -0.0294
  119POPS   C2B 1560   5.286  11.856   9.280 -0.4824 -0.1545 -0.1816
  119POPS   C3B 1561   4.980  12.152   8.957  0.1375 -0.0938 -0.1300
  119POPS   C4B 1562   4.601  12.405   8.857  0.1314  0.1260  0.0290
  120POPS   CNO 1563  11.234  10.771  10.262  0.0060  0.0894  0.1605
  120POPS   PO4 1564  11.363  10.897   9.887 -0.0753  0.0036 -0.1235
  120POPS   GL1 1565  11.032  10.652   9.746 -0.2319 -0.1901  0.0085
  120POPS   GL2 1566  10.852  10.440   9.576  0.2985 -0.0471 -0.1964
  120POPS   C1A 1567  10.769  10.889   9.439 -0.0071  0.2426 -0.0984
  120POPS   D2A 1568  10.353  11.198   9.478 -0.2582 -0.1799  0.0682
  120POPS   C3A 1569  10.342  11.649   9.390 -0.2112  0.2194 -0.1610
  120POPS   C4A 1570  10.033  11.923   9.524  0.2633  0.4086  0.1562
  120POPS   C1B 1571  11.058  10.587   9.146  0.2049 -0.1060  0.1765
  120POPS   C2B 1572  10.873  10.718   8.796 -0.0756  0.0775 -0.1490
  120POPS   C3B 1573  10.609  10.907   8.516 -0.0139 -0.3939 -0.2541
  120POPS   C4B 1574  10.277  10.568   8.281 -0.0094  0.1399  0.1338
  121POPS   CNO 1575  16.114  11.839  10.748  0.1237  0.0354  0.4172
  121POPS   PO4 1576  16.186  12.098  10.452 -0.3202 -0.2984  0.0043
  121POPS   GL1 1577  16.272  12.123  10.044 -0.0344  0.3209  0.1297
  121POPS   GL2 1578  16.564  12.174   9.864 -0.0178  0.0652 -0.1736
  121POPS   C1A 1579  16.059  12.231   9.629 -0.0730  0.0211 -0.1162
  121POPS   D2A 1580  16.128  12.408   9.270 -0.0226 -0.2199 -0.3152
  121POPS   C3A 1581  15.979  12.129   8.868  0.4121 -0.0758  0.2219
  121POPS   C4A 1582  15.881  11.650   8.714  0.0956 -0.3390 -0.2566
  121POPS   C1B 1583  16.586  12.331   9.399 -0.0465 -0.0988  0.2916
  121POPS   C2B 1584  16.433  12.346   8.913  0.0842 -0.1053  0.1360
  121POPS   C3B 1585  16.227  12.575   8.487  0.0981  0.0158  0.1844
  121POPS   C4B 1586  15.980  12.926   8.275  0.0193 -0.0426  0.0717
  122POPS   CNO 1587   1.664  15.451  10.533  0.0405  0.1136 -0.1432
  122POPS   PO4 1588   1.975  15.162  10.632  0.1956 -0.0147  0.1117
  122POPS   GL1 1589   2.028  15.336  10.236 -0.1113  0.1192 -0.0737
  122POPS   GL2 1590   1.810  15.397  10.068  0.1925 -0.2505  0.0554
  122POPS   C1A 1591   2.306  15.291   9.915  0.2460 -0.2245 -0.2773
  122POPS   D2A 1592   2.668  15.324   9.735  0.2765 -0.0510 -0.2731
  122POPS   C3A 1593   2.635  15.691   9.443 -0.1805  0.0205 -0.2504
  122POPS   C4A 1594   2.277  15.640   9.209  0.2569  0.2030  0.0674
  122POPS   C1B 1595   1.532  15.697   9.914  0.0510 -0.0002 -0.0633
  122POPS   C2B 1596   1.409  15.450   9.541  0.2022 -0.0732 -0.1652
  122POPS   C3B 1597   1.168  15.124   9.258  0.1279  0.2800 -0.1942
  122POPS   C4B 1598   1.280  14.880   9.010  0.0157 -0.0254 -0.0403
  123POPS   CNO 1599  10.227   2.523  10.782  0.0788 -0.0321 -0.1423
  123POPS   PO4 1600  10.301   2.333  10.359  0.2234  0.2361  0.1545
  123POPS   GL1 1601  10.331   2.044   9.995  0.1113  0.4059 -0.0272
  123POPS   GL2 1602   9.914   1.981   9.950 -0.0916 -0.0492  0.1591
  123POPS   C1A 1603  10.255   2.202   9.570 -0.3144 -0.0063  0.1141
  123POPS   D2A 1604  10.229   2.518   9.177 -0.1441 -0.1264 -0.0445
  123POPS   C3A 1605  10.196   2.411   8.724  0.1337 -0.2191  0.2147
  123POPS   C4A 1606   9.897   2.541   8.350 -0.0206 -0.0142  0.0081
  123POPS   C1B 1607   9.784   1.651   9.551  0.0208  0.3149 -0.0713
  123POPS   C2B 1608   9.758   1.745   9.173  0.3190 -0.0039  0.1072
  123POPS   C3B 1609   9.634   1.620   8.724  0.3015  0.6319  0.0593
  123POPS   C4B 1610   9.739   1.558   8.267 -0.0222  0.0157 -0.1508
  124POPS   CNO 1611   2.418  16.890  10.602  0.1018 -0.2238 -0.1366
  124POPS   PO4 1612   1.932  16.837  10.580  0.0673 -0.1402 -0.1179
  124POPS   GL1 1613   2.068  16.746  10.143 -0.0210 -0.1477 -0.0203
  124POPS   GL2 1614   1.789  16.745  10.113  0.1350 -0.2795  0.1073
  124POPS   C1A 1615   2.117  16.751   9.720 -0.1627  0.1907 -0.1296
  124POPS   D2A 1616   2.476  16.782   9.420  0.0273  0.0574 -0.1010
  124POPS   C3A 1617   2.262  16.897   9.137  0.1068  0.0884  0.1014
  124POPS   C4A 1618   1.774  16.856   9.097 -0.2613  0.4012  0.1313
  124POPS   C1B 1619   1.648  17.069   9.874  0.0756  0.2609 -0.7739
  124POPS   C2B 1620   1.517  17.085   9.454 -0.1651  0.1700 -0.0395
  124POPS   C3B 1621   1.342  17.290   9.230 -0.1038 -0.0013 -0.1592
  124POPS   C4B 1622   1.057  17.572   9.296  0.1212  0.1311  0.5539
  125POPS   CNO 1623  16.616  17.844  10.733  0.0633 -0.0345  0.1432
  125POPS   PO4 1624  16.964  18.043  10.718  0.1826  0.1316 -0.1434
  125POPS   GL1 1625  16.982  18.129  10.350  0.1052  0.2184  0.0304
  125POPS   GL2 1626  17.253  18.011  10.295  0.2660 -0.0717 -0.1003
  125POPS   C1A 1627  17.142  18.337   9.967  0.0137 -0.0653  0.0199
  125POPS   D2A 1628  17.302  18.408   9.546  0.1550  0.0887 -0.0669
  125POPS   C3A 1629  16.929  18.513   9.239  0.0099 -0.1498 -0.0947
  125POPS   C4A 1630  16.884  18.691   8.801 -0.1476  0.2345  0.1516
  125POPS   C1B 1631  17.188  17.826   9.888 -0.1045 -0.2073  0.3035
  125POPS   C2B 1632  17.067  17.544   9.615 -0.1400 -0.1277 -0.0816
  125POPS   C3B 1633  17.119  17.591   9.236  0.1056 -0.0158 -0.0137
  125POPS   C4B 1634  17.517  17.566   9.025 -0.0176 -0.0276 -0.2170
  126POPS   CNO 1635   0.250  12.281  10.285  0.2673  0.2726 -0.0343
  126POPS   PO4 1636   0.498  12.548  10.571 -0.1282 -0.0300 -0.0779
  126POPS   GL1 1637   0.471  12.590   9.977  0.1704  0.1567 -0.0711
  126POPS   GL2 1638   0.176  12.654   9.871 -0.1609 -0.0591  0.0483
  126POPS   C1A 1639   0.815  12.399   9.612 -0.1451  0.3502  0.1161
  126POPS   D2A 1640   0.854  12.406   9.158 -0.0616 -0.2008  0.2333
  126POPS   C3A 1641   1.309  12.470   9.165  0.1314 -0.4292 -0.1002
  126POPS   C4A 1642   1.464  12.177   9.543 -0.1652  0.2284  0.3408
  126POPS   C1B 1643  -0.144  12.802   9.599  0.0400 -0.2910  0.0726
  126POPS   C2B 1644  -0.195  12.951   9.094  0.0543  0.1618 -0.0071
  126POPS   C3B 1645  -0.375  13.002   8.714  0.1519 -0.0592  0.2634
  126POPS   C4B 1646  -0.470  13.287   8.395  0.0444 -0.0723 -0.0826
  127POPS   CNO 1647  15.701   8.996  10.186 -0.3779  0.0943 -0.0285
  127POPS   PO4 1648  15.781   9.410  10.062 -0.2296 -0.0834 -0.2804
  127POPS   GL1 1649  15.717   9.617   9.661 -0.1131 -0.0461 -0.0396
  127POPS   GL2 1650  15.820   9.884   9.536  0.1008  0.1802  0.0403
  127POPS   C1A 1651  15.786   9.488   9.249 -0.2179 -0.1762  0.0512
  127POPS   D2A 1652  16.042   9.718   9.025  0.0410  0.0966 -0.0635
  127POPS   C3A 1653  15.883  10.028   8.784  0.2857  0.0578 -0.2082
  127POPS   C4A 1654  15.842  10.442   8.781  0.1551  0.1673  0.0191
  127POPS   C1B 1655  16.143  10.079   9.389 -0.3432 -0.0160 -0.0041
  127POPS   C2B 1656  16.206  10.543   9.134  0.1908 -0.1891  0.1045
  127POPS   C3B 1657  16.329  10.703   8.709 -0.1160  0.2775  0.0820
  127POPS   C4B 1658  16.227  11.057   8.327  0.1096 -0.1009  0.0015
  128POPS   CNO 1659   5.783  17.115  10.600  0.0734  0.2730 -0.2917
  128POPS   PO4 1660   5.816  17.376  10.418  0.1709  0.3514 -0.1792
  128POPS   GL1 1661   5.931  17.197  10.101  0.0463  0.0265 -0.2642
  128POPS   GL2 1662   6.080  17.471   9.934  0.2736 -0.4217 -0.1238
  128POPS   C1A 1663   5.845  17.012   9.734  0.0372 -0.2602  0.1796
  128POPS   D2A 1664   5.696  16.930   9.264  0.2947 -0.2268  0.0572
  128POPS   C3A 1665   5.345  17.045   9.020  0.0089  0.4314 -0.1745
  128POPS   C4A 1666   5.230  17.193   8.661  0.1517  0.2579  0.0664
  128POPS   C1B 1667   6.360  17.604   9.543  0.1535  0.1603 -0.4408
  128POPS   C2B 1668   6.552  17.773   9.152  0.2015  0.0689  0.1127
  128POPS   C3B 1669   6.637  17.696   8.803 -0.0106  0.1403 -0.0766
  128POPS   C4B 1670   6.482  17.631   8.332  0.1907  0.0868  0.2195
  129POPS   CNO 1671   0.694   1.411  11.389  0.0396 -0.3375  0.0097
  129POPS   PO4 1672   0.776   1.407  10.840 -0.1078 -0.0420  0.0812
  129POPS   GL1 1673   0.698   1.356  10.380  0.1725 -0.0447 -0.1910
  129POPS   GL2 1674   0.857   1.614  10.190  0.1093 -0.1323 -0.0802
  129POPS   C1A 1675   0.909   1.066  10.104 -0.2322 -0.0953 -0.5352
  129POPS   D2A 1676   0.773   0.877   9.710  0.1286 -0.2685 -0.0745
  129POPS   C3A 1677   0.716   0.478   9.334  0.0106 -0.2166  0.0579
  129POPS   C4A 1678   0.706   0.333   8.989  0.0304 -0.0519  0.1015
  129POPS   C1B 1679   0.909   1.485   9.814  0.2043  0.2127 -0.2116
  129POPS   C2B 1680   0.822   1.352   9.402  0.2236 -0.2111 -0.0670
  129POPS   C3B 1681   0.889   1.172   9.018  0.2138 -0.0488 -0.2943
  129POPS   C4B 1682   0.790   0.794   8.824  0.1444  0.0939  0.0985
  130POPS   CNO 1683  15.582   7.813   9.782  0.0076  0.3480  0.0443
  130POPS   PO4 1684  15.682   8.225   9.447  0.1201 -0.0834  0.0455
  130POPS   GL1 1685  15.827   8.501   9.159  0.2554 -0.0437 -0.1714
  130POPS   GL2 1686  16.044   8.468   9.099  0.1134  0.1800 -0.1288
  130POPS   C1A 1687  15.772   8.692   8.707 -0.2875  0.2320  0.1082
  130POPS   D2A 1688  15.643   9.006   8.388  0.0659 -0.1877  0.3526
  130POPS   C3A 1689  15.455   9.368   8.385  0.1237 -0.1387 -0.1546
  130POPS   C4A 1690  15.595   9.755   8.334 -0.0938 -0.0822  0.1764
  130POPS   C1B 1691  16.218   8.833   8.892 -0.1671  0.1557  0.0939
  130POPS   C2B 1692  16.261   9.095   8.601 -0.1083  0.0746  0.1119
  130POPS   C3B 1693  16.166   9.232   8.250 -0.1289  0.0970  0.2123
  130POPS   C4B 1694  16.001   9.622   8.093  0.0409  0.0615  0.0663
  131POPS   CNO 1695  12.859   7.920   9.980  0.5369 -0.0212 -0.1347
  131POPS   PO4 1696  12.517   8.299   9.948 -0.0060  0.3436  0.0798
  131POPS   GL1 1697  12.605   8.068   9.550  0.3624 -0.0748  0.0747
  131POPS   GL2 1698  12.898   8.043   9.463 -0.1416  0.0820  0.1035
  131POPS   C1A 1699  12.388   8.029   9.154 -0.0206 -0.2850 -0.1624
  131POPS   D2A 1700  12.186   7.884   8.854  0.1904 -0.0493 -0.3324
  131POPS   C3A 1701  12.239   7.894   8.421 -0.0533 -0.1732 -0.4639
  131POPS   C4A 1702  12.452   7.758   8.035 -0.0153 -0.2051  0.0670
  131POPS   C1B 1703  12.890   8.163   9.050 -0.0311  0.2775 -0.1302
  131POPS   C2B 1704  13.028   8.407   8.801 -0.2206  0.1844  0.4707
  131POPS   C3B 1705  12.832   8.711   8.458 -0.1032  0.0955  0.1186
  131POPS   C4B 1706  12.464   8.904   8.250 -0.2117 -0.1866 -0.2656
  132POPS   CNO 1707   5.441  10.615  10.186  0.2005 -0.0378  0.0578
  132POPS   PO4 1708   5.001  10.545  10.291  0.1379  0.1928 -0.2319
  132POPS   GL1 1709   4.898  10.605   9.851 -0.1039 -0.1750 -0.0823
  132POPS   GL2 1710   4.672  10.764   9.822 -0.0388 -0.0202  0.0478
  132POPS   C1A 1711   5.143  10.603   9.463  0.0517  0.0256 -0.2484
  132POPS   D2A 1712   5.500  10.532   9.146 -0.3283 -0.1223 -0.0393
  132POPS   C3A 1713   5.913  10.728   9.243  0.1977 -0.0175 -0.0313
  132POPS   C4A 1714   6.146  10.969   9.167  0.1506 -0.5188  0.0572
  132POPS   C1B 1715   4.858  11.025   9.500  0.0467  0.1166  0.2341
  132POPS   C2B 1716   4.913  10.960   9.092 -0.1292  0.3784  0.1905
  132POPS   C3B 1717   4.962  11.201   8.741 -0.0820 -0.1605 -0.0503
  132POPS   C4B 1718   4.811  11.364   8.359  0.0631  0.0846 -0.0538
  133POPS   CNO 1719   8.378   8.056  10.568  0.2693  0.3719 -0.1289
  133POPS   PO4 1720   8.254   8.161  10.121  0.2558 -0.0880 -0.0690
  133POPS   GL1 1721   8.101   7.921   9.824 -0.0818 -0.1099  0.5173
  133POPS   GL2 1722   8.101   7.620   9.895  0.0105 -0.0916 -0.1929
  133POPS   C1A 1723   8.228   7.991   9.413 -0.1020  0.0146 -0.2763
  133POPS   D2A 1724   8.168   8.117   8.986 -0.1981 -0.1418 -0.6351
  133POPS   C3A 1725   8.039   7.894   8.595  0.3124  0.0185  0.2014
  133POPS   C4A 1726   7.632   7.954   8.440 -0.6652  0.2152 -0.0443
  133POPS   C1B 1727   8.361   7.515   9.492 -0.3649 -0.0324  0.1722
  133POPS   C2B 1728   8.317   7.648   9.020  0.0561 -0.0684 -0.1009
  133POPS   C3B 1729   8.502   7.675   8.617 -0.0362 -0.3151  0.3219
  133POPS   C4B 1730   8.611   7.399   8.189  0.0968 -0.2093 -0.2588
  134POPS   CNO 1731   9.715   5.564  10.651 -0.0516 -0.1348 -0.0533
  134POPS   PO4 1732   9.592   5.827  10.280  0.0421 -0.0367  0.0877
  134POPS   GL1 1733   9.429   5.837   9.838  0.1523  0.0034 -0.1595
  134POPS   GL2 1734   9.513   6.123   9.735  0.1921 -0.0278  0.2993
  134POPS   C1A 1735   9.586   5.679   9.413  0.2634  0.0501 -0.0471
  134POPS   D2A 1736   9.839   5.752   9.081 -0.0671  0.0579 -0.1282
  134POPS   C3A 1737  10.225   5.753   9.206 -0.0346 -0.1062  0.2182
  134POPS   C4A 1738  10.471   5.426   9.103 -0.1639 -0.0520  0.0449
  134POPS   C1B 1739   9.656   6.190   9.362  0.0976 -0.1443 -0.1308
  134POPS   C2B 1740  10.101   6.317   9.201  0.1867  0.3724 -0.3064
  134POPS   C3B 1741  10.314   6.213   8.898 -0.4467 -0.1654  0.1105
  134POPS   C4B 1742  10.196   6.009   8.526  0.0356 -0.1866 -0.2785
  135POPS   CNO 1743   6.705  18.361  10.167 -0.2294  0.1742  0.0376
  135POPS   PO4 1744   6.928  17.992   9.952 -0.2731 -0.2172 -0.0108
  135POPS   GL1 1745   6.826  18.212   9.646 -0.1427 -0.0278  0.3052
  135POPS   GL2 1746   7.073  18.482   9.525  0.1086  0.0727  0.0632
  135POPS   C1A 1747   6.655  18.372   9.179  0.0411  0.1642 -0.0559
  135POPS   D2A 1748   6.592  18.445   8.762  0.2473  0.1517  0.0758
  135POPS   C3A 1749   6.386  18.103   8.667  0.1451 -0.4229  0.0179
  135POPS   C4A 1750   6.048  17.899   8.395 -0.0552  0.0142 -0.0400
  135POPS   C1B 1751   7.068  18.603   9.067  0.2158 -0.2079 -0.0147
  135POPS   C2B 1752   7.047  18.722   8.631  0.1490 -0.0363  0.2339
  135POPS   C3B 1753   6.924  19.087   8.353  0.0345 -0.3843  0.1560
  135POPS   C4B 1754   6.940  19.306   7.949  0.0974  0.0055  0.1579
  136POPS   CNO 1755   6.336   2.756  10.104  0.1438 -0.1906 -0.1159
  136POPS   PO4 1756   6.073   3.051   9.974 -0.3881 -0.0916  0.2103
  136POPS   GL1 1757   6.016   3.025   9.576 -0.5373  0.0144  0.3819
  136POPS   GL2 1758   6.207   2.812   9.512 -0.3802 -0.0519 -0.1008
  136POPS   C1A 1759   5.766   3.157   9.206  0.0099 -0.1832 -0.3286
  136POPS   D2A 1760   5.700   3.132   8.743 -0.0635 -0.3736  0.0168
  136POPS   C3A 1761   5.866   3.108   8.310  0.1459  0.0139  0.0392
  136POPS   C4A 1762   5.867   2.914   7.977 -0.0961  0.2487 -0.1210
  136POPS   C1B 1763   6.170   2.873   9.041  0.0495 -0.0628 -0.0882
  136POPS   C2B 1764   6.093   2.813   8.709  0.1634 -0.0801  0.1030
  136POPS   C3B 1765   5.860   2.549   8.375 -0.0505 -0.0637 -0.0190
  136POPS   C4B 1766   5.664   2.246   8.097 -0.1041  0.1525 -0.0055
  137POPS   CNO 1767   4.396   7.525   9.881 -0.4821 -0.0292  0.2786
  137POPS   PO4 1768   4.827   7.455   9.799  0.1935 -0.0816 -0.2348
  137POPS   GL1 1769   4.701   7.613   9.444  0.0684 -0.1177 -0.2263
  137POPS   GL2 1770   4.461   7.871   9.514  0.0265 -0.2512  0.0837
  137POPS   C1A 1771   4.879   7.817   9.084  0.0545 -0.0734 -0.2750
  137POPS   D2A 1772   4.802   7.658   8.627 -0.1590 -0.0963  0.2758
  137POPS   C3A 1773   5.139   7.575   8.324  0.3153  0.1535 -0.1977
  137POPS   C4A 1774   5.618   7.741   8.342 -0.2304 -0.1640  0.3431
  137POPS   C1B 1775   4.402   7.933   9.110 -0.0843  0.0522 -0.1744
  137POPS   C2B 1776   4.314   7.948   8.699 -0.1715 -0.2698  0.4242
  137POPS   C3B 1777   4.237   7.993   8.265 -0.0172  0.3030  0.0444
  137POPS   C4B 1778   4.410   8.259   8.000  0.0938 -0.0925  0.0727
  138YOPS   CNO 1779   4.607   6.413  10.466 -0.0333  0.1655 -0.2660
  138YOPS   PO4 1780   4.595   6.193  10.040  0.0951  0.1074  0.3294
  138YOPS   GL1 1781   4.718   6.057   9.593  0.2131 -0.2128 -0.1620
  138YOPS   GL2 1782   4.460   5.827   9.465  0.2869 -0.1061 -0.0159
  138YOPS   C1A 1783   4.889   6.063   9.071 -0.0122 -0.2740 -0.2821
  138YOPS   D2A 1784   4.774   6.047   8.630 -0.1010  0.1643  0.2265
  138YOPS   C3A 1785   4.964   6.179   8.223 -0.0053  0.1124 -0.4135
  138YOPS   C4A 1786   5.405   6.002   8.113 -0.2423  0.0101 -0.2835
  138YOPS   C1B 1787   4.447   5.882   9.132  0.1746 -0.0201  0.3663
  138YOPS   C2B 1788   4.315   5.763   8.684 -0.1877  0.2840 -0.0122
  138YOPS   D3B 1789   4.295   5.742   8.272  0.0546 -0.0232  0.0464
  138YOPS   C4B 1790   4.725   5.754   8.146  0.4609  0.0449  0.1997
  139YOPS   CNO 1791   4.950   3.725  10.953  0.3243 -0.0353  0.2441
  139YOPS   PO4 1792   4.866   3.732  10.478  0.2075 -0.1176 -0.0009
  139YOPS   GL1 1793   4.868   3.623  10.052 -0.1118  0.2759  0.2196
  139YOPS   GL2 1794   5.025   3.957   9.879  0.1822  0.0052 -0.1788
  139YOPS   C1A 1795   5.016   3.453   9.649  0.3588  0.2642  0.0014
  139YOPS   D2A 1796   4.875   3.396   9.212 -0.0165 -0.0566  0.2022
  139YOPS   C3A 1797   4.678   3.317   8.828  0.0762  0.1944 -0.1516
  139YOPS   C4A 1798   4.884   3.453   8.432  0.0056  0.1021 -0.0980
  139YOPS   C1B 1799   4.875   3.887   9.479 -0.2110 -0.0586 -0.2943
  139YOPS   C2B 1800   4.879   3.857   8.984  0.2991 -0.0861  0.0620
  139YOPS   D3B 1801   5.005   3.940   8.599  0.0244 -0.0522 -0.2482
  139YOPS   C4B 1802   4.791   3.912   8.266  0.0587  0.1423 -0.1315
  140YOPS   CNO 1803  13.245  17.343  10.150 -0.0613  0.0092 -0.1277
  140YOPS   PO4 1804  13.461  17.575  10.196 -0.1111  0.0819  0.0413
  140YOPS   GL1 1805  13.631  17.861   9.925  0.4778 -0.1370 -0.0799
  140YOPS   GL2 1806  13.379  18.151   9.983  0.0526  0.1369 -0.2850
  140YOPS   C1A 1807  13.916  17.819   9.587 -0.0276  0.3330 -0.1311
  140YOPS   D2A 1808  14.147  17.890   9.233  0.1131  0.1760 -0.2227
  140YOPS   C3A 1809  13.921  17.869   8.860 -0.1217  0.3071 -0.2340
  140YOPS   C4A 1810  14.119  17.679   8.475 -0.2192 -0.2171 -0.0827
  140YOPS   C1B 1811  13.387  18.047   9.533 -0.0849  0.0561 -0.1246
  140YOPS   C2B 1812  13.542  17.819   9.192  0.2342  0.0930  0.3318
  140YOPS   D3B 1813  13.531  17.544   8.854 -0.1279 -0.0260 -0.2891
  140YOPS   C4B 1814  13.612  17.677   8.455 -0.1214  0.1762  0.0073
  141YOPS   CNO 1815   3.973   2.832  10.308  0.0291 -0.3067 -0.0664
  141YOPS   PO4 1816   4.122   2.443  10.428  0.2091 -0.0758 -0.1312
  141YOPS   GL1 1817   4.309   2.488  10.067  0.0291  0.0099 -0.2238
  141YOPS   GL2 1818   4.508   2.258  10.065  0.2040 -0.0265 -0.1757
  141YOPS   C1A 1819   4.460   2.466   9.592 -0.4614 -0.0639  0.0551
  141YOPS   D2A 1820   4.537   2.317   9.211 -0.2725  0.3903 -0.0433
  141YOPS   C3A 1821   4.517   2.479   8.821 -0.2221 -0.2318 -0.0169
  141YOPS   C4A 1822   4.170   2.344   8.705 -0.0099 -0.3499  0.2007
  141YOPS   C1B 1823   4.268   2.049   9.727  0.2503 -0.2831 -0.1042
  141YOPS   C2B 1824   4.144   1.973   9.309  0.0509 -0.2677 -0.1689
  141YOPS   D3B 1825   3.865   1.870   8.935 -0.1218 -0.2370  0.0434
  141YOPS   C4B 1826   3.713   2.153   8.712  0.0304 -0.2190  0.0617
  142YOPS   CNO 1827  15.522   4.782  10.306 -0.1895 -0.0446  0.0404
  142YOPS   PO4 1828  15.855   4.779   9.984 -0.2491 -0.1493  0.2276
  142YOPS   GL1 1829  15.926   4.482   9.662 -0.2220  0.1049  0.1998
  142YOPS   GL2 1830  16.298   4.606   9.499 -0.1028  0.0536 -0.0151
  142YOPS   C1A 1831  15.889   4.250   9.331 -0.0674 -0.1325  0.2122
  142YOPS   D2A 1832  15.852   4.081   8.925 -0.0093  0.1168  0.2225
  142YOPS   C3A 1833  15.649   4.000   8.610 -0.2274 -0.0056  0.1589
  142YOPS   C4A 1834  15.897   3.840   8.290 -0.3295 -0.3200 -0.2880
  142YOPS   C1B 1835  16.064   4.652   9.083  0.0694 -0.1855 -0.1213
  142YOPS   C2B 1836  15.993   4.653   8.638 -0.4346 -0.3330 -0.2890
  142YOPS   D3B 1837  16.008   4.797   8.192  0.0345  0.0894 -0.0414
  142YOPS   C4B 1838  16.355   4.821   7.891 -0.0327  0.2376 -0.3815
  143YOPS   CNO 1839   3.373   6.447   9.893 -0.1117 -0.0676  0.2291
  143YOPS   PO4 1840   3.732   6.191   9.879  0.0779 -0.0732 -0.2077
  143YOPS   GL1 1841   3.595   6.228   9.435  0.2521  0.0806  0.0073
  143YOPS   GL2 1842   3.960   6.189   9.432  0.4461  0.1048 -0.1480
  143YOPS   C1A 1843   3.467   5.952   9.166 -0.2559  0.1128  0.1078
  143YOPS   D2A 1844   3.523   5.698   8.751  0.2144 -0.1044  0.3813
  143YOPS   C3A 1845   3.664   5.723   8.451  0.2351  0.0188  0.1550
  143YOPS   C4A 1846   3.793   5.494   8.053  0.0279  0.0582 -0.0544
  143YOPS   C1B 1847   3.797   6.193   8.938  0.2215  0.1231  0.0037
  143YOPS   C2B 1848   3.916   6.115   8.508  0.0391  0.1279 -0.1537
  143YOPS   D3B 1849   3.843   6.100   8.037  0.1909 -0.0419 -0.0831
  143YOPS   C4B 1850   3.512   5.849   7.884 -0.0041 -0.1657 -0.1421
  144YOPS   CNO 1851   0.829  10.105   9.989  0.2987 -0.2572 -0.1918
  144YOPS   PO4 1852   1.247  10.248   9.941 -0.1088 -0.0193  0.2178
  144YOPS   GL1 1853   1.247  10.015   9.663 -0.0420  0.1614  0.3219
  144YOPS   GL2 1854   1.511  10.046   9.461 -0.3338 -0.3290 -0.2053
  144YOPS   C1A 1855   1.015   9.880   9.281  0.2112 -0.2377  0.2171
  144YOPS   D2A 1856   0.852   9.766   8.767  0.0784  0.1853  0.1385
  144YOPS   C3A 1857   0.569   9.489   8.696  0.1051  0.1495 -0.1334
  144YOPS   C4A 1858   0.348   9.344   8.369  0.0138 -0.2806  0.0354
  144YOPS   C1B 1859   1.482  10.334   9.105 -0.2069  0.1286 -0.2246
  144YOPS   C2B 1860   1.454  10.314   8.592 -0.0767  0.0264  0.4862
  144YOPS   D3B 1861   1.632  10.235   8.240 -0.0917  0.0435  0.2578
  144YOPS   C4B 1862   1.586   9.967   7.950  0.0104  0.1139  0.1004
  145YOPS   CNO 1863   1.066  15.130  11.144  0.0306 -0.3370  0.1175
  145YOPS   PO4 1864   1.125  14.875  10.825  0.3773 -0.0145  0.1540
  145YOPS   GL1 1865   0.982  14.590  10.591 -0.0268 -0.1551  0.1732
  145YOPS   GL2 1866   1.290  14.543  10.349  0.0684 -0.1563  0.0256
  145YOPS   C1A 1867   0.832  14.634  10.167 -0.3666 -0.2749 -0.0127
  145YOPS   D2A 1868   0.831  14.773   9.767  0.0697  0.0357 -0.2330
  145YOPS   C3A 1869   0.733  15.080   9.625  0.1186 -0.0566  0.2371
  145YOPS   C4A 1870   0.422  15.286   9.773  0.1358  0.5557  0.0143
  145YOPS   C1B 1871   1.198  14.464   9.875  0.0866 -0.0873 -0.2111
  145YOPS   C2B 1872   1.189  14.612   9.430  0.2294  0.0661  0.0865
  145YOPS   D3B 1873   0.822  14.758   9.199 -0.0444 -0.0176  0.1014
  145YOPS   C4B 1874   0.795  14.787   8.825  0.2083  0.0532 -0.2591
  146YOPS   CNO 1875   3.470  13.670  11.102  0.0910  0.0321 -0.0537
  146YOPS   PO4 1876   3.316  13.834  10.752  0.1034 -0.2087  0.1167
  146YOPS   GL1 1877   3.637  13.812  10.505  0.0413  0.3211  0.1488
  146YOPS   GL2 1878   3.929  14.033  10.438  0.3198 -0.0304  0.4863
  146YOPS   C1A 1879   3.656  13.911  10.054  0.0036 -0.2778 -0.1265
  146YOPS   D2A 1880   3.788  13.974   9.655 -0.0245  0.0927  0.0882
  146YOPS   C3A 1881   4.116  13.937   9.296 -0.1516 -0.2147 -0.0705
  146YOPS   C4A 1882   4.245  14.302   8.982 -0.1061 -0.1451  0.0657
  146YOPS   C1B 1883   4.148  13.890  10.149 -0.1007  0.1529 -0.0418
  146YOPS   C2B 1884   4.333  13.846   9.762 -0.2882 -0.4407 -0.0370
  146YOPS   D3B 1885   4.587  13.783   9.319  0.0698 -0.2487  0.0407
  146YOPS   C4B 1886   4.529  13.847   8.936  0.1855 -0.1294  0.3108
  147YOPS   CNO 1887   0.359  13.893  11.063  0.2839  0.1862  0.2076
  147YOPS   PO4 1888   0.300  14.214  10.794 -0.2993 -0.0256 -0.1619
  147YOPS   GL1 1889   0.326  14.372  10.359 -0.0679 -0.0326 -0.0142
  147YOPS   GL2 1890   0.481  14.719  10.520 -0.1050  0.2001 -0.2602
  147YOPS   C1A 1891   0.372  14.445  10.040  0.0405  0.0126  0.0390
  147YOPS   D2A 1892   0.364  14.665   9.707 -0.1492 -0.0546 -0.1295
  147YOPS   C3A 1893   0.332  14.835   9.312 -0.0491 -0.0270 -0.5342
  147YOPS   C4A 1894   0.237  14.742   8.932 -0.0842  0.3155  0.1766
  147YOPS   C1B 1895   0.391  15.006  10.153 -0.1029 -0.0894  0.1603
  147YOPS   C2B 1896   0.586  15.417  10.195  0.2291 -0.0085 -0.2751
  147YOPS   D3B 1897   0.707  15.851  10.099  0.2127  0.1586 -0.1036
  147YOPS   C4B 1898   0.285  15.952   9.941 -0.0999  0.2884  0.0273
  148YOPS   CNO 1899   8.154   4.574  10.162 -0.1191  0.0767  0.4045
  148YOPS   PO4 1900   8.208   4.511   9.788  0.2796  0.0543  0.2459
  148YOPS   GL1 1901   8.195   4.435   9.479 -0.0282  0.0548 -0.1797
  148YOPS   GL2 1902   8.183   4.049   9.365 -0.0285 -0.0564 -0.0749
  148YOPS   C1A 1903   7.991   4.407   9.072  0.1014 -0.1554 -0.1473
  148YOPS   D2A 1904   8.115   4.227   8.754 -0.2148 -0.4277 -0.0423
  148YOPS   C3A 1905   8.386   4.398   8.442 -0.0373 -0.0525 -0.1970
  148YOPS   C4A 1906   8.641   4.778   8.486 -0.1220 -0.2662  0.0754
  148YOPS   C1B 1907   8.207   3.822   9.001 -0.3533  0.1225 -0.0923
  148YOPS   C2B 1908   8.153   3.790   8.542  0.0454  0.1149  0.0422
  148YOPS   D3B 1909   8.168   3.491   8.234  0.1882  0.1809 -0.4742
  148YOPS   C4B 1910   8.136   3.597   7.804  0.0726  0.1636 -0.0550
  149YOPS   CNO 1911   5.484  15.191  10.535  0.2201 -0.2682  0.3111
  149YOPS   PO4 1912   5.947  15.300  10.627  0.1464 -0.1861  0.3010
  149YOPS   GL1 1913   5.822  15.475  10.241 -0.0557 -0.2780  0.0998
  149YOPS   GL2 1914   5.943  15.744  10.327 -0.0957 -0.0880  0.1028
  149YOPS   C1A 1915   5.652  15.642   9.909  0.2987  0.0541  0.2646
  149YOPS   D2A 1916   5.357  15.485   9.548 -0.1898 -0.2065 -0.1535
  149YOPS   C3A 1917   5.175  15.434   9.160 -0.3919 -0.0260  0.4146
  149YOPS   C4A 1918   5.321  15.309   8.698  0.2497  0.2882  0.1632
  149YOPS   C1B 1919   6.115  15.959   9.986  0.1475  0.2238  0.4883
  149YOPS   C2B 1920   5.885  16.094   9.707  0.0788 -0.1581 -0.2055
  149YOPS   D3B 1921   5.679  15.835   9.402 -0.1435 -0.1029 -0.1640
  149YOPS   C4B 1922   5.293  16.017   9.323 -0.2480  0.1818  0.0368
  150YOPS   CNO 1923  17.485  14.487  11.154 -0.1363 -0.3748 -0.1904
  150YOPS   PO4 1924  17.714  14.900  11.114  0.5270 -0.4233 -0.1115
  150YOPS   GL1 1925  17.392  14.884  10.749  0.0797  0.0580  0.1013
  150YOPS   GL2 1926  17.349  14.681  10.528 -0.0730 -0.2307  0.1248
  150YOPS   C1A 1927  17.497  15.163  10.510 -0.2707 -0.0461 -0.2376
  150YOPS   D2A 1928  17.731  15.211  10.116 -0.2288 -0.3176 -0.3660
  150YOPS   C3A 1929  17.982  15.388   9.739 -0.0140  0.0662 -0.2512
  150YOPS   C4A 1930  17.966  15.674   9.423 -0.0895  0.1214 -0.2176
  150YOPS   C1B 1931  17.751  14.747  10.236  0.5383 -0.1544 -0.0704
  150YOPS   C2B 1932  17.668  14.827   9.726  0.0272  0.1883 -0.1591
  150YOPS   D3B 1933  17.527  14.671   9.521  0.1116 -0.0796  0.2812
  150YOPS   C4B 1934  17.091  14.806   9.601 -0.2169  0.0727  0.0631
  151YOPS   CNO 1935   3.139   3.885  10.460 -0.0446 -0.2217 -0.0216
  151YOPS   PO4 1936   3.246   3.879  10.013  0.1623  0.1135 -0.2557
  151YOPS   GL1 1937   2.949   3.920   9.663 -0.2170 -0.2591  0.0171
  151YOPS   GL2 1938   2.635   4.253   9.718 -0.0208  0.0525  0.2933
  151YOPS   C1A 1939   3.026   3.986   9.250  0.2094 -0.0388 -0.0400
  151YOPS   D2A 1940   3.059   4.093   8.878  0.0566  0.5440 -0.0101
  151YOPS   C3A 1941   2.895   3.848   8.640  0.0028  0.1585 -0.1514
  151YOPS   C4A 1942   2.746   3.591   8.417  0.1239  0.0609  0.1501
  151YOPS   C1B 1943   2.485   4.116   9.411 -0.0717  0.0524 -0.1126
  151YOPS   C2B 1944   2.562   4.199   9.039 -0.1505 -0.4939  0.1327
  151YOPS   D3B 1945   2.684   4.316   8.659  0.1238 -0.0287  0.2021
  151YOPS   C4B 1946   2.686   4.124   8.246 -0.0780 -0.0943  0.1699
  152YOPS   CNO 1947  10.821  15.458   9.923 -0.3929  0.1344 -0.0040
  152YOPS   PO4 1948  11.176  15.689  10.115 -0.1043 -0.0062  0.1598
  152YOPS   GL1 1949  11.287  15.875   9.721  0.1207  0.4105 -0.0463
  152YOPS   GL2 1950  10.959  15.902   9.615 -0.1123 -0.1347 -0.1537
  152YOPS   C1A 1951  11.310  15.909   9.292  0.0983  0.2930 -0.0627
  152YOPS   D2A 1952  11.453  16.020   8.959 -0.0794 -0.2285  0.4218
  152YOPS   C3A 1953  11.515  16.130   8.535 -0.0070  0.0570  0.2079
  152YOPS   C4A 1954  11.184  16.316   8.249  0.4093 -0.0809 -0.3668
  152YOPS   C1B 1955  10.839  15.904   9.130  0.3813 -0.0050  0.0779
  152YOPS   C2B 1956  11.037  15.952   8.663 -0.4006  0.1310  0.1234
  152YOPS   D3B 1957  11.248  15.769   8.309 -0.1470  0.1177 -0.4650
  152YOPS   C4B 1958  11.066  15.917   7.855  0.0452 -0.0222 -0.0416
  153YOPS   CNO 1959  16.924   4.370  10.723  0.2014 -0.1301  0.0688
  153YOPS   PO4 1960  16.684   4.593  10.312  0.1195 -0.0865 -0.0145
  153YOPS   GL1 1961  16.774   4.609   9.883 -0.1524  0.2872  0.2131
  153YOPS   GL2 1962  16.720   4.246   9.832 -0.1344 -0.0395 -0.2271
  153YOPS   C1A 1963  16.764   4.579   9.483  0.0444 -0.2293 -0.1940
  153YOPS   D2A 1964  16.771   4.422   9.080  0.2495 -0.0311  0.1890
  153YOPS   C3A 1965  16.861   4.127   8.831 -0.2356 -0.1483 -0.0582
  153YOPS   C4A 1966  16.788   4.107   8.420 -0.1121  0.1857  0.0935
  153YOPS   C1B 1967  16.907   4.079   9.407  0.0520  0.0296 -0.2221
  153YOPS   C2B 1968  16.932   3.685   9.115 -0.1783  0.4080  0.0753
  153YOPS   D3B 1969  16.797   3.597   8.721 -0.1573  0.0492 -0.0583
  153YOPS   C4B 1970  17.141   3.804   8.517 -0.1252  0.0140  0.0778
  154YOPS   CNO 1971   5.793   3.891  10.449  0.2826 -0.0446  0.0692
  154YOPS   PO4 1972   5.663   3.764   9.992 -0.1364 -0.0496 -0.0443
  154YOPS   GL1 1973   5.711   4.021   9.607  0.3264  0.1712  0.2783
  154YOPS   GL2 1974   6.006   4.052   9.584 -0.2483 -0.1048 -0.0751
  154YOPS   C1A 1975   5.447   4.145   9.304  0.1948 -0.0358  0.2469
  154YOPS   D2A 1976   5.290   4.203   8.961  0.1325  0.1409 -0.1634
  154YOPS   C3A 1977   5.230   4.382   8.461 -0.0576  0.0233  0.1736
  154YOPS   C4A 1978   4.986   4.697   8.220 -0.0604 -0.1094  0.1708
  154YOPS   C1B 1979   5.984   3.669   9.241  0.1046  0.3931 -0.1177
  154YOPS   C2B 1980   5.888   3.592   8.837 -0.1420  0.2148 -0.2071
  154YOPS   D3B 1981   5.796   3.629   8.378 -0.0400 -0.3349  0.1665
  154YOPS   C4B 1982   6.024   3.540   8.056  0.4179  0.0880 -0.1467
  155YOPS   CNO 1983   0.710   8.182   9.863 -0.0455 -0.1088 -0.2608
  155YOPS   PO4 1984   0.693   7.690   9.893 -0.4098  0.0246 -0.1126
  155YOPS   GL1 1985   0.906   7.590   9.577 -0.1511 -0.0926 -0.0372
  155YOPS   GL2 1986   0.810   7.281   9.446 -0.0044 -0.0130 -0.4118
  155YOPS   C1A 1987   1.206   7.707   9.225 -0.0669  0.1123  0.1143
  155YOPS   D2A 1988   1.182   7.682   8.809  0.2969 -0.2084 -0.0645
  155YOPS   C3A 1989   1.277   7.600   8.375  0.2440  0.3110 -0.2368
  155YOPS   C4A 1990   1.484   7.552   8.094 -0.3591  0.2416 -0.2531
  155YOPS   C1B 1991   0.896   7.298   8.971 -0.2170 -0.2869 -0.3044
  155YOPS   C2B 1992   1.084   7.166   8.603  0.4852  0.0090 -0.1704
  155YOPS   D3B 1993   1.162   6.927   8.246  0.0739 -0.1480 -0.0417
  155YOPS   C4B 1994   1.219   7.123   7.959  0.0522  0.1729  0.2020
  156YOPS   CNO 1995   3.560  14.203  10.957 -0.1642 -0.1113 -0.1780
  156YOPS   PO4 1996   3.673  14.638  10.930 -0.0640  0.2063 -0.2178
  156YOPS   GL1 1997   3.687  14.486  10.535  0.1895  0.2239  0.0148
  156YOPS   GL2 1998   3.420  14.242  10.440 -0.0585  0.0795 -0.1111
  156YOPS   C1A 1999   3.603  14.487  10.034  0.1367 -0.3403 -0.3383
  156YOPS   D2A 2000   3.639  14.433   9.661 -0.0176 -0.1605 -0.1078
  156YOPS   C3A 2001   3.611  14.120   9.205  0.1510 -0.0310  0.2342
  156YOPS   C4A 2002   3.658  14.260   8.812 -0.2214 -0.1008 -0.2727
  156YOPS   C1B 2003   3.176  14.214  10.132  0.1243 -0.1334  0.1028
  156YOPS   C2B 2004   3.280  14.111   9.673 -0.1506  0.0469 -0.0820
  156YOPS   D3B 2005   2.976  14.050   9.261  0.0682  0.0746  0.0975
  156YOPS   C4B 2006   3.212  14.172   8.928  0.2188 -0.1699  0.0395
  157YOPS   CNO 2007  12.023   8.333  10.381 -0.0942 -0.0168  0.1698
  157YOPS   PO4 2008  11.752   8.621  10.191  0.0873  0.3513  0.2251
  157YOPS   GL1 2009  11.979   8.504   9.706  0.1715 -0.0363 -0.1132
  157YOPS   GL2 2010  12.064   8.207   9.544 -0.2675  0.2499 -0.1708
  157YOPS   C1A 2011  11.804   8.729   9.380  0.0847  0.3473 -0.2843
  157YOPS   D2A 2012  11.637   8.922   8.957  0.0187 -0.0079 -0.2611
  157YOPS   C3A 2013  11.294   8.873   8.662 -0.2382  0.2683  0.1818
  157YOPS   C4A 2014  11.267   8.552   8.413 -0.1038  0.1081 -0.0055
  157YOPS   C1B 2015  12.084   8.415   9.156 -0.0455 -0.5086  0.1299
  157YOPS   C2B 2016  11.715   8.457   8.943 -0.1075 -0.0467 -0.0899
  157YOPS   D3B 2017  11.378   8.168   8.836 -0.2194 -0.2020 -0.0869
  157YOPS   C4B 2018  11.266   7.931   9.170  0.0965 -0.0734  0.0301
  158YOPS   CNO 2019  17.359   3.708  10.192 -0.1688 -0.0582 -0.0070
  158YOPS   PO4 2020  17.581   4.097  10.198  0.2317  0.1878  0.0514
  158YOPS   GL1 2021  17.357   4.107   9.787 -0.2511  0.3347 -0.3323
  158YOPS   GL2 2022  17.209   4.385   9.593 -0.1023  0.4595 -0.1112
  158YOPS   C1A 2023  17.339   3.820   9.393  0.1205  0.2396  0.0872
  158YOPS   D2A 2024  17.449   3.766   9.049  0.0145  0.2432  0.3876
  158YOPS   C3A 2025  17.534   3.532   8.628  0.0415  0.0169 -0.0691
  158YOPS   C4A 2026  17.130   3.317   8.390  0.2423 -0.1042 -0.0503
  158YOPS   C1B 2027  17.321   4.260   9.103 -0.1097  0.0264 -0.1386
  158YOPS   C2B 2028  17.528   4.065   8.671 -0.2135 -0.1817  0.1097
  158YOPS   D3B 2029  17.859   3.888   8.461  0.0346 -0.1633 -0.0343
  158YOPS   C4B 2030  17.931   3.865   8.058  0.0931  0.1303 -0.0215
  159YOPS   CNO 2031  13.296  12.519  11.316  0.0012  0.1051 -0.0407
  159YOPS   PO4 2032  12.950  12.418  10.940  0.0443 -0.0687 -0.1377
  159YOPS   GL1 2033  12.958  12.490  10.482  0.1426  0.1851 -0.0865
  159YOPS   GL2 2034  12.738  12.401  10.298  0.1055  0.0605  0.3056
  159YOPS   C1A 2035  13.093  12.682  10.096  0.1663 -0.3933  0.4244
  159YOPS   D2A 2036  13.352  12.936   9.928 -0.1921  0.1832 -0.1161
  159YOPS   C3A 2037  13.732  13.170   9.965 -0.0831  0.1602  0.0067
  159YOPS   C4A 2038  14.170  13.456   9.916  0.1921 -0.2224  0.1542
  159YOPS   C1B 2039  12.923  12.325   9.815 -0.1478 -0.2517 -0.0608
  159YOPS   C2B 2040  13.024  12.405   9.357 -0.1179  0.2406 -0.2684
  159YOPS   D3B 2041  12.962  12.282   8.916  0.1260 -0.2331 -0.1158
  159YOPS   C4B 2042  12.923  11.936   8.806 -0.0582  0.1202 -0.1103
  160YOPS   CNO 2043  11.885  11.511  10.344  0.3025 -0.1953  0.1074
  160YOPS   PO4 2044  11.710  11.128  10.153 -0.4406  0.0784  0.3185
  160YOPS   GL1 2045  11.836  11.375   9.824  0.3087 -0.0707  0.1877
  160YOPS   GL2 2046  11.562  11.509   9.770  0.2300  0.2431 -0.0285
  160YOPS   C1A 2047  11.699  11.295   9.358 -0.1648  0.2878 -0.1584
  160YOPS   D2A 2048  11.623  11.308   8.901  0.0098 -0.0309  0.3432
  160YOPS   C3A 2049  11.583  11.290   8.491 -0.1408  0.1920  0.0470
  160YOPS   C4A 2050  11.720  11.281   8.095  0.0729 -0.1242 -0.2479
  160YOPS   C1B 2051  11.969  11.743   9.491  0.0508 -0.2231  0.1084
  160YOPS   C2B 2052  11.848  11.736   9.082  0.1035 -0.1800 -0.2161
  160YOPS   D3B 2053  11.918  11.985   8.711 -0.1257  0.0534  0.1165
  160YOPS   C4B 2054  11.734  12.207   8.343 -0.3763  0.2658  0.1237
  161YOPS   CNO 2055  12.045   0.672   9.807  0.1949 -0.1533 -0.1255
  161YOPS   PO4 2056  11.590   0.633  10.021 -0.1662 -0.0972 -0.0635
  161YOPS   GL1 2057  11.633   0.627   9.544 -0.3809 -0.0569 -0.0442
  161YOPS   GL2 2058  11.538   0.937   9.560  0.0363  0.1991  0.0818
  161YOPS   C1A 2059  11.417   0.460   9.140 -0.1390 -0.1820 -0.0437
  161YOPS   D2A 2060  11.468   0.627   8.696  0.0632  0.1296 -0.0581
  161YOPS   C3A 2061  11.253   0.675   8.339 -0.0012  0.3934  0.1034
  161YOPS   C4A 2062  11.124   0.235   8.321  0.1263 -0.1282 -0.2584
  161YOPS   C1B 2063  11.570   0.978   9.138 -0.0832 -0.3085 -0.1474
  161YOPS   C2B 2064  11.398   1.101   8.806 -0.2796  0.3734  0.3746
  161YOPS   D3B 2065  11.037   1.136   8.396  0.3665  0.3330  0.1640
  161YOPS   C4B 2066  10.555   1.114   8.332 -0.3145  0.0096 -0.1142
  162YOPS   CNO 2067  14.184  16.176  11.368 -0.1573 -0.0210  0.4190
  162YOPS   PO4 2068  14.428  15.977  11.070 -0.1158  0.2635 -0.1446
  162YOPS   GL1 2069  14.404  15.967  10.572  0.1399  0.1637  0.2394
  162YOPS   GL2 2070  14.479  15.616  10.409  0.0442  0.0199 -0.0763
  162YOPS   C1A 2071  14.393  16.195  10.209  0.0944  0.0443  0.1760
  162YOPS   D2A 2072  14.246  16.122   9.738 -0.0514 -0.0406 -0.2304
  162YOPS   C3A 2073  14.237  15.963   9.276  0.1666 -0.2334 -0.0221
  162YOPS   C4A 2074  14.581  15.775   9.038 -0.0064  0.0056  0.0475
  162YOPS   C1B 2075  14.304  15.682  10.034  0.1641  0.1286  0.0108
  162YOPS   C2B 2076  14.478  15.624   9.554 -0.3491  0.2219  0.0381
  162YOPS   D3B 2077  14.664  15.399   9.333 -0.0702  0.0965 -0.2095
  162YOPS   C4B 2078  14.775  15.256   8.995  0.0691 -0.2262  0.2363
  163YOPS   CNO 2079  15.491  15.141  11.033 -0.1956 -0.3064  0.0385
  163YOPS   PO4 2080  15.185  15.478  10.885  0.3891  0.1925  0.1512
  163YOPS   GL1 2081  15.239  15.620  10.458  0.0590  0.1796 -0.0226
  163YOPS   GL2 2082  15.346  15.984  10.493  0.2700 -0.0720  0.0129
  163YOPS   C1A 2083  15.181  15.611  10.009 -0.0487 -0.1103  0.1104
  163YOPS   D2A 2084  15.214  15.627   9.630 -0.2905 -0.2564 -0.0171
  163YOPS   C3A 2085  15.168  15.613   9.237 -0.1593 -0.0405 -0.0190
  163YOPS   C4A 2086  15.290  15.304   8.872 -0.1513 -0.0060  0.1868
  163YOPS   C1B 2087  15.302  16.074  10.084 -0.3216 -0.0578 -0.1013
  163YOPS   C2B 2088  15.566  16.018   9.738  0.1626 -0.1503  0.1218
  163YOPS   D3B 2089  15.595  15.935   9.274  0.2473  0.2810 -0.3675
  163YOPS   C4B 2090  15.888  16.204   9.063 -0.0981  0.0584  0.2083
  164YOPS   CNO 2091  13.100  11.551  10.180  0.1969 -0.3058 -0.2362
  164YOPS   PO4 2092  12.693  11.427  10.355  0.1940 -0.0473 -0.2186
  164YOPS   GL1 2093  12.716  11.188   9.963 -0.0294 -0.1850 -0.2156
  164YOPS   GL2 2094  13.076  11.102   9.978 -0.1980  0.1422 -0.1498
  164YOPS   C1A 2095  12.817  11.368   9.604  0.3787 -0.2667 -0.4900
  164YOPS   D2A 2096  12.812  11.511   9.102 -0.0853  0.0467 -0.0878
  164YOPS   C3A 2097  12.901  11.434   8.688  0.1982 -0.0629 -0.1151
  164YOPS   C4A 2098  12.601  11.622   8.354 -0.0144  0.1332  0.2566
  164YOPS   C1B 2099  13.093  10.999   9.531 -0.0072 -0.2627 -0.0582
  164YOPS   C2B 2100  12.967  10.986   9.199 -0.0152  0.0815  0.1033
  164YOPS   D3B 2101  13.234  10.880   8.846  0.1791 -0.0528  0.1280
  164YOPS   C4B 2102  13.441  10.515   8.843  0.0100  0.0159 -0.1590
  165YOPS   CNO 2103   8.049  15.825  10.245 -0.0747  0.0332 -0.2456
  165YOPS   PO4 2104   8.383  15.857  10.212 -0.1812 -0.1038  0.2010
  165YOPS   GL1 2105   8.483  15.736   9.768  0.3414 -0.2708  0.0888
  165YOPS   GL2 2106   8.182  15.873   9.703  0.2319  0.0594 -0.0230
  165YOPS   C1A 2107   8.609  15.779   9.341  0.4026  0.1692  0.0603
  165YOPS   D2A 2108   8.560  15.615   8.956  0.0116  0.1973  0.0560
  165YOPS   C3A 2109   8.369  15.637   8.577 -0.1690  0.0280 -0.1152
  165YOPS   C4A 2110   8.507  15.969   8.230 -0.0125 -0.0270 -0.0615
  165YOPS   C1B 2111   8.136  15.706   9.222 -0.1353 -0.4501 -0.2094
  165YOPS   C2B 2112   7.992  15.548   8.867  0.0664  0.2331 -0.0843
  165YOPS   D3B 2113   7.813  15.518   8.370 -0.0431  0.1702  0.1765
  165YOPS   C4B 2114   8.172  15.346   8.106 -0.1770 -0.1110  0.1207
  166YOPS   CNO 2115   2.387   8.027   9.884  0.0521 -0.0744 -0.1830
  166YOPS   PO4 2116   2.382   7.578  10.019 -0.0693  0.2302 -0.1452
  166YOPS   GL1 2117   2.552   7.482   9.662 -0.1204 -0.1266 -0.0308
  166YOPS   GL2 2118   2.880   7.405   9.580 -0.2547  0.2059  0.1674
  166YOPS   C1A 2119   2.561   7.375   9.207 -0.3666 -0.0122  0.0377
  166YOPS   D2A 2120   2.476   7.324   8.829 -0.0122 -0.0107  0.2107
  166YOPS   C3A 2121   2.107   7.253   8.570 -0.0729  0.2012  0.0032
  166YOPS   C4A 2122   1.991   7.206   8.124 -0.0452 -0.0008 -0.2877
  166YOPS   C1B 2123   3.074   7.229   9.293  0.1446 -0.2024 -0.0033
  166YOPS   C2B 2124   2.929   7.130   8.973  0.0066  0.2089  0.1712
  166YOPS   D3B 2125   2.877   6.993   8.605 -0.0295  0.2219 -0.0124
  166YOPS   C4B 2126   2.533   7.125   8.372 -0.1712  0.0259 -0.2488
  167YOPS   CNO 2127   4.188   1.718  10.665 -0.3162 -0.1286  0.0634
  167YOPS   PO4 2128   3.820   1.803  10.643  0.0810  0.0142  0.1412
  167YOPS   GL1 2129   3.869   1.723  10.254  0.2476 -0.0034 -0.0098
  167YOPS   GL2 2130   3.976   2.014  10.163  0.5349  0.1806  0.2413
  167YOPS   C1A 2131   3.611   1.463   9.996  0.3000  0.3194 -0.0951
  167YOPS   D2A 2132   3.452   1.472   9.463  0.1336  0.1293  0.1507
  167YOPS   C3A 2133   3.592   1.467   9.113 -0.1253 -0.0978  0.3040
  167YOPS   C4A 2134   3.808   1.408   8.762  0.1375  0.2099 -0.2858
  167YOPS   C1B 2135   3.714   1.975   9.835 -0.5106  0.0357  0.2351
  167YOPS   C2B 2136   3.608   1.915   9.352 -0.3865 -0.0697  0.0588
  167YOPS   D3B 2137   3.316   1.853   8.981  0.1782  0.1752 -0.1328
  167YOPS   C4B 2138   3.362   1.943   8.524  0.2573  0.1749  0.0525
  168POPE   NH3 2139   2.170  10.579   9.854 -0.1032 -0.1101  0.3798
  168POPE   PO4 2140   2.328  10.237   9.949  0.2379  0.0184  0.0172
  168POPE   GL1 2141   2.075  10.163   9.443 -0.0024 -0.0692 -0.0645
  168POPE   GL2 2142   2.046  10.435   9.309 -0.2199  0.3456 -0.0666
  168POPE   C1A 2143   1.963  10.094   9.025 -0.1968 -0.0693  0.2340
  168POPE   D2A 2144   1.809   9.943   8.652 -0.0966  0.2557 -0.1195
  168POPE   C3A 2145   2.068   9.984   8.219  0.1525  0.0063  0.0244
  168POPE   C4A 2146   2.276  10.264   7.982 -0.1140  0.0894  0.1217
  168POPE   C1B 2147   1.831  10.645   8.881  0.0937 -0.0858 -0.1098
  168POPE   C2B 2148   1.802  11.043   8.870  0.8009 -0.0034  0.0504
  168POPE   C3B 2149   2.131  11.375   8.726  0.1681 -0.1591  0.1467
  168POPE   C4B 2150   2.406  11.817   8.620  0.0035  0.1817 -0.0466
  169POPE   NH3 2151   4.032   3.706  10.515 -0.0741  0.1129  0.0656
  169POPE   PO4 2152   4.121   4.075  10.374  0.0741  0.2983  0.1790
  169POPE   GL1 2153   4.230   3.921   9.899  0.4718 -0.1134  0.0080
  169POPE   GL2 2154   4.525   3.968   9.846  0.0391 -0.1284  0.0466
  169POPE   C1A 2155   4.072   4.265   9.574 -0.0653 -0.2180 -0.0425
  169POPE   D2A 2156   3.884   4.017   9.251  0.3710 -0.0486  0.0018
  169POPE   C3A 2157   3.999   4.073   8.841 -0.1716  0.0392 -0.1396
  169POPE   C4A 2158   3.833   4.198   8.507  0.0697  0.2482 -0.1620
  169POPE   C1B 2159   4.401   3.993   9.313 -0.1320  0.0395  0.0798
  169POPE   C2B 2160   4.468   4.070   8.844 -0.0098  0.3101 -0.0141
  169POPE   C3B 2161   4.271   3.850   8.496 -0.1378 -0.2884  0.0855
  169POPE   C4B 2162   4.181   3.334   8.421 -0.2477  0.0371 -0.0532
  170POPE   NH3 2163  11.259   2.994  10.140  0.0808  0.3991  0.1712
  170POPE   PO4 2164  11.636   3.164  10.280 -0.1478  0.1939 -0.1566
  170POPE   GL1 2165  11.913   3.270   9.820  0.2492 -0.2479  0.0165
  170POPE   GL2 2166  11.757   3.555   9.615  0.0960  0.0086  0.2252
  170POPE   C1A 2167  11.885   2.992   9.470 -0.2766  0.4491 -0.0279
  170POPE   D2A 2168  11.685   2.782   9.201  0.0487  0.1754  0.0438
  170POPE   C3A 2169  11.815   2.735   8.803 -0.0152 -0.0432  0.1262
  170POPE   C4A 2170  11.959   2.868   8.461 -0.2376  0.0001  0.1330
  170POPE   C1B 2171  11.894   3.482   9.197  0.3262 -0.0370 -0.5270
  170POPE   C2B 2172  12.034   3.522   8.711 -0.1962  0.3613  0.1721
  170POPE   C3B 2173  12.198   3.312   8.513  0.3999 -0.0710 -0.0986
  170POPE   C4B 2174  12.318   3.142   8.144  0.1459 -0.3490  0.0880
  171POPE   NH3 2175   3.907  11.156  10.239 -0.0028 -0.0355 -0.1307
  171POPE   PO4 2176   4.168  11.318  10.074  0.1314  0.1793  0.4002
  171POPE   GL1 2177   3.992  11.539   9.693  0.2826  0.1322 -0.0150
  171POPE   GL2 2178   4.199  11.806   9.816  0.2595  0.1953  0.1296
  171POPE   C1A 2179   3.995  11.720   9.276  0.0168 -0.1580 -0.1224
  171POPE   D2A 2180   4.058  11.659   8.957 -0.1707  0.2905  0.0299
  171POPE   C3A 2181   3.783  11.738   8.750 -0.3118 -0.0989 -0.1214
  171POPE   C4A 2182   3.431  11.816   8.484 -0.1578  0.0916 -0.0696
  171POPE   C1B 2183   4.176  12.132   9.558  0.0650  0.1021  0.0343
  171POPE   C2B 2184   4.112  12.310   9.071 -0.1436  0.2279 -0.0995
  171POPE   C3B 2185   4.051  12.177   8.724 -0.4298 -0.1944  0.1412
  171POPE   C4B 2186   3.923  12.023   8.382  0.1310 -0.3892  0.1623
  172POPE   NH3 2187  15.741  18.052  11.222 -0.0380 -0.0818  0.0678
  172POPE   PO4 2188  15.320  18.013  11.089  0.3161 -0.0393  0.0161
  172POPE   GL1 2189  15.456  17.907  10.641  0.0335 -0.1874 -0.4857
  172POPE   GL2 2190  15.745  17.735  10.774  0.0440  0.2813  0.0083
  172POPE   C1A 2191  15.715  18.090  10.291 -0.1907  0.1450  0.0166
  172POPE   D2A 2192  15.675  18.109   9.816 -0.2572  0.1493  0.0443
  172POPE   C3A 2193  15.830  17.844   9.558 -0.0563  0.1239  0.0090
  172POPE   C4A 2194  16.093  17.828   9.196  0.3497  0.1797 -0.1803
  172POPE   C1B 2195  15.773  17.634  10.388 -0.0002 -0.1456 -0.3054
  172POPE   C2B 2196  15.911  17.482   9.973 -0.0086  0.0890  0.0420
  172POPE   C3B 2197  15.733  17.275   9.703 -0.0535  0.2308 -0.0422
  172POPE   C4B 2198  15.848  17.396   9.288  0.0901 -0.1006  0.0719
  173POPE   NH3 2199  12.766   4.923  10.123 -0.2034  0.0571 -0.1782
  173POPE   PO4 2200  12.727   5.316   9.860  0.1515 -0.2129 -0.0920
  173POPE   GL1 2201  12.934   5.324   9.399 -0.3262 -0.1513  0.2268
  173POPE   GL2 2202  12.935   5.006   9.284 -0.0920  0.4325  0.1095
  173POPE   C1A 2203  12.742   5.426   9.033  0.0433 -0.1074  0.1091
  173POPE   D2A 2204  12.715   5.301   8.674 -0.2420  0.0516  0.1801
  173POPE   C3A 2205  13.023   4.971   8.511  0.0756  0.3207 -0.1772
  173POPE   C4A 2206  13.359   4.655   8.590  0.4010  0.0350 -0.1695
  173POPE   C1B 2207  13.020   4.646   9.000 -0.0926  0.0162  0.1520
  173POPE   C2B 2208  12.813   4.501   8.637  0.0665  0.0199 -0.0523
  173POPE   C3B 2209  12.737   4.616   8.209 -0.0683  0.4350 -0.1732
  173POPE   C4B 2210  12.917   4.581   7.778  0.0775  0.0753 -0.0335
  174POPE   NH3 2211  10.828  16.843  10.257  0.1208 -0.1355  0.1773
  174POPE   PO4 2212  11.142  16.488  10.406 -0.2232  0.1336  0.1693
  174POPE   GL1 2213  11.367  16.472  10.006  0.0922  0.0341  0.0154
  174POPE   GL2 2214  11.141  16.713   9.881 -0.1959  0.1768  0.2170
  174POPE   C1A 2215  11.510  16.315   9.708  0.0570 -0.2072 -0.0818
  174POPE   D2A 2216  11.558  16.391   9.278  0.2427  0.2215 -0.3192
  174POPE   C3A 2217  11.925  16.365   9.049  0.1783  0.0765 -0.1565
  174POPE   C4A 2218  12.168  16.503   8.825 -0.0350 -0.1337 -0.2109
  174POPE   C1B 2219  11.355  16.794   9.511  0.1042 -0.3490  0.0386
  174POPE   C2B 2220  11.752  16.957   9.264  0.0667 -0.2598  0.0096
  174POPE   C3B 2221  11.943  16.936   8.861 -0.0012  0.0061 -0.1596
  174POPE   C4B 2222  12.252  16.900   8.498  0.2743  0.0015  0.0542
  175POPE   NH3 2223  13.209   5.398  10.031 -0.0197  0.0578 -0.0155
  175POPE   PO4 2224  13.281   5.043  10.203 -0.2526  0.1346 -0.2790
  175POPE   GL1 2225  13.090   4.936   9.737 -0.0771  0.0396 -0.0923
  175POPE   GL2 2226  12.688   4.786   9.617  0.2530 -0.1942 -0.2193
  175POPE   C1A 2227  13.156   4.582   9.492 -0.3260 -0.0439 -0.2776
  175POPE   D2A 2228  13.215   4.216   9.292  0.3030  0.0421 -0.2600
  175POPE   C3A 2229  13.605   4.121   9.308 -0.3496 -0.1788 -0.0685
  175POPE   C4A 2230  13.891   4.222   8.957  0.1331 -0.3648  0.1758
  175POPE   C1B 2231  12.708   4.508   9.317  0.0493 -0.0367 -0.0654
  175POPE   C2B 2232  12.393   4.392   8.896  0.0731  0.1443  0.3029
  175POPE   C3B 2233  12.052   4.675   8.810  0.2740 -0.0278  0.1349
  175POPE   C4B 2234  11.667   4.805   8.840 -0.2840 -0.0017 -0.1498
  176POPE   NH3 2235   7.089  15.038  10.132  0.0333 -0.0647  0.1264
  176POPE   PO4 2236   7.458  15.021   9.989 -0.0420 -0.1335 -0.3289
  176POPE   GL1 2237   7.580  15.038   9.629 -0.0989  0.0075  0.0016
  176POPE   GL2 2238   7.343  15.054   9.535  0.0109 -0.0128  0.2360
  176POPE   C1A 2239   7.920  14.980   9.242  0.0520  0.2194  0.0037
  176POPE   D2A 2240   8.165  14.646   9.046 -0.1324 -0.2129  0.4336
  176POPE   C3A 2241   8.109  14.450   8.665  0.0912  0.1037 -0.1653
  176POPE   C4A 2242   8.025  14.250   8.287  0.1062 -0.2693 -0.1784
  176POPE   C1B 2243   7.318  14.766   9.212  0.0786  0.0435 -0.1082
  176POPE   C2B 2244   7.251  14.841   8.834 -0.0913  0.2588 -0.0607
  176POPE   C3B 2245   7.316  14.936   8.394  0.5356 -0.0233 -0.0414
  176POPE   C4B 2246   7.539  15.018   8.150 -0.1189  0.3831 -0.3134
  177POPE   NH3 2247  13.132  10.089  10.001 -0.1543 -0.1933  0.0597
  177POPE   PO4 2248  13.536  10.287  10.145 -0.1140 -0.2049 -0.1829
  177POPE   GL1 2249  13.435  10.474   9.735 -0.2773 -0.0375 -0.3270
  177POPE   GL2 2250  13.430  10.729   9.760 -0.0477 -0.2817 -0.4705
  177POPE   C1A 2251  13.124  10.522   9.372 -0.0692  0.0342  0.0740
  177POPE   D2A 2252  12.866  10.459   9.031 -0.1935 -0.0776 -0.2015
  177POPE   C3A 2253  12.912  10.486   8.687 -0.0303 -0.1881  0.0246
  177POPE   C4A 2254  12.932  10.280   8.297  0.0193 -0.0192 -0.0736
  177POPE   C1B 2255  13.511  10.742   9.299  0.0775  0.0204 -0.0547
  177POPE   C2B 2256  13.735  11.010   9.102  0.2490 -0.2185  0.0885
  177POPE   C3B 2257  13.950  11.247   8.820 -0.0611  0.0810 -0.3187
  177POPE   C4B 2258  14.238  11.196   8.486 -0.0675 -0.0416  0.0209
  178POPE   NH3 2259   9.275  16.880  10.490 -0.0254  0.0619 -0.0880
  178POPE   PO4 2260   9.425  16.548  10.318 -0.0333 -0.2764  0.2847
  178POPE   GL1 2261   9.489  16.715   9.868 -0.1268  0.0397  0.1807
  178POPE   GL2 2262   9.751  16.554   9.653 -0.0932 -0.0593 -0.2518
  178POPE   C1A 2263   9.171  16.813   9.505 -0.0543 -0.0812 -0.2050
  178POPE   D2A 2264   8.837  16.950   9.266 -0.0522  0.0815  0.0550
  178POPE   C3A 2265   8.973  16.933   8.818  0.1949  0.0326  0.2491
  178POPE   C4A 2266   8.912  16.940   8.322  0.1411  0.1645 -0.1209
  178POPE   C1B 2267   9.563  16.601   9.312  0.1824 -0.0460 -0.1883
  178POPE   C2B 2268   9.298  16.506   9.019 -0.2249 -0.1659  0.0897
  178POPE   C3B 2269   9.210  16.467   8.556 -0.2655  0.0098 -0.0545
  178POPE   C4B 2270   9.334  16.268   8.120 -0.0058 -0.1813 -0.7674
  179POPE   NH3 2271  11.146   6.944  10.471 -0.0459  0.1677  0.0863
  179POPE   PO4 2272  11.228   7.349  10.360  0.3109 -0.3416  0.1664
  179POPE   GL1 2273  11.197   7.017   9.930 -0.1314 -0.2069  0.1880
  179POPE   GL2 2274  11.295   7.293   9.751 -0.0046 -0.3413  0.2634
  179POPE   C1A 2275  11.168   6.920   9.474 -0.1166  0.0547  0.1321
  179POPE   D2A 2276  11.096   6.817   9.056 -0.0201  0.2027 -0.0134
  179POPE   C3A 2277  10.861   6.982   8.900  0.0023 -0.1469  0.0622
  179POPE   C4A 2278  10.660   7.025   8.515 -0.1664  0.1905  0.2066
  179POPE   C1B 2279  11.138   7.511   9.464  0.0688  0.3181 -0.1202
  179POPE   C2B 2280  10.910   7.588   9.064  0.1443 -0.3682  0.2457
  179POPE   C3B 2281  10.954   7.951   8.773 -0.0836 -0.2275  0.3077
  179POPE   C4B 2282  10.809   8.205   8.526  0.0814  0.0339 -0.0954
  180POPE   NH3 2283  16.649  12.357  10.349  0.0073  0.0362  0.0013
  180POPE   PO4 2284  16.739  11.876  10.186 -0.0305  0.1744 -0.0800
  180POPE   GL1 2285  16.785  11.636   9.906 -0.0946 -0.2812 -0.0962
  180POPE   GL2 2286  16.853  11.822   9.638 -0.2243  0.2456  0.0644
  180POPE   C1A 2287  16.784  11.348   9.632 -0.0119 -0.0498  0.1069
  180POPE   D2A 2288  16.840  11.232   9.306  0.1704  0.2540  0.0829
  180POPE   C3A 2289  16.801  11.363   8.996  0.0948 -0.2280 -0.1179
  180POPE   C4A 2290  16.579  11.235   8.600  0.1161  0.0736  0.1948
  180POPE   C1B 2291  17.023  11.886   9.300  0.0357 -0.0045  0.0296
  180POPE   C2B 2292  16.905  11.813   8.971 -0.0683 -0.1592  0.1997
  180POPE   C3B 2293  17.034  11.726   8.572  0.1532  0.0408 -0.0937
  180POPE   C4B 2294  16.935  11.829   8.139 -0.0848 -0.0988 -0.0184
  181POPE   NH3 2295   9.147   3.556   9.811 -0.0232  0.2316 -0.2838
  181POPE   PO4 2296   8.912   3.729   9.513 -0.2786 -0.0877  0.3223
  181POPE   GL1 2297   8.653   3.860   9.136 -0.0684 -0.1284  0.0845
  181POPE   GL2 2298   8.937   3.863   8.986  0.1709  0.2484  0.2599
  181POPE   C1A 2299   8.593   3.975   8.690 -0.2301 -0.2158  0.0927
  181POPE   D2A 2300   8.528   3.950   8.273  0.0942 -0.0645 -0.1724
  181POPE   C3A 2301   8.187   3.994   8.097  0.2828  0.0150 -0.2611
  181POPE   C4A 2302   7.745   3.845   7.989 -0.2287 -0.1871  0.3508
  181POPE   C1B 2303   9.081   3.798   8.619  0.0374  0.0128  0.0597
  181POPE   C2B 2304   9.008   3.797   8.217  0.0166  0.0013 -0.0610
  181POPE   C3B 2305   8.874   4.200   7.940  0.0302 -0.2044 -0.2461
  181POPE   C4B 2306   8.943   4.722   8.042 -0.0078  0.0463  0.0982
  182POPE   NH3 2307   4.185   5.975   9.895 -0.3163 -0.0511 -0.2228
  182POPE   PO4 2308   4.390   5.618   9.984 -0.1510  0.2262  0.0212
  182POPE   GL1 2309   4.207   5.465   9.695  0.0527  0.2936  0.0495
  182POPE   GL2 2310   3.792   5.688   9.753  0.0999 -0.1970 -0.1471
  182POPE   C1A 2311   4.240   5.417   9.243  0.4921 -0.2391 -0.1651
  182POPE   D2A 2312   4.340   5.204   8.838  0.0344 -0.2700  0.0600
  182POPE   C3A 2313   4.235   4.803   8.780  0.0912  0.1770  0.1349
  182POPE   C4A 2314   4.259   4.470   8.614  0.1618  0.1239  0.2685
  182POPE   C1B 2315   3.798   5.673   9.379  0.1058 -0.1546  0.1337
  182POPE   C2B 2316   3.949   5.751   9.036 -0.0811 -0.2381  0.1437
  182POPE   C3B 2317   3.987   5.438   8.588 -0.2299 -0.2694  0.1058
  182POPE   C4B 2318   4.035   5.027   8.334  0.0456 -0.2183  0.0291
  183POPE   NH3 2319   8.559  16.867   9.770  0.1056  0.3023 -0.2147
  183POPE   PO4 2320   8.422  17.223  10.024 -0.2779 -0.1518  0.0909
  183POPE   GL1 2321   8.423  17.326   9.524  0.2044  0.0248 -0.1103
  183POPE   GL2 2322   8.224  17.081   9.306 -0.0262 -0.1569  0.1661
  183POPE   C1A 2323   8.595  17.490   9.173 -0.0912 -0.1786 -0.3759
  183POPE   D2A 2324   8.726  17.402   8.845  0.0410 -0.1818  0.0591
  183POPE   C3A 2325   8.582  17.612   8.549 -0.0647  0.1381 -0.0873
  183POPE   C4A 2326   8.221  17.724   8.211  0.0443 -0.2033  0.1645
  183POPE   C1B 2327   8.458  16.993   8.985 -0.0189  0.3507 -0.1247
  183POPE   C2B 2328   8.527  16.929   8.673 -0.1328  0.1366  0.0966
  183POPE   C3B 2329   8.362  16.837   8.208 -0.1802 -0.0391 -0.1543
  183POPE   C4B 2330   8.134  17.033   7.910 -0.1331 -0.1327  0.0877
  184POPE   NH3 2331   3.249  14.730  10.683  0.1030  0.1924  0.0005
  184POPE   PO4 2332   2.764  14.679  10.635 -0.0445  0.3264  0.1016
  184POPE   GL1 2333   3.019  14.805  10.202  0.0927 -0.0032  0.0711
  184POPE   GL2 2334   3.338  14.960  10.208 -0.3895 -0.2213  0.1115
  184POPE   C1A 2335   3.207  14.710   9.768 -0.0044 -0.1046  0.5622
  184POPE   D2A 2336   3.151  14.557   9.412 -0.0878  0.1003  0.0587
  184POPE   C3A 2337   3.406  14.621   9.161  0.2857 -0.2266  0.0820
  184POPE   C4A 2338   3.656  14.829   8.772  0.0511 -0.2277  0.0263
  184POPE   C1B 2339   3.180  15.200   9.823 -0.3065  0.1695  0.1013
  184POPE   C2B 2340   3.070  15.062   9.353 -0.2262  0.0812  0.0398
  184POPE   C3B 2341   3.074  14.908   8.880 -0.1972  0.0014 -0.0316
  184POPE   C4B 2342   3.176  14.622   8.635 -0.2872  0.3707  0.1772
  185POPE   NH3 2343   9.530  16.205   9.957  0.2717 -0.0988 -0.0245
  185POPE   PO4 2344   9.545  15.737   9.847  0.4402  0.0051 -0.1488
  185POPE   GL1 2345   9.639  15.992   9.505  0.1130 -0.2139  0.0015
  185POPE   GL2 2346   9.526  15.734   9.331 -0.0575  0.2867  0.3677
  185POPE   C1A 2347   9.797  16.206   9.152  0.0071 -0.1228 -0.0315
  185POPE   D2A 2348  10.108  16.342   8.763  0.2877 -0.0774 -0.1047
  185POPE   C3A 2349  10.178  16.248   8.337  0.1653  0.0857 -0.1335
  185POPE   C4A 2350  10.408  16.411   8.166 -0.0082 -0.1548  0.1622
  185POPE   C1B 2351   9.445  15.758   8.947 -0.2145  0.0866 -0.1953
  185POPE   C2B 2352   9.340  15.539   8.540  0.1002 -0.3970 -0.0470
  185POPE   C3B 2353   9.076  15.496   8.153  0.3304  0.0594 -0.1043
  185POPE   C4B 2354   8.640  15.574   7.949  0.0185 -0.2229 -0.0102
  186POPE   NH3 2355   0.170  13.757  10.584  0.0707 -0.0059 -0.2765
  186POPE   PO4 2356  -0.229  13.709  10.637 -0.2878  0.2713  0.3381
  186POPE   GL1 2357  -0.381  14.047  10.324 -0.0222  0.0822 -0.2191
  186POPE   GL2 2358  -0.222  14.208  10.564  0.5294  0.2178 -0.2103
  186POPE   C1A 2359  -0.538  14.350   9.932 -0.0239 -0.2946 -0.6273
  186POPE   D2A 2360  -0.836  14.128   9.733 -0.0637 -0.1506 -0.1628
  186POPE   C3A 2361  -1.002  14.267   9.348 -0.2276  0.1442 -0.1812
  186POPE   C4A 2362  -1.256  14.513   8.953  0.0729 -0.0573  0.0760
  186POPE   C1B 2363  -0.175  14.484  10.262 -0.0753 -0.0833  0.0049
  186POPE   C2B 2364  -0.204  14.778   9.854  0.0691  0.3115  0.2658
  186POPE   C3B 2365  -0.243  14.798   9.523 -0.2357 -0.0876  0.1150
  186POPE   C4B 2366  -0.443  15.171   9.243 -0.3540  0.0988  0.0795
  187POPE   NH3 2367   1.292   2.829  10.423  0.2152 -0.0878 -0.0907
  187POPE   PO4 2368   1.673   2.673  10.603 -0.2387 -0.3998 -0.0313
  187POPE   GL1 2369   1.673   2.686  10.102  0.0304 -0.3450  0.3249
  187POPE   GL2 2370   1.474   2.808   9.892 -0.2069 -0.0966 -0.1547
  187POPE   C1A 2371   1.700   2.366   9.827 -0.0519  0.0232 -0.1069
  187POPE   D2A 2372   1.603   2.164   9.577 -0.1474 -0.0865  0.1409
  187POPE   C3A 2373   1.837   1.992   9.348 -0.0592 -0.2900 -0.2520
  187POPE   C4A 2374   2.082   2.000   9.050  0.0646 -0.2752  0.0013
  187POPE   C1B 2375   1.330   2.843   9.486  0.2074 -0.2132 -0.1247
  187POPE   C2B 2376   1.250   2.828   8.992 -0.1728 -0.1691  0.1729
  187POPE   C3B 2377   1.129   2.898   8.523 -0.1104 -0.1351 -0.2596
  187POPE   C4B 2378   0.961   2.698   8.247  0.1292 -0.0553 -0.2249
  188POPE   NH3 2379   4.440   3.582  10.298 -0.0732  0.0176 -0.2142
  188POPE   PO4 2380   4.086   3.311  10.167  0.1722 -0.1121  0.2632
  188POPE   GL1 2381   3.891   3.270   9.844 -0.0872 -0.1758 -0.1451
  188POPE   GL2 2382   3.734   3.069   9.793  0.0025 -0.1909 -0.1377
  188POPE   C1A 2383   3.864   3.594   9.624 -0.3630  0.1585  0.3442
  188POPE   D2A 2384   3.506   3.862   9.615 -0.3425 -0.0576 -0.2210
  188POPE   C3A 2385   3.448   4.184   9.459  0.1219 -0.2358 -0.2804
  188POPE   C4A 2386   3.162   4.469   9.249 -0.2713  0.2163  0.1546
  188POPE   C1B 2387   3.676   3.141   9.361  0.1726  0.0720  0.1120
  188POPE   C2B 2388   3.687   3.536   9.183  0.1110 -0.1059 -0.1948
  188POPE   C3B 2389   3.480   3.819   8.962 -0.1429 -0.0595  0.1648
  188POPE   C4B 2390   3.532   4.177   8.976 -0.4044 -0.2446  0.1401
  189POPE   NH3 2391  15.264   9.298   9.976  0.0226  0.0889  0.2552
  189POPE   PO4 2392  15.332   9.665  10.031  0.1199 -0.1565  0.4810
  189POPE   GL1 2393  15.370   9.905   9.758  0.4896  0.0533 -0.0373
  189POPE   GL2 2394  15.357  10.219   9.835 -0.6359  0.0587 -0.0502
  189POPE   C1A 2395  15.331   9.812   9.301  0.2910  0.0254 -0.3337
  189POPE   D2A 2396  15.488   9.670   8.910  0.0276  0.1590  0.2468
  189POPE   C3A 2397  15.312   9.944   8.701 -0.1605  0.1021 -0.1623
  189POPE   C4A 2398  15.129  10.123   8.404  0.2280  0.2790  0.1171
  189POPE   C1B 2399  14.977  10.188   9.530  0.0310  0.1600 -0.3563
  189POPE   C2B 2400  14.788   9.802   9.282 -0.0905  0.0121  0.0979
  189POPE   C3B 2401  15.006   9.569   8.910  0.4522  0.0312  0.2045
  189POPE   C4B 2402  15.349   9.215   8.904  0.1975  0.3258  0.6142
  190POPE   NH3 2403   6.404  13.010  10.850  0.1384 -0.2776  0.3623
  190POPE   PO4 2404   6.112  12.963  10.593 -0.0902 -0.2808 -0.0183
  190POPE   GL1 2405   6.003  13.052  10.175  0.0893 -0.0893  0.1549
  190POPE   GL2 2406   5.637  13.112  10.239  0.0991 -0.0708 -0.1288
  190POPE   C1A 2407   5.924  13.174   9.816  0.1075 -0.0212  0.4582
  190POPE   D2A 2408   5.799  13.132   9.445 -0.0985 -0.1966  0.2758
  190POPE   C3A 2409   5.620  13.366   9.073 -0.3014  0.1475 -0.0726
  190POPE   C4A 2410   5.425  13.697   9.039 -0.3943  0.0859 -0.0147
  190POPE   C1B 2411   5.434  13.402   9.775 -0.1276  0.0228  0.0885
  190POPE   C2B 2412   5.662  13.663   9.522  0.3157  0.0847 -0.0660
  190POPE   C3B 2413   5.610  14.026   9.319  0.0945 -0.1949 -0.1415
  190POPE   C4B 2414   5.510  14.387   9.186  0.2429  0.0010  0.3239
  191POPE   NH3 2415   3.372  12.850  10.708 -0.0118  0.1877 -0.3646
  191POPE   PO4 2416   3.246  12.733  10.308 -0.1488  0.3248  0.0273
  191POPE   GL1 2417   3.133  12.914   9.976  0.0199 -0.1444  0.1533
  191POPE   GL2 2418   2.904  13.151  10.056  0.0985  0.0311 -0.4232
  191POPE   C1A 2419   3.201  13.062   9.583 -0.0039  0.3107 -0.0150
  191POPE   D2A 2420   3.300  13.100   9.099  0.2295 -0.0146  0.2962
  191POPE   C3A 2421   3.461  12.886   8.681  0.4588  0.0192  0.0536
  191POPE   C4A 2422   3.721  12.975   8.269  0.0208 -0.1143  0.1570
  191POPE   C1B 2423   2.763  13.299   9.732 -0.3221 -0.3386  0.0733
  191POPE   C2B 2424   2.929  13.455   9.378  0.0318  0.2174 -0.1446
  191POPE   C3B 2425   3.306  13.659   8.989 -0.2243 -0.2864  0.0569
  191POPE   C4B 2426   3.479  13.459   8.691  0.2025  0.3463  0.0049
  192POPE   NH3 2427   6.795   9.327  10.326  0.3817 -0.0223 -0.2464
  192POPE   PO4 2428   6.581   9.000  10.278 -0.1370  0.1619  0.2672
  192POPE   GL1 2429   6.723   9.101   9.843 -0.2234  0.1543  0.0364
  192POPE   GL2 2430   6.703   9.356   9.792  0.2772  0.0136 -0.2320
  192POPE   C1A 2431   6.559   8.961   9.453  0.3570 -0.3063  0.3460
  192POPE   D2A 2432   6.283   8.882   9.016 -0.3458 -0.3261  0.0115
  192POPE   C3A 2433   5.890   9.172   9.033  0.3220  0.4197 -0.0476
  192POPE   C4A 2434   5.597   9.528   9.191 -0.0302  0.0830  0.0976
  192POPE   C1B 2435   6.617   9.478   9.442  0.3682  0.4773  0.1954
  192POPE   C2B 2436   6.398   9.364   9.018 -0.2631  0.0985  0.0160
  192POPE   C3B 2437   6.242   9.269   8.666 -0.0287 -0.2696 -0.0480
  192POPE   C4B 2438   5.952   9.005   8.566  0.1599  0.0885  0.0384
  193POPE   NH3 2439  13.816   8.201   9.914  0.0516  0.2318  0.2146
  193POPE   PO4 2440  13.322   8.131   9.944 -0.1195  0.0047  0.1451
  193POPE   GL1 2441  13.441   8.306   9.536 -0.0653  0.1017  0.0357
  193POPE   GL2 2442  13.402   8.183   9.182  0.3211  0.1508  0.2649
  193POPE   C1A 2443  13.269   8.638   9.155  0.1655  0.1772  0.1332
  193POPE   D2A 2444  13.418   8.741   8.793  0.0341  0.2370 -0.0389
  193POPE   C3A 2445  13.277   8.847   8.395 -0.0378  0.2638  0.1088
  193POPE   C4A 2446  13.025   8.987   8.053  0.4143 -0.1085  0.1340
  193POPE   C1B 2447  13.515   8.233   8.847  0.2241 -0.0903 -0.0184
  193POPE   C2B 2448  13.337   8.266   8.419  0.0362 -0.0953  0.2697
  193POPE   C3B 2449  13.076   8.476   8.033  0.1860  0.0310  0.0946
  193POPE   C4B 2450  12.989   8.438   7.564 -0.2532  0.0042 -0.0515
  194POPE   NH3 2451   7.336  15.456   9.822  0.0187  0.0644 -0.4285
  194POPE   PO4 2452   7.091  15.686  10.198  0.1451  0.1871  0.1025
  194POPE   GL1 2453   6.793  15.471  10.006  0.3505  0.1615 -0.0960
  194POPE   GL2 2454   6.890  15.252   9.689  0.1277 -0.0105 -0.0725
  194POPE   C1A 2455   6.486  15.575   9.797  0.3446 -0.1433 -0.2163
  194POPE   D2A 2456   6.056  15.539   9.625 -0.1726  0.0361  0.0414
  194POPE   C3A 2457   5.973  15.386   9.230 -0.0791 -0.0050  0.0052
  194POPE   C4A 2458   5.677  15.590   8.908 -0.1965  0.0908  0.0831
  194POPE   C1B 2459   7.049  15.215   9.223  0.3026  0.0146  0.4790
  194POPE   C2B 2460   6.911  15.175   8.804  0.0367 -0.1024  0.2973
  194POPE   C3B 2461   6.765  14.876   8.421 -0.1079  0.1174 -0.1202
  194POPE   C4B 2462   6.881  14.511   8.284  0.1565 -0.0976 -0.2222
  195POPE   NH3 2463  16.632  11.947  10.697 -0.1997 -0.1419  0.3645
  195POPE   PO4 2464  17.053  12.094  10.534  0.1319 -0.1486  0.0054
  195POPE   GL1 2465  17.166  12.159  10.152 -0.0517 -0.0475 -0.1035
  195POPE   GL2 2466  17.279  11.829  10.018  0.0468  0.2146 -0.0578
  195POPE   C1A 2467  17.118  12.313   9.826  0.5277  0.0019  0.3916
  195POPE   D2A 2468  17.194  12.404   9.308 -0.1635  0.0039 -0.0064
  195POPE   C3A 2469  17.228  12.751   9.145  0.2132  0.4581 -0.3477
  195POPE   C4A 2470  17.264  13.065   8.848  0.2253 -0.0550 -0.1010
  195POPE   C1B 2471  17.288  11.461   9.853  0.1988 -0.2648  0.0758
  195POPE   C2B 2472  17.315  11.334   9.483 -0.2441  0.1326 -0.0954
  195POPE   C3B 2473  17.310  11.527   9.084 -0.0685 -0.1914 -0.3649
  195POPE   C4B 2474  17.497  11.465   8.667 -0.0480  0.0158  0.0680
  196POPE   NH3 2475  10.034  17.254  10.484 -0.0603  0.5232 -0.1254
  196POPE   PO4 2476  10.346  16.916  10.289  0.3272 -0.2927 -0.2952
  196POPE   GL1 2477  10.082  16.919   9.834 -0.1683 -0.1427  0.0610
  196POPE   GL2 2478  10.253  16.618   9.626  0.0124 -0.0696  0.0807
  196POPE   C1A 2479   9.926  17.004   9.403  0.1311  0.1987 -0.0069
  196POPE   D2A 2480  10.043  17.145   9.073  0.1032  0.2953 -0.1547
  196POPE   C3A 2481   9.756  17.271   8.677 -0.1058  0.3548 -0.2579
  196POPE   C4A 2482   9.701  17.511   8.217  0.1692 -0.4197  0.0695
  196POPE   C1B 2483  10.129  16.606   9.322 -0.0773  0.4371 -0.0557
  196POPE   C2B 2484   9.767  16.684   8.910  0.1743  0.1344 -0.2115
  196POPE   C3B 2485   9.520  16.845   8.651  0.1245 -0.1567 -0.2460
  196POPE   C4B 2486   9.403  17.060   8.344 -0.2622  0.0284 -0.3883
  197POPE   NH3 2487  10.604  16.972   9.839  0.0551 -0.0148 -0.2607
  197POPE   PO4 2488  10.487  17.464   9.748  0.0682  0.1944 -0.0799
  197POPE   GL1 2489  10.675  17.321   9.447  0.1290  0.1278 -0.0239
  197POPE   GL2 2490  10.992  17.261   9.581  0.0737  0.0591  0.1080
  197POPE   C1A 2491  10.544  17.306   8.994  0.2702 -0.2875 -0.1582
  197POPE   D2A 2492  10.557  17.337   8.522  0.2735 -0.0930 -0.3813
  197POPE   C3A 2493  10.153  17.268   8.326  0.1754  0.0503 -0.3940
  197POPE   C4A 2494   9.841  17.075   7.985  0.0818  0.2742  0.0543
  197POPE   C1B 2495  10.998  17.028   9.181 -0.4731  0.0967 -0.2496
  197POPE   C2B 2496  11.328  16.909   8.999 -0.3418 -0.0750 -0.1799
  197POPE   C3B 2497  11.521  16.594   8.780 -0.0802 -0.3876  0.4092
  197POPE   C4B 2498  11.793  16.659   8.530  0.0732 -0.1038  0.0307
  198YOPE   NH3 2499   1.584   9.080   9.876  0.1171  0.1755 -0.0845
  198YOPE   PO4 2500   2.020   9.293   9.786  0.1340 -0.3314 -0.0988
  198YOPE   GL1 2501   2.246   9.240   9.413  0.0752 -0.0404 -0.2518
  198YOPE   GL2 2502   2.212   8.989   9.258 -0.0590 -0.1423 -0.0101
  198YOPE   C1A 2503   2.156   9.479   9.055  0.0826  0.2968 -0.0129
  198YOPE   D2A 2504   2.236   9.652   8.647  0.0979  0.3864 -0.0795
  198YOPE   C3A 2505   2.351   9.553   8.346  0.0807  0.2734 -0.0570
  198YOPE   C4A 2506   2.461   9.396   7.935 -0.4276 -0.2964 -0.0118
  198YOPE   C1B 2507   2.375   9.025   8.923 -0.2002 -0.0693  0.4450
  198YOPE   C2B 2508   2.439   9.107   8.533  0.3531  0.2124 -0.2123
  198YOPE   D3B 2509   2.223   9.056   8.181 -0.0318  0.1453  0.0526
  198YOPE   C4B 2510   2.071   9.114   7.756 -0.1980 -0.0653 -0.1551
  199YOPE   NH3 2511  14.784  15.733  10.804 -0.0190 -0.0290  0.2403
  199YOPE   PO4 2512  14.819  16.192  10.691 -0.3624 -0.0151  0.0141
  199YOPE   GL1 2513  14.974  16.397  10.352 -0.0737 -0.0861 -0.0084
  199YOPE   GL2 2514  14.694  16.576  10.214 -0.0534  0.1758 -0.0055
  199YOPE   C1A 2515  15.068  16.501   9.912  0.1215 -0.0072 -0.2121
  199YOPE   D2A 2516  15.265  16.415   9.601 -0.4084  0.0938  0.2804
  199YOPE   C3A 2517  15.431  16.434   9.119 -0.0399  0.3510 -0.0921
  199YOPE   C4A 2518  15.521  16.571   8.761  0.0034  0.1032 -0.0816
  199YOPE   C1B 2519  14.541  16.617   9.814 -0.0121  0.1545 -0.2496
  199YOPE   C2B 2520  14.787  16.731   9.517  0.2353 -0.0901 -0.1942
  199YOPE   D3B 2521  15.124  16.865   9.122  0.0199 -0.0657  0.3162
  199YOPE   C4B 2522  15.238  17.056   8.738  0.0386  0.1552  0.5816
  200YOPE   NH3 2523  16.323   7.595   9.755 -0.2153  0.3313 -0.2081
  200YOPE   PO4 2524  16.077   7.856   9.465  0.1033  0.2333  0.1812
  200YOPE   GL1 2525  16.051   7.731   9.051  0.0636 -0.0033  0.0111
  200YOPE   GL2 2526  15.875   8.036   8.952 -0.2056  0.0462  0.1242
  200YOPE   C1A 2527  16.187   7.694   8.667 -0.1876  0.1353  0.2439
  200YOPE   D2A 2528  16.522   7.854   8.393 -0.1203 -0.0374 -0.0730
  200YOPE   C3A 2529  16.398   7.727   8.039 -0.0434  0.0600  0.0927
  200YOPE   C4A 2530  16.541   7.786   7.592  0.0482  0.1293  0.0507
  200YOPE   C1B 2531  15.902   8.204   8.505  0.0662  0.2887  0.0343
  200YOPE   C2B 2532  15.988   8.041   8.132  0.1073 -0.1759  0.0711
  200YOPE   D3B 2533  16.211   8.131   7.775 -0.0768 -0.3139 -0.2034
  200YOPE   C4B 2534  16.337   8.569   7.539 -0.0932 -0.1090 -0.0520
  201YOPE   NH3 2535   7.640  16.694   9.761 -0.0291  0.0688 -0.2788
  201YOPE   PO4 2536   8.090  16.609   9.619 -0.4630 -0.2390  0.3239
  201YOPE   GL1 2537   8.090  16.521   9.225  0.1201  0.0069  0.2652
  201YOPE   GL2 2538   7.910  16.200   9.192  0.2456 -0.2787 -0.0435
  201YOPE   C1A 2539   8.255  16.507   8.775  0.0743 -0.0647  0.1883
  201YOPE   D2A 2540   8.255  16.384   8.378  0.2386 -0.3244  0.2118
  201YOPE   C3A 2541   7.988  16.541   8.083 -0.1400 -0.0663 -0.1025
  201YOPE   C4A 2542   7.821  16.642   7.743  0.0815  0.1290  0.0077
  201YOPE   C1B 2543   7.589  15.976   8.871 -0.0704 -0.0106  0.1018
  201YOPE   C2B 2544   7.392  16.029   8.392  0.0498 -0.1228  0.2025
  201YOPE   D3B 2545   6.973  15.781   8.300  0.4581 -0.0188 -0.0765
  201YOPE   C4B 2546   6.978  15.323   8.217  0.0289 -0.1375 -0.0291
  202YOPE   NH3 2547  10.487   4.084  10.470 -0.1357  0.0196  0.1097
  202YOPE   PO4 2548  10.784   4.272  10.300  0.1505  0.0982 -0.4762
  202YOPE   GL1 2549  10.888   4.472   9.872  0.0052  0.2010 -0.1075
  202YOPE   GL2 2550  10.738   4.111   9.730 -0.0771 -0.1657 -0.3801
  202YOPE   C1A 2551  10.798   4.502   9.485 -0.3528 -0.1585  0.4482
  202YOPE   D2A 2552  10.676   4.548   8.998 -0.1529  0.2440  0.0432
  202YOPE   C3A 2553  10.552   4.647   8.605 -0.1352 -0.0208  0.0721
  202YOPE   C4A 2554  10.608   4.902   8.205  0.0812  0.3643  0.1466
  202YOPE   C1B 2555  11.064   4.105   9.383 -0.2927 -0.0367 -0.3761
  202YOPE   C2B 2556  11.257   4.073   9.034  0.1184 -0.1227  0.0838
  202YOPE   D3B 2557  11.205   4.035   8.573 -0.4269  0.0408 -0.4414
  202YOPE   C4B 2558  10.973   3.986   8.159 -0.0433  0.0239 -0.0081
  203YOPE   NH3 2559  10.061  16.231   9.885 -0.0667 -0.1833 -0.1986
  203YOPE   PO4 2560   9.960  15.902  10.001 -0.0091  0.2495 -0.1253
  203YOPE   GL1 2561  10.130  15.665   9.762 -0.0851 -0.1154  0.0103
  203YOPE   GL2 2562   9.900  15.491   9.571 -0.1309  0.0829 -0.2345
  203YOPE   C1A 2563  10.455  15.600   9.574 -0.0358 -0.2616 -0.2205
  203YOPE   D2A 2564  10.544  15.491   9.244 -0.1516 -0.3306 -0.0752
  203YOPE   C3A 2565  10.397  15.409   8.773  0.1986 -0.0995  0.1576
  203YOPE   C4A 2566  10.234  15.383   8.481 -0.1367 -0.2545  0.0978
  203YOPE   C1B 2567   9.983  15.584   9.146 -0.0124 -0.0006  0.0925
  203YOPE   C2B 2568   9.793  15.378   8.733  0.2858 -0.3171  0.1508
  203YOPE   D3B 2569   9.657  15.357   8.209 -0.1241  0.0669 -0.0148
  203YOPE   C4B 2570   9.497  15.726   8.040  0.0895  0.1858  0.3780
  204YOPE   NH3 2571   7.773   9.216  10.367  0.1771 -0.1029 -0.1921
  204YOPE   PO4 2572   7.528   8.922  10.170 -0.0552  0.0366 -0.1151
  204YOPE   GL1 2573   7.355   9.100   9.867  0.1901  0.2318  0.1483
  204YOPE   GL2 2574   7.208   9.313   9.999 -0.0445 -0.0953  0.5483
  204YOPE   C1A 2575   7.444   8.962   9.393 -0.2095 -0.0199 -0.0244
  204YOPE   D2A 2576   7.732   8.713   9.111  0.2792  0.3984 -0.3601
  204YOPE   C3A 2577   7.695   8.701   8.770  0.1287  0.1499  0.0150
  204YOPE   C4A 2578   7.861   8.886   8.408 -0.4035  0.0258  0.0637
  204YOPE   C1B 2579   7.084   9.320   9.571  0.2152  0.0145  0.0459
  204YOPE   C2B 2580   6.947   9.113   9.227 -0.1565  0.0547 -0.0984
  204YOPE   D3B 2581   6.743   8.977   8.884  0.2407  0.0245  0.1329
  204YOPE   C4B 2582   6.514   8.802   8.609 -0.2096 -0.1369  0.0943
  205YOPE   NH3 2583  14.423   0.000  10.780  0.0568  0.0352  0.0334
  205YOPE   PO4 2584  14.649   0.358  10.780 -0.2011  0.0077  0.2594
  205YOPE   GL1 2585  14.792   0.209  10.438 -0.1260 -0.2634  0.1428
  205YOPE   GL2 2586  15.101   0.403  10.441 -0.0753 -0.3893  0.0457
  205YOPE   C1A 2587  14.782   0.099  10.089 -0.0265  0.1236  0.0636
  205YOPE   D2A 2588  14.772   0.181   9.698  0.0170  0.1342  0.0298
  205YOPE   C3A 2589  14.687   0.320   9.344 -0.0463  0.1749  0.1705
  205YOPE   C4A 2590  14.926   0.466   9.026  0.1317  0.1746 -0.0202
  205YOPE   C1B 2591  15.205   0.424   9.951 -0.3541 -0.1201 -0.0837
  205YOPE   C2B 2592  15.211   0.350   9.490  0.4235  0.4687  0.1444
  205YOPE   D3B 2593  15.355   0.279   9.028  0.0202 -0.0450  0.2379
  205YOPE   C4B 2594  15.719   0.292   8.850  0.1034 -0.2478  0.0032
  206YOPE   NH3 2595   2.424   8.982   9.803  0.1352  0.2739  0.2060
  206YOPE   PO4 2596   2.640   9.378   9.880  0.1479 -0.0654  0.3521
  206YOPE   GL1 2597   2.719   9.543   9.480  0.1346 -0.0459 -0.1419
  206YOPE   GL2 2598   2.455   9.717   9.441  0.1245 -0.2250  0.4810
  206YOPE   C1A 2599   2.642   9.430   9.120 -0.4391  0.1810  0.2944
  206YOPE   D2A 2600   2.783   9.475   8.704 -0.0896 -0.1435 -0.1296
  206YOPE   C3A 2601   3.112   9.385   8.584  0.0287 -0.1403  0.1302
  206YOPE   C4A 2602   3.208   9.535   8.248 -0.1898  0.2331 -0.0020
  206YOPE   C1B 2603   2.461   9.870   9.028  0.1784 -0.0475 -0.1423
  206YOPE   C2B 2604   2.568  10.013   8.567  0.0764 -0.2753 -0.3208
  206YOPE   D3B 2605   2.795   9.766   8.297 -0.0623 -0.0062  0.0859
  206YOPE   C4B 2606   2.758   9.228   8.230  0.0125 -0.1323 -0.1223
  207YOPE   NH3 2607   4.533  10.470  10.480 -0.0826 -0.0146 -0.1324
  207YOPE   PO4 2608   4.442  10.065  10.292  0.0795 -0.1927 -0.2995
  207YOPE   GL1 2609   4.489  10.290   9.874  0.0136 -0.2476  0.2486
  207YOPE   GL2 2610   4.285  10.528   9.658 -0.1884  0.0500 -0.0430
  207YOPE   C1A 2611   4.722  10.223   9.545  0.1073 -0.2952  0.1180
  207YOPE   D2A 2612   4.960  10.230   9.223  0.2922 -0.0498 -0.0090
  207YOPE   C3A 2613   4.947  10.509   8.956 -0.0198  0.0759 -0.1172
  207YOPE   C4A 2614   4.672  10.631   8.635  0.0720 -0.0281 -0.0826
  207YOPE   C1B 2615   4.492  10.611   9.285  0.0285 -0.0924 -0.3851
  207YOPE   C2B 2616   4.365  10.820   8.928 -0.1802  0.1577  0.0243
  207YOPE   D3B 2617   4.299  11.182   8.678  0.0900  0.2064 -0.1333
  207YOPE   C4B 2618   4.151  11.473   8.513  0.4246  0.0615  0.0770
  208YOPE   NH3 2619  18.382  10.726  10.083 -0.0511  0.1667  0.3180
  208YOPE   PO4 2620  18.820  10.505  10.158  0.0544 -0.2169 -0.2388
  208YOPE   GL1 2621  18.647  10.306   9.719 -0.0270  0.2234  0.0503
  208YOPE   GL2 2622  18.795  10.468   9.485 -0.1893 -0.0991  0.3556
  208YOPE   C1A 2623  18.423  10.108   9.329 -0.0557  0.1584 -0.0534
  208YOPE   D2A 2624  18.466  10.141   8.930  0.1014 -0.0060  0.1934
  208YOPE   C3A 2625  18.855  10.036   8.641  0.2149  0.0643  0.3162
  208YOPE   C4A 2626  19.079   9.814   8.310  0.0714  0.4178  0.0691
  208YOPE   C1B 2627  18.759  10.507   9.056  0.1919 -0.3173  0.1238
  208YOPE   C2B 2628  18.770  10.563   8.578  0.0939 -0.0532 -0.1933
  208YOPE   D3B 2629  18.529  10.739   8.329 -0.1076  0.3134 -0.2305
  208YOPE   C4B 2630  18.138  10.590   8.227 -0.1382  0.5316  0.4097
  209YOPE   NH3 2631   4.562  11.610  10.387 -0.2947 -0.2130 -0.5795
  209YOPE   PO4 2632   4.391  12.059  10.496 -0.1860  0.4872 -0.3169
  209YOPE   GL1 2633   4.352  12.158  10.079 -0.1550 -0.0108  0.1825
  209YOPE   GL2 2634   4.129  12.297  10.060  0.2248  0.3004  0.0505
  209YOPE   C1A 2635   4.555  12.312   9.807  0.0343 -0.0616 -0.1238
  209YOPE   D2A 2636   4.570  12.393   9.324  0.2917 -0.1048  0.1084
  209YOPE   C3A 2637   4.945  12.665   9.161  0.0473  0.1238  0.0904
  209YOPE   C4A 2638   4.855  13.027   8.840  0.0628  0.2294 -0.0186
  209YOPE   C1B 2639   4.295  12.765   9.847 -0.0003 -0.0066 -0.0741
  209YOPE   C2B 2640   4.551  12.944   9.574 -0.0034  0.0896  0.4016
  209YOPE   D3B 2641   4.659  13.246   9.273  0.3844 -0.1064  0.2483
  209YOPE   C4B 2642   4.959  13.517   9.019 -0.1022  0.2512  0.0341
  210YOPE   NH3 2643  11.611  12.802  10.453  0.1536 -0.1680  0.0665
  210YOPE   PO4 2644  11.895  13.172  10.350  0.1889 -0.0573  0.2412
  210YOPE   GL1 2645  12.118  13.125   9.949  0.1903 -0.1199  0.2395
  210YOPE   GL2 2646  12.053  13.412   9.894 -0.2508 -0.0475  0.5175
  210YOPE   C1A 2647  12.338  13.088   9.634 -0.1304  0.2822  0.2685
  210YOPE   D2A 2648  12.364  13.220   9.202  0.1112  0.0135 -0.0972
  210YOPE   C3A 2649  12.749  13.102   8.948 -0.1962  0.0824 -0.0793
  210YOPE   C4A 2650  12.692  12.772   9.145 -0.1649  0.2024  0.0548
  210YOPE   C1B 2651  11.810  13.207   9.500 -0.0112  0.2269 -0.2003
  210YOPE   C2B 2652  11.658  13.247   9.160 -0.0648 -0.0563  0.1793
  210YOPE   D3B 2653  11.476  13.277   8.697 -0.1985 -0.0395  0.1570
  210YOPE   C4B 2654  11.322  13.357   8.367 -0.0103 -0.0122 -0.1551
  211YOPE   NH3 2655   4.152   6.448  10.069 -0.0201  0.2776  0.1035
  211YOPE   PO4 2656   3.812   6.663  10.091  0.0894 -0.1576  0.0139
  211YOPE   GL1 2657   3.926   6.664   9.638  0.0615  0.2282  0.0588
  211YOPE   GL2 2658   4.084   6.923   9.495 -0.0681 -0.0347  0.1709
  211YOPE   C1A 2659   3.744   6.656   9.203 -0.1250  0.0827  0.3280
  211YOPE   D2A 2660   3.805   6.640   8.701 -0.1996 -0.2306  0.0127
  211YOPE   C3A 2661   3.481   6.655   8.369  0.1424 -0.0979  0.2550
  211YOPE   C4A 2662   3.324   7.012   8.354  0.0065 -0.0408 -0.2282
  211YOPE   C1B 2663   4.079   7.126   9.056 -0.3367 -0.0268  0.1642
  211YOPE   C2B 2664   3.744   7.117   8.769 -0.0388 -0.0988  0.3115
  211YOPE   D3B 2665   3.798   7.050   8.403  0.1483  0.0137 -0.2386
  211YOPE   C4B 2666   3.857   6.994   7.912 -0.0340 -0.3721  0.0257
  212YOPE   NH3 2667  16.222   9.150   9.909  0.2222 -0.0322  0.1105
  212YOPE   PO4 2668  16.577   9.399   9.815 -0.0858 -0.3392 -0.1744
  212YOPE   GL1 2669  16.592   9.235   9.489  0.4060 -0.1285 -0.1361
  212YOPE   GL2 2670  16.608   8.871   9.455 -0.2655  0.1127 -0.0508
  212YOPE   C1A 2671  16.930   9.376   9.138 -0.0549 -0.0057 -0.1060
  212YOPE   D2A 2672  17.040   9.721   8.880 -0.0003 -0.3972  0.2175
  212YOPE   C3A 2673  16.910   9.797   8.514  0.4067  0.3280 -0.3352
  212YOPE   C4A 2674  16.980   9.874   8.004 -0.0497 -0.0268  0.3538
  212YOPE   C1B 2675  16.663   8.940   9.073 -0.1487  0.1883 -0.0221
  212YOPE   C2B 2676  16.693   8.802   8.642 -0.0526  0.0177  0.1088
  212YOPE   D3B 2677  16.615   8.828   8.168 -0.1147  0.3310 -0.0426
  212YOPE   C4B 2678  16.899   8.677   7.866 -0.2105  0.0715 -0.2237
  213YOPE   NH3 2679   7.953  16.303  10.057  0.1645 -0.3353  0.1360
  213YOPE   PO4 2680   7.775  16.157   9.711 -0.3813 -0.0092 -0.0137
  213YOPE   GL1 2681   7.659  15.767   9.496 -0.1501  0.2738  0.3972
  213YOPE   GL2 2682   7.799  15.424   9.427 -0.0898 -0.0895  0.2367
  213YOPE   C1A 2683   7.359  15.634   9.242  0.1482  0.2032 -0.2227
  213YOPE   D2A 2684   7.100  15.630   8.850  0.2785 -0.0984 -0.1559
  213YOPE   C3A 2685   7.390  15.414   8.532 -0.0056  0.1040  0.3336
  213YOPE   C4A 2686   7.419  15.605   8.108 -0.0301  0.0613  0.0581
  213YOPE   C1B 2687   7.509  15.203   9.092 -0.1459 -0.4455 -0.0782
  213YOPE   C2B 2688   7.780  15.110   8.786  0.2644  0.1035 -0.1485
  213YOPE   D3B 2689   7.795  14.824   8.575 -0.1597  0.2478  0.0685
  213YOPE   C4B 2690   7.538  14.485   8.318 -0.1670  0.0778  0.1635
  214YOPE   NH3 2691   2.898   4.198  10.133  0.6543 -0.0099 -0.2444
  214YOPE   PO4 2692   2.521   3.978  10.265 -0.1114 -0.0882 -0.1295
  214YOPE   GL1 2693   2.414   3.685   9.917 -0.0675  0.0345  0.2681
  214YOPE   GL2 2694   2.067   3.806   9.925 -0.1627  0.3038 -0.0908
  214YOPE   C1A 2695   2.453   3.665   9.481 -0.0265  0.1246 -0.2905
  214YOPE   D2A 2696   2.631   3.686   9.084 -0.0135 -0.4179  0.0821
  214YOPE   C3A 2697   2.549   3.359   8.929  0.3739 -0.0108  0.0793
  214YOPE   C4A 2698   2.752   3.142   8.598 -0.1933  0.0563  0.1756
  214YOPE   C1B 2699   2.069   3.944   9.557 -0.1190 -0.0494  0.0516
  214YOPE   C2B 2700   1.745   3.857   9.334  0.1056 -0.2260 -0.0323
  214YOPE   D3B 2701   1.552   3.828   8.889  0.1726  0.2227  0.2942
  214YOPE   C4B 2702   1.467   3.697   8.485  0.0074  0.5309 -0.0029
  215YOPE   NH3 2703   7.770   5.518  10.181  0.0096 -0.1858  0.2266
  215YOPE   PO4 2704   7.333   5.685  10.228 -0.1844  0.1811  0.2598
  215YOPE   GL1 2705   7.408   5.922   9.893 -0.2397  0.1784  0.3360
  215YOPE   GL2 2706   7.270   6.150   9.744 -0.2511  0.0408  0.0213
  215YOPE   C1A 2707   7.688   5.901   9.551  0.1906 -0.2702  0.0507
  215YOPE   D2A 2708   7.798   6.073   9.134 -0.1710 -0.0008 -0.3774
  215YOPE   C3A 2709   7.908   5.735   8.831 -0.1711 -0.0320  0.1207
  215YOPE   C4A 2710   8.093   5.585   8.473 -0.2699  0.0997 -0.1105
  215YOPE   C1B 2711   7.339   6.310   9.369  0.1783 -0.1711  0.1242
  215YOPE   C2B 2712   7.530   6.532   9.053 -0.0160  0.1912 -0.0920
  215YOPE   D3B 2713   7.599   6.873   8.659 -0.2032 -0.0911 -0.0326
  215YOPE   C4B 2714   7.736   6.902   8.201  0.0932 -0.3811 -0.0623
  216YOPE   NH3 2715   7.323  17.198  10.166  0.2906 -0.0188  0.1130
  216YOPE   PO4 2716   7.137  17.476   9.964  0.0319  0.0671  0.0549
  216YOPE   GL1 2717   7.274  17.521   9.500 -0.1349  0.2242 -0.2357
  216YOPE   GL2 2718   7.063  17.642   9.364 -0.0070  0.1547  0.1042
  216YOPE   C1A 2719   7.313  17.288   9.139 -0.3123 -0.0469 -0.0836
  216YOPE   D2A 2720   7.241  17.062   8.995  0.2429  0.0770  0.1587
  216YOPE   C3A 2721   7.226  17.005   8.590 -0.2941 -0.3289  0.1103
  216YOPE   C4A 2722   7.274  17.210   8.274  0.0704  0.2747 -0.0376
  216YOPE   C1B 2723   6.993  18.047   9.108 -0.1924  0.1071  0.0010
  216YOPE   C2B 2724   7.031  18.188   8.707 -0.0082 -0.2229  0.0783
  216YOPE   D3B 2725   6.746  18.055   8.376 -0.2751  0.2906 -0.3202
  216YOPE   C4B 2726   6.483  18.052   8.066  0.1996  0.1966 -0.3246
  217YOPE   NH3 2727  15.502  18.370  10.832 -0.2770  0.1316  0.0090
  217YOPE   PO4 2728  15.868  18.494  11.006 -0.2673 -0.1254 -0.1993
  217YOPE   GL1 2729  15.907  18.468  10.513  0.1792  0.0957  0.0125
  217YOPE   GL2 2730  15.567  18.635  10.370  0.0689  0.2050 -0.4167
  217YOPE   C1A 2731  16.133  18.335  10.202  0.2245  0.1169  0.1305
  217YOPE   D2A 2732  16.519  18.061  10.285 -0.0962 -0.2395  0.1312
  217YOPE   C3A 2733  16.715  18.006   9.920  0.1474  0.1604  0.2811
  217YOPE   C4A 2734  16.955  18.039   9.505 -0.0245 -0.0427 -0.0797
  217YOPE   C1B 2735  15.681  18.585   9.938  0.0755 -0.0554  0.2004
  217YOPE   C2B 2736  15.954  18.485   9.751  0.1118  0.1826  0.3090
  217YOPE   D3B 2737  16.237  18.127   9.720 -0.3467 -0.0155 -0.1737
  217YOPE   C4B 2738  16.149  17.879  10.026  0.1058 -0.0869  0.0435
  218YOPE   NH3 2739   3.288   6.824  10.209  0.1144  0.0048  0.2269
  218YOPE   PO4 2740   3.054   6.432  10.368  0.1475 -0.1029  0.0351
  218YOPE   GL1 2741   2.820   6.516  10.044  0.4068  0.2529  0.1519
  218YOPE   GL2 2742   2.508   6.479   9.966  0.2210  0.1696 -0.1432
  218YOPE   C1A 2743   2.952   6.407   9.606  0.1361 -0.1830  0.0770
  218YOPE   D2A 2744   3.094   6.386   9.217  0.0866  0.3032 -0.0735
  218YOPE   C3A 2745   2.910   6.366   8.766  0.0731  0.6795 -0.0817
  218YOPE   C4A 2746   2.890   6.277   8.359  0.1849  0.1026  0.0258
  218YOPE   C1B 2747   2.451   6.255   9.623  0.2359  0.0437  0.1660
  218YOPE   C2B 2748   2.497   6.219   9.119 -0.1500  0.1155  0.1785
  218YOPE   D3B 2749   2.507   6.112   8.708 -0.1810  0.1388 -0.4281
  218YOPE   C4B 2750   2.642   5.812   8.464  0.3691  0.0050  0.0410
  219YOPE   NH3 2751  13.914  10.192  10.444 -0.4748  0.0720 -0.0689
  219YOPE   PO4 2752  14.312   9.943  10.449 -0.0768 -0.0666 -0.2598
  219YOPE   GL1 2753  14.327  10.056  10.189 -0.0864 -0.0018 -0.2559
  219YOPE   GL2 2754  14.142  10.024   9.978 -0.2730 -0.0439 -0.0470
  219YOPE   C1A 2755  14.445  10.402   9.892 -0.0765  0.1344  0.0346
  219YOPE   D2A 2756  14.418  10.792   9.756  0.3356 -0.1842  0.0818
  219YOPE   C3A 2757  14.501  10.698   9.389 -0.0055 -0.0493 -0.1913
  219YOPE   C4A 2758  14.804  10.685   9.019  0.0699  0.1379  0.2730
  219YOPE   C1B 2759  14.488   9.953   9.676  0.0118  0.1185  0.4547
  219YOPE   C2B 2760  14.448  10.202   9.383  0.3905  0.0523  0.0772
  219YOPE   D3B 2761  14.447  10.161   9.043  0.3216 -0.3755  0.1407
  219YOPE   C4B 2762  14.762  10.220   8.736  0.1409 -0.4528 -0.0558
  220YOPE   NH3 2763   7.839  14.760   9.925 -0.1818  0.1586 -0.1957
  220YOPE   PO4 2764   8.136  14.487  10.130 -0.1979 -0.3741 -0.1130
  220YOPE   GL1 2765   7.925  14.228   9.869  0.3069  0.0914  0.0390
  220YOPE   GL2 2766   8.040  13.934   9.846 -0.0277  0.0830  0.1051
  220YOPE   C1A 2767   7.690  14.023   9.537 -0.1299 -0.0180  0.2173
  220YOPE   D2A 2768   7.679  13.954   9.124  0.1131 -0.0818 -0.3391
  220YOPE   C3A 2769   7.462  13.718   8.803 -0.0513 -0.2750  0.0816
  220YOPE   C4A 2770   7.238  13.544   8.338  0.0618  0.1526  0.0013
  220YOPE   C1B 2771   8.001  13.652   9.520 -0.2172  0.0058  0.0430
  220YOPE   C2B 2772   8.177  13.340   9.239 -0.0591  0.4007  0.0476
  220YOPE   D3B 2773   8.285  13.208   8.815 -0.1987  0.1490 -0.1020
  220YOPE   C4B 2774   8.646  12.997   8.559  0.0267  0.1241 -0.2276
  221YOPE   NH3 2775  14.867   5.526  10.010  0.0481 -0.3544  0.1921
  221YOPE   PO4 2776  14.748   5.122   9.831 -0.0701 -0.1054  0.0206
  221YOPE   GL1 2777  14.864   4.926   9.482 -0.0979  0.0453 -0.0706
  221YOPE   GL2 2778  15.062   4.755   9.541 -0.2079  0.0049  0.0133
  221YOPE   C1A 2779  14.710   4.906   9.123  0.0573 -0.2222 -0.0622
  221YOPE   D2A 2780  14.685   4.695   8.773  0.0721  0.2240  0.0287
  221YOPE   C3A 2781  14.750   4.564   8.398  0.1796 -0.0447  0.1404
  221YOPE   C4A 2782  14.671   4.566   7.947 -0.0980 -0.0581  0.0329
  221YOPE   C1B 2783  15.029   4.532   9.092 -0.0661  0.0214  0.0751
  221YOPE   C2B 2784  15.182   4.446   8.748 -0.1290  0.0328 -0.0626
  221YOPE   D3B 2785  15.229   4.245   8.362 -0.0612  0.1560  0.1294
  221YOPE   C4B 2786  15.422   3.979   8.095 -0.1188  0.2419 -0.3492
  222YOPE   NH3 2787   8.212   7.450  10.407 -0.2183  0.0077  0.0860
  222YOPE   PO4 2788   8.050   7.120  10.034  0.0008  0.1425 -0.3299
  222YOPE   GL1 2789   7.794   7.247   9.724 -0.3571 -0.0364 -0.0507
  222YOPE   GL2 2790   7.999   7.117   9.483  0.0919 -0.1231 -0.0534
  222YOPE   C1A 2791   7.373   7.293   9.610  0.0036  0.0669  0.0836
  222YOPE   D2A 2792   7.162   7.652   9.490 -0.2698 -0.2887  0.0251
  222YOPE   C3A 2793   6.803   7.636   9.341  0.1031 -0.3567  0.2732
  222YOPE   C4A 2794   6.409   7.710   9.209  0.0023 -0.1402  0.5116
  222YOPE   C1B 2795   8.173   7.104   9.012  0.1474  0.1242 -0.0998
  222YOPE   C2B 2796   8.085   7.230   8.623  0.1818 -0.0737 -0.1310
  222YOPE   D3B 2797   7.868   7.404   8.275 -0.2270  0.1346 -0.3574
  222YOPE   C4B 2798   7.712   7.236   7.842 -0.0266 -0.0416  0.1438
  223YOPE   NH3 2799   7.666  14.097  10.455  0.2176  0.1345  0.2287
  223YOPE   PO4 2800   7.541  14.433  10.181  0.3984  0.2111 -0.0628
  223YOPE   GL1 2801   7.463  14.548   9.736  0.3121  0.1722 -0.0506
  223YOPE   GL2 2802   7.120  14.611   9.815 -0.2025  0.1295  0.3453
  223YOPE   C1A 2803   7.717  14.451   9.403  0.0019 -0.1289 -0.0178
  223YOPE   D2A 2804   7.699  14.574   8.971  0.1311 -0.0334  0.0737
  223YOPE   C3A 2805   7.699  14.229   8.681 -0.1405  0.1973 -0.0442
  223YOPE   C4A 2806   7.614  13.946   8.344  0.1976  0.2116 -0.0461
  223YOPE   C1B 2807   6.937  14.689   9.535 -0.0734  0.0477 -0.2114
  223YOPE   C2B 2808   6.738  14.757   9.116 -0.0473 -0.2991 -0.2961
  223YOPE   D3B 2809   6.578  14.614   8.781 -0.0300 -0.0023  0.2862
  223YOPE   C4B 2810   6.370  14.320   8.554  0.2062 -0.3044 -0.3393
  224YOPE   NH3 2811  15.557   2.806  10.402  0.0540  0.2585 -0.2300
  224YOPE   PO4 2812  15.208   2.867  10.178 -0.0394  0.0237 -0.1074
  224YOPE   GL1 2813  15.316   2.790   9.840 -0.1070  0.0349  0.0260
  224YOPE   GL2 2814  15.143   2.893   9.544 -0.0876  0.1314 -0.0250
  224YOPE   C1A 2815  15.720   2.723   9.544  0.4398 -0.1449 -0.1885
  224YOPE   D2A 2816  15.741   2.296   9.343 -0.1065 -0.1323 -0.0252
  224YOPE   C3A 2817  16.039   2.052   9.045 -0.1212  0.3346 -0.1599
  224YOPE   C4A 2818  16.260   1.705   8.840 -0.0354 -0.2775 -0.0840
  224YOPE   C1B 2819  15.280   2.691   9.321  0.1000  0.1774  0.1198
  224YOPE   C2B 2820  15.532   2.787   8.937 -0.3457 -0.1775  0.0335
  224YOPE   D3B 2821  15.581   2.985   8.594 -0.3475 -0.1538  0.3633
  224YOPE   C4B 2822  15.689   3.036   8.133 -0.1596  0.0562 -0.1494
  225YOPE   NH3 2823  13.583  11.269  10.313  0.2229 -0.0199  0.1656
  225YOPE   PO4 2824  13.949  11.211  10.464  0.0954  0.1541  0.1778
  225YOPE   GL1 2825  14.110  11.069  10.099 -0.1534  0.3755  0.1268
  225YOPE   GL2 2826  13.838  11.085   9.895  0.1723  0.2430  0.0720
  225YOPE   C1A 2827  14.333  11.267   9.831 -0.2024 -0.0560 -0.0795
  225YOPE   D2A 2828  14.423  11.493   9.550 -0.0370 -0.0715 -0.0962
  225YOPE   C3A 2829  14.502  11.467   9.126 -0.0226  0.0252  0.0091
  225YOPE   C4A 2830  14.428  11.674   8.679  0.1279 -0.1380  0.0811
  225YOPE   C1B 2831  13.892  10.958   9.583  0.5873  0.0659 -0.3389
  225YOPE   C2B 2832  14.154  11.092   9.309 -0.2239  0.0001 -0.0550
  225YOPE   D3B 2833  14.388  10.966   8.980 -0.3362  0.0610 -0.1925
  225YOPE   C4B 2834  14.577  10.743   8.595 -0.0240 -0.2296 -0.0405
  226YOPE   NH3 2835  15.257   0.889  10.477 -0.0398  0.0734 -0.0824
  226YOPE   PO4 2836  15.498   1.231  10.387  0.3432  0.0914  0.3054
  226YOPE   GL1 2837  15.893   1.097  10.052  0.1507 -0.4453  0.1427
  226YOPE   GL2 2838  16.135   1.056  10.254 -0.2780 -0.1292 -0.2495
  226YOPE   C1A 2839  16.049   1.039   9.539  0.2359 -0.0836  0.2320
  226YOPE   D2A 2840  16.221   0.835   9.197 -0.2611 -0.2234 -0.1338
  226YOPE   C3A 2841  16.338   1.028   8.867 -0.2233  0.2583  0.2070
  226YOPE   C4A 2842  16.251   1.208   8.465 -0.4681  0.0829 -0.0871
  226YOPE   C1B 2843  16.390   1.152   9.878 -0.0593  0.1070  0.0781
  226YOPE   C2B 2844  16.686   1.131   9.580  0.0101  0.3209 -0.1296
  226YOPE   D3B 2845  16.846   1.048   9.240  0.0596  0.4093 -0.0969
  226YOPE   C4B 2846  16.922   0.749   8.899  0.3228  0.0650  0.1878
  227YOPE   NH3 2847   2.612   0.808  11.542  0.2782  0.0960  0.1966
  227YOPE   PO4 2848   2.220   0.678  11.220  0.1935  0.0679 -0.2284
  227YOPE   GL1 2849   2.193   0.477  10.851  0.0791  0.1710  0.0003
  227YOPE   GL2 2850   1.977   0.599  10.468  0.3244  0.1910 -0.1092
  227YOPE   C1A 2851   2.013   0.088  10.507  0.0723  0.2304  0.0678
  227YOPE   D2A 2852   1.658  -0.245  10.199  0.1734 -0.0576  0.0612
  227YOPE   C3A 2853   1.768  -0.302   9.754  0.0581  0.0534 -0.3764
  227YOPE   C4A 2854   2.032  -0.616   9.563 -0.1631 -0.1458  0.0074
  227YOPE   C1B 2855   2.002   0.761  10.124  0.0210 -0.1858 -0.0423
  227YOPE   C2B 2856   1.742   0.714   9.697  0.1248 -0.1676 -0.0984
  227YOPE   D3B 2857   1.575   0.624   9.345  0.3459  0.1426 -0.2222
  227YOPE   C4B 2858   1.573   0.549   8.835 -0.0417  0.2293 -0.0301
  228YOPE   NH3 2859  14.706   6.561   9.510  0.0199 -0.1268  0.0532
  228YOPE   PO4 2860  14.744   7.037   9.493 -0.0882  0.2553 -0.0347
  228YOPE   GL1 2861  14.586   6.924   9.091  0.1222  0.0784  0.0290
  228YOPE   GL2 2862  14.826   7.190   8.910 -0.1843 -0.0278 -0.0749
  228YOPE   C1A 2863  14.480   6.954   8.643  0.3504 -0.0992 -0.4050
  228YOPE   D2A 2864  14.127   7.159   8.299 -0.0346 -0.3136 -0.3753
  228YOPE   C3A 2865  14.229   7.148   7.918  0.0224 -0.1458  0.2901
  228YOPE   C4A 2866  14.401   6.942   7.611 -0.1798 -0.1934 -0.0142
  228YOPE   C1B 2867  14.824   7.218   8.428  0.0714 -0.1665 -0.1426
  228YOPE   C2B 2868  14.714   7.167   8.020 -0.2622  0.3895 -0.0059
  228YOPE   D3B 2869  14.610   7.412   7.668  0.2292  0.0516  0.1521
  228YOPE   C4B 2870  14.157   7.545   7.499 -0.2761 -0.2609  0.0379
  229YOPE   NH3 2871  16.353   3.314  10.662  0.0507  0.1587 -0.3073
  229YOPE   PO4 2872  16.585   3.141  10.378  0.0101 -0.0539  0.1108
  229YOPE   GL1 2873  16.403   3.033  10.009  0.0836 -0.0578 -0.0944
  229YOPE   GL2 2874  16.596   3.066   9.764 -0.1473 -0.1533 -0.1361
  229YOPE   C1A 2875  16.192   2.682   9.680 -0.1794  0.1479  0.0940
  229YOPE   D2A 2876  16.204   2.486   9.240 -0.5043 -0.2004 -0.0903
  229YOPE   C3A 2877  15.968   2.537   8.962 -0.2091 -0.0892  0.0061
  229YOPE   C4A 2878  15.890   2.564   8.626 -0.3566  0.1109 -0.0973
  229YOPE   C1B 2879  16.615   2.889   9.386 -0.1469  0.4831 -0.1221
  229YOPE   C2B 2880  16.597   2.739   8.945 -0.0280  0.0003  0.2873
  229YOPE   D3B 2881  16.479   2.635   8.595 -0.0673 -0.0013  0.0811
  229YOPE   C4B 2882  16.105   2.871   8.298  0.3531 -0.2583  0.1475
  230YOPE   NH3 2883   8.787   9.253   9.947 -0.1447 -0.0525 -0.1072
  230YOPE   PO4 2884   9.187   9.252   9.987  0.2585  0.2171 -0.1453
  230YOPE   GL1 2885   9.133   9.516   9.678  0.2499  0.0035 -0.0419
  230YOPE   GL2 2886   8.724   9.705   9.625  0.0189 -0.0735  0.0717
  230YOPE   C1A 2887   9.036   9.486   9.276 -0.0441 -0.0650  0.2757
  230YOPE   D2A 2888   9.008   9.583   8.897 -0.0758  0.1229  0.2191
  230YOPE   C3A 2889   8.852   9.700   8.482  0.1733 -0.1327  0.0148
  230YOPE   C4A 2890   8.855  10.129   8.256 -0.1018 -0.3718  0.1884
  230YOPE   C1B 2891   8.482   9.820   9.188 -0.1012 -0.0500  0.1308
  230YOPE   C2B 2892   8.526  10.047   8.718  0.0645  0.0756 -0.0547
  230YOPE   D3B 2893   8.382   9.776   8.350  0.2941 -0.0932  0.1286
  230YOPE   C4B 2894   8.311   9.542   8.030  0.0343 -0.3001 -0.0234
  231YOPE   NH3 2895   8.284  11.444  10.473 -0.0801  0.1162 -0.1025
  231YOPE   PO4 2896   7.949  11.192  10.244 -0.1121  0.3721  0.0079
  231YOPE   GL1 2897   7.605  11.305   9.993  0.1912  0.1822 -0.1733
  231YOPE   GL2 2898   7.426  11.647   9.997  0.1937 -0.0958  0.1832
  231YOPE   C1A 2899   7.386  11.069   9.624 -0.0610 -0.1271  0.0119
  231YOPE   D2A 2900   7.287  11.126   9.180  0.0572 -0.0861 -0.1626
  231YOPE   C3A 2901   6.973  11.096   8.963  0.1700 -0.1439  0.0764
  231YOPE   C4A 2902   6.708  11.076   8.535  0.2382  0.2403 -0.3291
  231YOPE   C1B 2903   7.429  11.605   9.544 -0.0949 -0.0899 -0.0432
  231YOPE   C2B 2904   7.314  11.699   9.161 -0.2411  0.0994  0.1090
  231YOPE   D3B 2905   7.208  11.509   8.801 -0.3872  0.2286 -0.1065
  231YOPE   C4B 2906   7.221  11.120   8.536 -0.1189 -0.0760 -0.0337
  232YOPE   NH3 2907   0.593   2.462  10.221  0.0121 -0.2595 -0.2924
  232YOPE   PO4 2908   0.958   2.110  10.282 -0.0695  0.1915  0.1488
  232YOPE   GL1 2909   0.837   2.000   9.842  0.3389 -0.0057 -0.0738
  232YOPE   GL2 2910   0.595   2.258   9.661 -0.3076  0.0613  0.1061
  232YOPE   C1A 2911   0.818   1.808   9.501  0.1663 -0.3149 -0.0875
  232YOPE   D2A 2912   0.847   1.774   9.026  0.1019  0.0110 -0.1081
  232YOPE   C3A 2913   0.893   2.102   8.762 -0.1862  0.1722  0.0040
  232YOPE   C4A 2914   1.173   2.370   8.621 -0.3742 -0.0663  0.0112
  232YOPE   C1B 2915   0.588   2.185   9.225 -0.2702 -0.1211 -0.0232
  232YOPE   C2B 2916   0.425   2.011   8.807 -0.3176 -0.1240  0.1730
  232YOPE   D3B 2917   0.214   1.983   8.498  0.0103  0.2959 -0.1150
  232YOPE   C4B 2918  -0.069   2.159   8.211  0.2749 -0.3391  0.1008
  233YOPE   NH3 2919  13.964   5.787   9.800 -0.1772  0.0243  0.0837
  233YOPE   PO4 2920  13.480   5.751   9.805  0.1688  0.0393 -0.2024
  233YOPE   GL1 2921  13.463   5.435   9.524 -0.2795 -0.0993 -0.1315
  233YOPE   GL2 2922  13.798   5.375   9.494 -0.2194  0.2893 -0.0667
  233YOPE   C1A 2923  13.547   4.934   9.430  0.0697  0.1160  0.4578
  233YOPE   D2A 2924  13.585   4.634   9.153  0.0316  0.2154 -0.2416
  233YOPE   C3A 2925  13.921   4.713   8.932 -0.2132  0.2484  0.1361
  233YOPE   C4A 2926  13.815   4.492   8.565  0.2238  0.2403 -0.1140
  233YOPE   C1B 2927  13.869   5.170   9.143  0.2984 -0.0169  0.0464
  233YOPE   C2B 2928  13.830   5.120   8.726 -0.2367 -0.1708 -0.0967
  233YOPE   D3B 2929  13.548   5.005   8.359  0.2573 -0.2146  0.0502
  233YOPE   C4B 2930  13.310   4.707   8.050  0.0403 -0.0630 -0.0414
  234YOPE   NH3 2931   3.921   9.785  10.076 -0.0885  0.0522  0.1478
  234YOPE   PO4 2932   3.553   9.826  10.227 -0.2932  0.3201 -0.3072
  234YOPE   GL1 2933   3.541   9.895   9.764  0.1370 -0.2133  0.1086
  234YOPE   GL2 2934   3.329  10.080   9.603 -0.2140 -0.0443 -0.1285
  234YOPE   C1A 2935   3.621   9.854   9.329  0.0844 -0.1043  0.1741
  234YOPE   D2A 2936   3.776  10.096   9.016  0.1993 -0.2946 -0.0964
  234YOPE   C3A 2937   4.072  10.017   8.855 -0.1874  0.1052  0.2081
  234YOPE   C4A 2938   4.423   9.612   8.828 -0.0230  0.0127 -0.0266
  234YOPE   C1B 2939   3.183  10.412   9.329 -0.0673  0.1975  0.3351
  234YOPE   C2B 2940   3.340  10.394   8.910 -0.2380 -0.1786  0.1452
  234YOPE   D3B 2941   3.705  10.508   8.607 -0.1772  0.0503 -0.0423
  234YOPE   C4B 2942   4.017  10.867   8.405 -0.0667  0.0573 -0.0190
  235YOPE   NH3 2943   0.428   0.756  10.930 -0.2724 -0.1743  0.0870
  235YOPE   PO4 2944   0.812   0.444  11.022 -0.3192  0.0290  0.1177
  235YOPE   GL1 2945   0.798   0.253  10.689  0.1447  0.1368 -0.0512
  235YOPE   GL2 2946   0.719  -0.069  10.656 -0.1591 -0.1386 -0.2778
  235YOPE   C1A 2947   0.771   0.265  10.249 -0.0059 -0.1255 -0.0763
  235YOPE   D2A 2948   0.887   0.099   9.736  0.0071  0.2040  0.1148
  235YOPE   C3A 2949   0.459  -0.027   9.512  0.6216  0.4238 -0.1564
  235YOPE   C4A 2950   0.311  -0.215   9.102 -0.2479 -0.2219 -0.3957
  235YOPE   C1B 2951   1.130  -0.074  10.434  0.2106  0.0883  0.1903
  235YOPE   C2B 2952   1.291   0.013  10.077 -0.0013  0.0276  0.3454
  235YOPE   D3B 2953   1.287  -0.185   9.649  0.1204 -0.1775 -0.2857
  235YOPE   C4B 2954   1.486  -0.290   9.249  0.2455  0.1287 -0.2020
  236YOPE   NH3 2955  10.230   7.762  10.695  0.0224 -0.2474  0.3374
  236YOPE   PO4 2956  10.409   8.165  10.379 -0.0532  0.1915  0.0770
  236YOPE   GL1 2957  10.619   8.231   9.982 -0.1441 -0.1198  0.3620
  236YOPE   GL2 2958  10.767   7.991   9.940  0.2093  0.2132  0.1910
  236YOPE   C1A 2959  10.557   8.405   9.513 -0.1385  0.0794 -0.2573
  236YOPE   D2A 2960  10.118   8.447   9.378  0.0713 -0.1454  0.0559
  236YOPE   C3A 2961   9.737   8.175   9.389 -0.1706  0.1134 -0.0749
  236YOPE   C4A 2962   9.401   7.816   9.598 -0.0492 -0.0528  0.0642
  236YOPE   C1B 2963  10.825   7.926   9.538  0.2677 -0.1474  0.3694
  236YOPE   C2B 2964  10.749   8.095   9.204  0.1188  0.4115  0.2320
  236YOPE   D3B 2965  10.450   8.346   8.902  0.0340  0.1440 -0.0946
  236YOPE   C4B 2966  10.236   8.294   8.464 -0.0178  0.2972  0.2639
  237YOPE   NH3 2967  17.279   7.056   9.980  0.0400  0.3691  0.0672
  237YOPE   PO4 2968  17.589   7.024   9.898  0.3247  0.2331 -0.4567
  237YOPE   GL1 2969  17.452   6.973   9.454  0.1879  0.2211  0.0116
  237YOPE   GL2 2970  17.471   6.682   9.408  0.0266 -0.1650 -0.0441
  237YOPE   C1A 2971  17.278   6.892   9.016 -0.1258  0.1560  0.2013
  237YOPE   D2A 2972  17.064   6.868   8.630  0.1064  0.1873  0.0437
  237YOPE   C3A 2973  17.109   6.638   8.472 -0.2242  0.0974  0.1050
  237YOPE   C4A 2974  17.186   6.289   8.153 -0.0508 -0.1499  0.1878
  237YOPE   C1B 2975  17.762   6.751   9.078 -0.3425 -0.3857  0.0461
  237YOPE   C2B 2976  17.702   6.848   8.623 -0.0046 -0.0764  0.0704
  237YOPE   D3B 2977  17.714   6.592   8.259  0.0649 -0.1741 -0.0949
  237YOPE   C4B 2978  17.602   6.497   7.837 -0.1170 -0.0048 -0.0451
  238YOPE   NH3 2979  15.915   1.547  10.391 -0.1027 -0.1951 -0.0319
  238YOPE   PO4 2980  15.578   1.741  10.376  0.2250 -0.1677  0.0254
  238YOPE   GL1 2981  15.812   1.620   9.948 -0.1065  0.0505  0.2742
  238YOPE   GL2 2982  16.208   1.622  10.003  0.0217 -0.0210  0.1241
  238YOPE   C1A 2983  15.793   1.681   9.514 -0.1174 -0.3161  0.0726
  238YOPE   D2A 2984  15.546   1.772   9.105  0.2176  0.2425  0.1850
  238YOPE   C3A 2985  15.513   2.265   8.911 -0.0011  0.4987 -0.0802
  238YOPE   C4A 2986  15.311   2.431   8.634  0.3873  0.3347 -0.1256
  238YOPE   C1B 2987  16.210   1.520   9.662 -0.3719  0.1466 -0.0510
  238YOPE   C2B 2988  16.093   1.397   9.205  0.2508 -0.2233 -0.0799
  238YOPE   D3B 2989  15.890   1.398   8.829 -0.1690  0.0372  0.0589
  238YOPE   C4B 2990  15.526   1.482   8.730  0.4229 -0.0634 -0.0530
  239YOPE   NH3 2991  10.727  14.500  10.192 -0.0324 -0.2563 -0.2863
  239YOPE   PO4 2992  10.770  14.131  10.340 -0.1754  0.3003  0.0393
  239YOPE   GL1 2993  10.892  14.161   9.865  0.3135  0.0429  0.3479
  239YOPE   GL2 2994  11.014  14.416   9.758 -0.2368 -0.2529  0.1703
  239YOPE   C1A 2995  10.790  14.170   9.365  0.0991  0.1154 -0.1230
  239YOPE   D2A 2996  10.727  13.920   8.997  0.0567 -0.0209 -0.0385
  239YOPE   C3A 2997  10.422  13.983   8.667  0.0518  0.4065  0.0123
  239YOPE   C4A 2998  10.356  13.643   8.443 -0.1416 -0.0527 -0.1176
  239YOPE   C1B 2999  11.051  14.575   9.436  0.0662 -0.0874  0.2983
  239YOPE   C2B 3000  10.923  14.468   8.989 -0.2648  0.2812 -0.2502
  239YOPE   D3B 3001  11.130  14.331   8.645 -0.1589 -0.0062  0.2588
  239YOPE   C4B 3002  11.541  14.310   8.323  0.0544 -0.4710  0.2922
  240YOPE   NH3 3003  16.549  17.296  10.756  0.1659  0.3579 -0.3684
  240YOPE   PO4 3004  16.193  17.499  11.004  0.4141  0.1132 -0.0353
  240YOPE   GL1 3005  16.221  17.553  10.530  0.4299 -0.2259  0.1039
  240YOPE   GL2 3006  16.286  17.225  10.293 -0.3422  0.0288 -0.4017
  240YOPE   C1A 3007  16.543  17.577  10.116 -0.1241 -0.0849  0.4273
  240YOPE   D2A 3008  16.443  17.695   9.629 -0.2019 -0.1387 -0.0483
  240YOPE   C3A 3009  16.632  17.747   9.192 -0.1839 -0.2602  0.0404
  240YOPE   C4A 3010  16.836  17.599   8.806  0.0529 -0.1782  0.2074
  240YOPE   C1B 3011  16.222  17.166   9.814 -0.1975  0.1702  0.0127
  240YOPE   C2B 3012  16.177  16.982   9.437 -0.0736  0.2529  0.1638
  240YOPE   D3B 3013  16.185  16.668   9.202 -0.2017 -0.1504  0.0212
  240YOPE   C4B 3014  15.971  16.745   8.849 -0.2191  0.0855  0.4134
  241YOPE   NH3 3015  17.820   2.993  10.378  0.0329  0.1209 -0.1667
  241YOPE   PO4 3016  17.475   3.037  10.438 -0.2430  0.0331 -0.1398
  241YOPE   GL1 3017  17.395   2.797  10.160 -0.1101  0.0769 -0.4288
  241YOPE   GL2 3018  17.477   2.478   9.982  0.3269 -0.0490 -0.0073
  241YOPE   C1A 3019  17.233   2.865   9.712  0.0754  0.1648 -0.3011
  241YOPE   D2A 3020  17.132   2.693   9.385 -0.4556  0.0087  0.0140
  241YOPE   C3A 3021  17.131   2.614   8.974 -0.1771  0.1105  0.0003
  241YOPE   C4A 3022  16.934   2.362   8.676 -0.0324 -0.1520 -0.0370
  241YOPE   C1B 3023  17.240   2.295   9.670 -0.2547 -0.0496 -0.0206
  241YOPE   C2B 3024  17.002   1.974   9.318  0.3601 -0.0392  0.0759
  241YOPE   D3B 3025  16.956   1.934   8.858 -0.0585 -0.0810 -0.0508
  241YOPE   C4B 3026  16.679   1.898   8.466 -0.0700  0.2914 -0.1270
  242YOPE   NH3 3027  14.111   3.361   9.941 -0.3957 -0.0352 -0.1287
  242YOPE   PO4 3028  14.442   3.474  10.071 -0.0105 -0.1788  0.0373
  242YOPE   GL1 3029  14.523   3.207   9.736 -0.1434  0.1250  0.1777
  242YOPE   GL2 3030  14.262   3.061   9.543  0.2363 -0.0709 -0.0634
  242YOPE   C1A 3031  14.743   3.168   9.361  0.1556  0.0089 -0.1101
  242YOPE   D2A 3032  14.817   3.251   8.990  0.1337  0.1271  0.0375
  242YOPE   C3A 3033  15.134   3.208   8.889 -0.0785 -0.1263 -0.0812
  242YOPE   C4A 3034  15.385   3.176   9.231  0.0246 -0.0469  0.2223
  242YOPE   C1B 3035  14.281   3.279   9.141  0.0078  0.2153  0.4662
  242YOPE   C2B 3036  14.309   3.421   8.752 -0.1564  0.1477 -0.1240
  242YOPE   D3B 3037  14.163   3.438   8.373 -0.1353 -0.0691 -0.1710
  242YOPE   C4B 3038  14.022   3.401   8.037  0.1926  0.0106 -0.0058
  243YOPE   NH3 3039   3.364   4.361  10.323  0.1970 -0.4566  0.1863
  243YOPE   PO4 3040   3.039   4.684  10.344  0.0504 -0.0103  0.1322
  243YOPE   GL1 3041   3.200   4.662   9.908  0.0730  0.2438 -0.0070
  243YOPE   GL2 3042   3.143   4.428   9.757  0.3319 -0.0063 -0.2187
  243YOPE   C1A 3043   3.505   4.695   9.536  0.0516 -0.0215  0.0148
  243YOPE   D2A 3044   3.635   4.628   9.120  0.1361  0.1853  0.0916
  243YOPE   C3A 3045   3.971   4.487   9.120 -0.1058  0.1762  0.0292
  243YOPE   C4A 3046   4.411   4.472   9.074 -0.0632 -0.1425 -0.0985
  243YOPE   C1B 3047   2.809   4.672   9.500  0.0472  0.0750  0.0871
  243YOPE   C2B 3048   2.785   4.740   8.945  0.1390 -0.1446  0.0065
  243YOPE   D3B 3049   2.984   4.910   8.484  0.1172  0.0402  0.0187
  243YOPE   C4B 3050   3.160   4.931   8.087  0.2598  0.0277 -0.0784
  244YOPE   NH3 3051   1.275  11.077   9.767  0.0499  0.1623 -0.0450
  244YOPE   PO4 3052   1.230  10.751   9.662  0.0377 -0.2589  0.4743
  244YOPE   GL1 3053   1.402  10.754   9.287  0.2120 -0.0033 -0.0405
  244YOPE   GL2 3054   1.510  11.112   9.326 -0.1661 -0.1713 -0.3012
  244YOPE   C1A 3055   1.282  10.726   8.852  0.0218  0.2159 -0.1709
  244YOPE   D2A 3056   1.263  10.903   8.442  0.0296 -0.1969 -0.1963
  244YOPE   C3A 3057   1.196  10.567   8.202 -0.1223  0.1941  0.0835
  244YOPE   C4A 3058   1.103  10.155   8.095  0.0385  0.3242 -0.1641
  244YOPE   C1B 3059   1.390  11.231   8.866  0.1438 -0.2332 -0.4586
  244YOPE   C2B 3060   1.234  11.529   8.662  0.2435  0.0009  0.0169
  244YOPE   D3B 3061   0.969  11.737   8.408 -0.2158 -0.0446  0.3697
  244YOPE   C4B 3062   0.927  11.820   7.980  0.2963  0.0617 -0.0586
  245YOPE   NH3 3063  10.020   9.832   9.950 -0.0752 -0.0913 -0.1210
  245YOPE   PO4 3064  10.263   9.575  10.022 -0.1024  0.2599  0.2597
  245YOPE   GL1 3065  10.411   9.687   9.642  0.0715 -0.1918 -0.1937
  245YOPE   GL2 3066  10.414  10.062   9.706 -0.1801 -0.2444 -0.0177
  245YOPE   C1A 3067  10.203   9.950   9.272 -0.3248 -0.0101 -0.0324
  245YOPE   D2A 3068  10.270  10.069   8.914 -0.1992  0.2048 -0.0714
  245YOPE   C3A 3069  10.432  10.462   8.728 -0.0518 -0.1082  0.1170
  245YOPE   C4A 3070  10.750  10.432   8.338 -0.0057 -0.0403 -0.2843
  245YOPE   C1B 3071  10.754  10.028   9.259 -0.1604  0.0460 -0.1695
  245YOPE   C2B 3072  10.852  10.232   8.795  0.0797  0.2816 -0.0113
  245YOPE   D3B 3073  11.173  10.391   8.577  0.2968 -0.2262  0.1381
  245YOPE   C4B 3074  11.361  10.432   8.250 -0.3375 -0.2432 -0.2185
  246YOPE   NH3 3075   0.800  12.270  10.231 -0.1257 -0.4696 -0.2233
  246YOPE   PO4 3076   0.908  12.713  10.324 -0.1422 -0.2300 -0.3848
  246YOPE   GL1 3077   0.885  12.884   9.917  0.0250 -0.0796 -0.4301
  246YOPE   GL2 3078   0.727  13.086   9.885  0.0977 -0.3916 -0.1925
  246YOPE   C1A 3079   1.236  13.152   9.692  0.0766 -0.2404 -0.0670
  246YOPE   D2A 3080   1.195  13.394   9.238  0.0529  0.0238  0.1752
  246YOPE   C3A 3081   0.855  13.357   8.879  0.0898  0.3061  0.0883
  246YOPE   C4A 3082   0.460  13.174   8.667 -0.4927  0.0052 -0.2468
  246YOPE   C1B 3083   0.549  12.785   9.524  0.1031 -0.0376  0.1210
  246YOPE   C2B 3084   0.195  12.668   9.208  0.1449  0.2530  0.0875
  246YOPE   D3B 3085   0.097  12.781   8.748 -0.1456 -0.1361  0.2678
  246YOPE   C4B 3086  -0.078  12.866   8.343 -0.2488  0.0028 -0.1475
  247YOPE   NH3 3087  13.943   7.546   9.255 -0.0306  0.0947 -0.0583
  247YOPE   PO4 3088  13.853   7.946   9.475 -0.2220  0.1086  0.2049
  247YOPE   GL1 3089  13.760   7.845   8.941 -0.1189  0.0959 -0.1414
  247YOPE   GL2 3090  13.599   7.454   8.855  0.0827  0.1340  0.0973
  247YOPE   C1A 3091  13.667   7.897   8.497  0.2382 -0.4237 -0.0384
  247YOPE   D2A 3092  13.769   7.985   8.155  0.0351 -0.0775  0.3031
  247YOPE   C3A 3093  13.355   8.038   7.914 -0.0466 -0.1414  0.0956
  247YOPE   C4A 3094  12.955   7.972   7.986 -0.0877 -0.2124  0.2467
  247YOPE   C1B 3095  13.737   7.431   8.447 -0.1021  0.0219  0.2525
  247YOPE   C2B 3096  13.859   7.487   8.039 -0.1478  0.0561 -0.2367
  247YOPE   D3B 3097  13.791   7.342   7.730  0.0114  0.0416  0.1486
  247YOPE   C4B 3098  13.613   7.329   7.314  0.3264  0.1907 -0.2054
  248YOPE   NH3 3099  17.219   0.439  10.989  0.1266  0.1163 -0.3148
  248YOPE   PO4 3100  17.588   0.673  11.112  0.2202  0.1103 -0.1377
  248YOPE   GL1 3101  17.689   0.644  10.527  0.3255  0.3056 -0.2219
  248YOPE   GL2 3102  17.385   0.434  10.491 -0.1154  0.0524  0.1928
  248YOPE   C1A 3103  17.726   0.661  10.047 -0.0457 -0.2736 -0.0721
  248YOPE   D2A 3104  17.898   0.888   9.637 -0.2235  0.0868 -0.1803
  248YOPE   C3A 3105  17.735   0.825   9.236  0.0626  0.2608  0.3642
  248YOPE   C4A 3106  17.778   0.886   8.812 -0.0875 -0.1044 -0.1655
  248YOPE   C1B 3107  16.968   0.479  10.256  0.1579  0.2953 -0.0089
  248YOPE   C2B 3108  17.102   0.425   9.787 -0.1746  0.0911 -0.3528
  248YOPE   D3B 3109  17.284   0.443   9.332 -0.1086  0.0693 -0.1847
  248YOPE   C4B 3110  17.396   0.512   8.880 -0.0250 -0.2864 -0.0697
  249YOPE   NH3 3111   7.104  12.858  10.323  0.0611  0.0559 -0.1759
  249YOPE   PO4 3112   6.966  12.481  10.449  0.3074 -0.2199 -0.2624
  249YOPE   GL1 3113   6.665  12.416  10.153  0.2868  0.1443 -0.0489
  249YOPE   GL2 3114   6.731  12.660   9.888  0.1703 -0.1509  0.0595
  249YOPE   C1A 3115   6.357  12.246   9.851 -0.0575  0.0339 -0.1353
  249YOPE   D2A 3116   6.265  12.170   9.442 -0.3808 -0.0583  0.1831
  249YOPE   C3A 3117   6.236  12.060   9.122 -0.1243 -0.0414 -0.0072
  249YOPE   C4A 3118   6.151  11.894   8.834  0.0573  0.0576  0.1439
  249YOPE   C1B 3119   6.506  12.597   9.542 -0.1119 -0.0066  0.0795
  249YOPE   C2B 3120   6.383  12.537   9.106  0.1403 -0.3138  0.1962
  249YOPE   D3B 3121   6.189  12.625   8.692  0.1276  0.2619 -0.1177
  249YOPE   C4B 3122   6.232  12.834   8.370  0.2863  0.2477  0.2144
  250YOPE   NH3 3123  18.383  16.849  10.866  0.0920 -0.0420  0.0778
  250YOPE   PO4 3124  17.920  16.809  10.912 -0.1834  0.1923 -0.0082
  250YOPE   GL1 3125  17.949  17.094  10.484  0.1443 -0.2010 -0.1315
  250YOPE   GL2 3126  17.736  17.358  10.479  0.1850  0.0092 -0.2167
  250YOPE   C1A 3127  18.001  17.250  10.087  0.3896 -0.2361 -0.1123
  250YOPE   D2A 3128  18.089  17.328   9.634  0.2213 -0.0809  0.3571
  250YOPE   C3A 3129  17.760  17.117   9.312 -0.0657 -0.1914  0.0850
  250YOPE   C4A 3130  17.338  17.190   9.252  0.0949 -0.2293  0.1339
  250YOPE   C1B 3131  17.680  17.582  10.225 -0.0192  0.0058  0.1736
  250YOPE   C2B 3132  17.610  17.733   9.802  0.2618  0.0220 -0.0529
  250YOPE   D3B 3133  17.817  17.668   9.399  0.1843  0.0002 -0.1426
  250YOPE   C4B 3134  18.077  17.471   9.003  0.2302  0.1188  0.1091
  251YOPE   NH3 3135   3.625   2.194  10.469  0.0448 -0.2194  0.1551
  251YOPE   PO4 3136   3.398   2.607  10.475 -0.0461 -0.2068 -0.0770
  251YOPE   GL1 3137   3.386   2.682   9.968 -0.0111  0.0242  0.1750
  251YOPE   GL2 3138   3.160   2.543   9.901 -0.1906  0.2249  0.0603
  251YOPE   C1A 3139   3.473   2.715   9.581  0.1580 -0.2013 -0.0372
  251YOPE   D2A 3140   3.283   2.823   9.180 -0.2297 -0.0730 -0.5480
  251YOPE   C3A 3141   3.480   2.955   8.881 -0.0919  0.1488  0.3492
  251YOPE   C4A 3142   3.830   3.123   8.705  0.1267 -0.0716 -0.2056
  251YOPE   C1B 3143   3.305   2.282   9.626  0.1174 -0.0776 -0.3497
  251YOPE   C2B 3144   3.299   2.284   9.208  0.0156  0.0742 -0.0521
  251YOPE   D3B 3145   3.344   2.448   8.824  0.0033 -0.0668  0.0969
  251YOPE   C4B 3146   3.250   2.397   8.469  0.0933  0.0472 -0.0594
  252YOPE   NH3 3147   0.149   5.706  10.162  0.1795 -0.0839 -0.1528
  252YOPE   PO4 3148   0.107   5.435   9.867 -0.1448  0.2627 -0.4800
  252YOPE   GL1 3149  -0.184   5.332   9.659 -0.0886  0.0063  0.0991
  252YOPE   GL2 3150  -0.014   5.189   9.413  0.1637 -0.4155  0.0726
  252YOPE   C1A 3151  -0.500   5.302   9.275 -0.1826  0.2137 -0.0868
  252YOPE   D2A 3152  -0.549   5.219   8.883  0.2527 -0.0485  0.0414
  252YOPE   C3A 3153  -0.432   5.071   8.508 -0.1054  0.1034  0.2577
  252YOPE   C4A 3154  -0.286   4.768   8.166  0.0495 -0.0299  0.1828
  252YOPE   C1B 3155  -0.071   5.349   9.054  0.0249 -0.1633 -0.0651
  252YOPE   C2B 3156  -0.026   5.464   8.622 -0.2028 -0.0913  0.5156
  252YOPE   D3B 3157   0.180   5.657   8.304  0.0416 -0.0863  0.0441
  252YOPE   C4B 3158   0.619   5.613   8.198 -0.3429 -0.1240 -0.1190
  253YOPE   NH3 3159  12.007   1.703   9.843  0.0410  0.0718 -0.1585
  253YOPE   PO4 3160  11.750   2.153   9.762  0.0215  0.1537 -0.0411
  253YOPE   GL1 3161  11.818   2.076   9.389 -0.0918 -0.1422 -0.0559
  253YOPE   GL2 3162  11.662   2.287   9.205 -0.1360 -0.0692 -0.1111
  253YOPE   C1A 3163  12.114   1.834   9.207 -0.1202 -0.2318 -0.2449
  253YOPE   D2A 3164  12.109   1.710   8.844  0.0416  0.2454 -0.3626
  253YOPE   C3A 3165  11.790   1.961   8.562  0.1450  0.1571 -0.0160
  253YOPE   C4A 3166  11.649   1.970   8.181  0.2679  0.0372  0.1327
  253YOPE   C1B 3167  11.417   2.206   8.825  0.1245  0.3961 -0.1306
  253YOPE   C2B 3168  11.560   2.438   8.470  0.0305 -0.0082 -0.0567
  253YOPE   D3B 3169  11.763   2.446   8.149  0.0453  0.0322  0.6404
  253YOPE   C4B 3170  11.737   2.703   7.818 -0.1829  0.3654 -0.1872
  254YOPE   NH3 3171  13.781   0.427  10.202 -0.0320 -0.1274 -0.1959
  254YOPE   PO4 3172  13.986   0.746  10.348  0.0438  0.0612  0.1781
  254YOPE   GL1 3173  14.212   0.638  10.067  0.0148 -0.0094  0.0461
  254YOPE   GL2 3174  14.199   0.386   9.935  0.0006 -0.1465 -0.2560
  254YOPE   C1A 3175  14.344   0.723   9.654 -0.1630  0.1040  0.2147
  254YOPE   D2A 3176  14.523   0.787   9.297 -0.0186 -0.1669 -0.2466
  254YOPE   C3A 3177  14.262   0.925   9.083 -0.3190  0.1744  0.0998
  254YOPE   C4A 3178  14.113   0.959   8.711  0.0233 -0.1227  0.0444
  254YOPE   C1B 3179  14.270   0.054   9.652 -0.0351 -0.1826 -0.0470
  254YOPE   C2B 3180  14.392  -0.101   9.285 -0.1308 -0.0401  0.1798
  254YOPE   D3B 3181  14.365  -0.299   8.859  0.2841  0.1788 -0.1574
  254YOPE   C4B 3182  14.312  -0.273   8.469 -0.0878  0.1126 -0.0254
  255YOPE   NH3 3183  17.979   5.751  10.006 -0.2180 -0.0311 -0.2346
  255YOPE   PO4 3184  18.257   6.026   9.900 -0.1390 -0.0692  0.1131
  255YOPE   GL1 3185  18.567   5.928   9.644  0.0017  0.1911 -0.1160
  255YOPE   GL2 3186  18.384   5.739   9.400 -0.0389  0.1059  0.0464
  255YOPE   C1A 3187  18.812   5.971   9.286 -0.0476  0.0712 -0.2218
  255YOPE   D2A 3188  19.040   6.142   8.978  0.1096  0.2961  0.0899
  255YOPE   C3A 3189  19.038   6.165   8.490 -0.0263 -0.2759 -0.1952
  255YOPE   C4A 3190  19.427   5.969   8.192  0.3160 -0.1725 -0.2034
  255YOPE   C1B 3191  18.456   5.881   8.934 -0.3159  0.4039 -0.0321
  255YOPE   C2B 3192  18.578   6.098   8.516  0.0719  0.1661  0.3187
  255YOPE   D3B 3193  18.778   6.025   8.022  0.1072 -0.1248  0.2559
  255YOPE   C4B 3194  19.144   6.040   7.735  0.1955  0.0616  0.2007
  256YOPE   NH3 3195   3.535   7.685  10.201 -0.1127  0.0375  0.3104
  256YOPE   PO4 3196   3.265   7.396  10.073  0.0260  0.0520  0.0195
  256YOPE   GL1 3197   3.345   7.172   9.694 -0.0568 -0.3480  0.0427
  256YOPE   GL2 3198   3.577   6.984   9.715  0.3112 -0.0468  0.0792
  256YOPE   C1A 3199   3.640   7.226   9.283 -0.3974  0.1991  0.0263
  256YOPE   D2A 3200   3.388   7.436   8.886  0.0473  0.1436 -0.1496
  256YOPE   C3A 3201   3.423   7.437   8.453 -0.0243 -0.3146  0.0777
  256YOPE   C4A 3202   3.590   7.375   7.997 -0.2735  0.2400  0.0566
  256YOPE   C1B 3203   3.286   6.813   9.412  0.0547 -0.0881  0.0087
  256YOPE   C2B 3204   3.253   6.741   8.933  0.2353 -0.0843  0.0178
  256YOPE   D3B 3205   3.392   6.322   8.741 -0.3303  0.2581  0.0374
  256YOPE   C4B 3206   3.382   6.106   8.443  0.1671  0.0531  0.0982
  257YOPE   NH3 3207  16.993   9.014   9.728 -0.1289  0.1340  0.0447
  257YOPE   PO4 3208  16.948   8.570   9.543 -0.0028 -0.3057 -0.0663
  257YOPE   GL1 3209  17.132   8.915   9.267 -0.0088 -0.0613  0.0286
  257YOPE   GL2 3210  17.520   8.931   9.248 -0.1879  0.5097 -0.3919
  257YOPE   C1A 3211  17.132   9.050   8.872 -0.1795  0.0599  0.0174
  257YOPE   D2A 3212  17.093   8.938   8.390  0.0333 -0.0362  0.0579
  257YOPE   C3A 3213  17.197   9.355   8.092 -0.0710  0.1411 -0.1454
  257YOPE   C4A 3214  17.470   9.548   7.883  0.0062 -0.2360 -0.3954
  257YOPE   C1B 3215  17.600   8.992   8.775 -0.2287 -0.1600 -0.0534
  257YOPE   C2B 3216  17.805   9.257   8.488 -0.3245 -0.1384 -0.1312
  257YOPE   D3B 3217  17.853   9.695   8.365 -0.0120  0.0872 -0.0883
  257YOPE   C4B 3218  18.126   9.734   8.126 -0.1435 -0.0450  0.1167
  258YOPE   NH3 3219   5.931  13.432  10.579  0.0859 -0.0529 -0.2431
  258YOPE   PO4 3220   6.089  13.825  10.625  0.1515 -0.0163  0.0009
  258YOPE   GL1 3221   5.933  13.762  10.221  0.2568 -0.0704 -0.0344
  258YOPE   GL2 3222   5.695  13.651  10.174  0.2584  0.0208  0.0073
  258YOPE   C1A 3223   5.787  14.017   9.886  0.0321  0.0555  0.1860
  258YOPE   D2A 3224   5.788  14.384   9.636  0.0481 -0.1858 -0.1589
  258YOPE   C3A 3225   5.766  14.788   9.670 -0.2562 -0.1546 -0.1331
  258YOPE   C4A 3226   5.886  15.164   9.815  0.0246  0.2340 -0.0451
  258YOPE   C1B 3227   5.278  13.860   9.958 -0.1754  0.3776 -0.3326
  258YOPE   C2B 3228   5.114  13.997   9.498 -0.2360  0.4412  0.0218
  258YOPE   D3B 3229   5.041  14.059   9.031  0.1057  0.1561  0.1549
  258YOPE   C4B 3230   5.115  14.316   8.723  0.0284  0.0413  0.0412
  259YOPE   NH3 3231   2.962  11.175   9.886 -0.0671  0.0622 -0.1327
  259YOPE   PO4 3232   3.419  11.027   9.988 -0.2971 -0.0183 -0.0084
  259YOPE   GL1 3233   3.456  11.402   9.667 -0.1041  0.0841  0.2671
  259YOPE   GL2 3234   3.163  11.573   9.669 -0.1307  0.5291 -0.0415
  259YOPE   C1A 3235   3.529  11.539   9.247  0.1626 -0.1563 -0.5066
  259YOPE   D2A 3236   3.284  11.573   8.900  0.0466  0.0213  0.0676
  259YOPE   C3A 3237   2.937  11.489   9.022 -0.2488  0.3623 -0.1250
  259YOPE   C4A 3238   2.683  11.213   9.315  0.1457  0.2948 -0.1771
  259YOPE   C1B 3239   3.077  11.841   9.379  0.2636 -0.1595 -0.2031
  259YOPE   C2B 3240   3.093  12.014   8.934 -0.1860 -0.2077 -0.1026
  259YOPE   D3B 3241   2.940  11.930   8.602  0.2147  0.1340  0.0867
  259YOPE   C4B 3242   3.015  11.514   8.504  0.0047 -0.1873 -0.1481
  260YOPE   NH3 3243   7.270   6.174  10.325 -0.1213 -0.0727  0.1067
  260YOPE   PO4 3244   7.455   6.516  10.108  0.0009  0.1312  0.1234
  260YOPE   GL1 3245   7.164   6.790   9.815  0.2838  0.0672  0.0551
  260YOPE   GL2 3246   7.022   6.705   9.562  0.0207  0.1154 -0.4171
  260YOPE   C1A 3247   6.918   7.196   9.586  0.1507  0.1215  0.0661
  260YOPE   D2A 3248   6.823   7.176   9.140  0.2097  0.2961  0.0263
  260YOPE   C3A 3249   6.825   7.498   8.824 -0.0970  0.3472  0.2991
  260YOPE   C4A 3250   6.553   7.713   8.475  0.1580  0.2735 -0.1142
  260YOPE   C1B 3251   7.160   6.833   9.209 -0.0257 -0.1691 -0.0390
  260YOPE   C2B 3252   7.046   6.816   8.754  0.0660  0.2612  0.1259
  260YOPE   D3B 3253   6.948   7.110   8.499 -0.0757 -0.4401  0.2461
  260YOPE   C4B 3254   6.900   7.389   8.283 -0.2313 -0.0461 -0.1334
  261YOPE   NH3 3255   7.808   0.289   9.608  0.1073 -0.1137  0.0337
  261YOPE   PO4 3256   8.180   0.243   9.532  0.2499 -0.3643 -0.0710
  261YOPE   GL1 3257   8.154   0.321   9.110 -0.2400  0.2307 -0.0975
  261YOPE   GL2 3258   7.799   0.307   9.086 -0.0721 -0.1680  0.0881
  261YOPE   C1A 3259   8.250   0.383   8.655 -0.0294 -0.1210 -0.1195
  261YOPE   D2A 3260   8.422   0.519   8.364 -0.1940 -0.3915 -0.1494
  261YOPE   C3A 3261   8.428   0.268   8.110 -0.1060 -0.1702 -0.1926
  261YOPE   C4A 3262   8.430   0.267   7.669  0.0839 -0.0785  0.0942
  261YOPE   C1B 3263   7.732   0.281   8.583  0.0721  0.0316 -0.3367
  261YOPE   C2B 3264   7.911   0.479   8.170 -0.0651  0.0734  0.0963
  261YOPE   D3B 3265   8.154   0.752   7.988 -0.0831  0.1240  0.0767
  261YOPE   C4B 3266   8.062   0.953   7.621 -0.1368  0.2663 -0.1769
  262YOPE   NH3 3267  17.489   5.088  10.423  0.2719 -0.2046  0.0058
  262YOPE   PO4 3268  17.107   5.420  10.319  0.1557  0.0346  0.0770
  262YOPE   GL1 3269  17.005   5.313   9.937 -0.1362  0.2055 -0.0664
  262YOPE   GL2 3270  16.780   5.165   9.866  0.0669  0.2892 -0.0560
  262YOPE   C1A 3271  17.111   4.919   9.621  0.2261  0.2568  0.1710
  262YOPE   D2A 3272  17.103   4.724   9.155 -0.3103 -0.1197  0.0752
  262YOPE   C3A 3273  16.982   4.773   8.770 -0.2414 -0.3311 -0.2656
  262YOPE   C4A 3274  16.974   4.880   8.372 -0.1508  0.1233 -0.1007
  262YOPE   C1B 3275  16.538   5.019   9.505 -0.1108 -0.0763 -0.0694
  262YOPE   C2B 3276  16.544   4.863   9.069  0.2536 -0.1097 -0.0979
  262YOPE   D3B 3277  16.507   4.697   8.615  0.1906  0.0427  0.2025
  262YOPE   C4B 3278  16.480   4.472   8.185 -0.0099  0.1139 -0.1241
  263YOPE   NH3 3279  12.256   4.126  10.059 -0.2666  0.0026 -0.1466
  263YOPE   PO4 3280  12.073   3.760   9.910  0.0136 -0.3440  0.2593
  263YOPE   GL1 3281  12.139   3.963   9.600 -0.1963  0.0464 -0.1070
  263YOPE   GL2 3282  12.436   4.151   9.608  0.0465  0.0959  0.1514
  263YOPE   C1A 3283  12.110   3.971   9.139  0.3846  0.1810  0.4245
  263YOPE   D2A 3284  12.168   4.043   8.677  0.3132  0.0310 -0.0522
  263YOPE   C3A 3285  12.391   3.741   8.397 -0.0603  0.2410 -0.1565
  263YOPE   C4A 3286  12.456   3.620   8.021 -0.1126  0.1479  0.1773
  263YOPE   C1B 3287  12.558   4.024   9.183 -0.1855  0.2300  0.0416
  263YOPE   C2B 3288  12.692   4.010   8.743 -0.1042  0.2082  0.1411
  263YOPE   D3B 3289  12.717   4.100   8.359 -0.0293  0.0896  0.1985
  263YOPE   C4B 3290  12.852   4.118   7.960  0.3008  0.3083 -0.2267
  264YOPE   NH3 3291  15.691   5.252  10.025  0.1390 -0.4028  0.0123
  264YOPE   PO4 3292  15.372   5.555   9.892 -0.0367 -0.0776  0.1395
  264YOPE   GL1 3293  15.638   5.535   9.547  0.0048 -0.2449  0.0588
  264YOPE   GL2 3294  15.822   5.692   9.519 -0.0459 -0.0789 -0.2385
  264YOPE   C1A 3295  15.736   5.424   9.137  0.4824 -0.2310 -0.0708
  264YOPE   D2A 3296  15.747   5.081   8.932  0.1373 -0.1129 -0.1606
  264YOPE   C3A 3297  15.678   5.111   8.503 -0.0463 -0.1513  0.0963
  264YOPE   C4A 3298  15.586   5.173   8.011 -0.1535 -0.0460 -0.0810
  264YOPE   C1B 3299  15.697   5.936   9.100 -0.0348  0.1662  0.1079
  264YOPE   C2B 3300  15.457   6.028   8.693 -0.1656 -0.0119  0.2168
  264YOPE   D3B 3301  15.430   6.201   8.235  0.3468 -0.2064  0.1788
  264YOPE   C4B 3302  15.167   6.384   7.973  0.2897  0.0400 -0.1036
  265YOPE   NH3 3303  10.429   0.100  10.082 -0.0436 -0.4777 -0.2472
  265YOPE   PO4 3304  10.852  -0.120  10.206 -0.0852  0.2047 -0.0485
  265YOPE   GL1 3305  10.891  -0.083   9.776 -0.5468 -0.0656 -0.0867
  265YOPE   GL2 3306  10.603   0.055   9.622 -0.0838  0.0271 -0.0221
  265YOPE   C1A 3307  10.873  -0.206   9.289 -0.0111  0.1374  0.4582
  265YOPE   D2A 3308  10.855  -0.227   8.894 -0.1257 -0.1106  0.1113
  265YOPE   C3A 3309  11.173  -0.271   8.537  0.1304 -0.0955 -0.0827
  265YOPE   C4A 3310  11.479  -0.143   8.215  0.0776 -0.0079  0.1795
  265YOPE   C1B 3311  10.451  -0.311   9.533 -0.0575  0.2105 -0.3052
  265YOPE   C2B 3312  10.490  -0.557   9.077 -0.1437 -0.2880 -0.0179
  265YOPE   D3B 3313  10.710  -0.594   8.651  0.2271  0.1388  0.1334
  265YOPE   C4B 3314  10.431  -0.639   8.238  0.2278 -0.1843  0.0477
  266YOPE   NH3 3315   8.748   8.422  10.024  0.1494  0.1168 -0.3942
  266YOPE   PO4 3316   9.202   8.478  10.027 -0.1346 -0.2989 -0.0689
  266YOPE   GL1 3317   9.010   8.296   9.606  0.0217  0.0514  0.0367
  266YOPE   GL2 3318   8.724   8.459   9.469 -0.1295  0.1803 -0.0364
  266YOPE   C1A 3319   9.192   8.145   9.271  0.0074  0.1549 -0.4520
  266YOPE   D2A 3320   9.457   7.814   8.978  0.2155 -0.2049 -0.2371
  266YOPE   C3A 3321   9.333   7.873   8.578  0.0460  0.0729  0.0448
  266YOPE   C4A 3322   8.859   7.823   8.328 -0.1156  0.3256  0.1356
  266YOPE   C1B 3323   8.661   8.159   9.251  0.2492  0.1548  0.2603
  266YOPE   C2B 3324   8.906   8.033   8.871 -0.4116  0.0371  0.0960
  266YOPE   D3B 3325   9.275   8.342   8.830  0.0808 -0.0212 -0.1902
  266YOPE   C4B 3326   9.659   8.402   8.592  0.0619  0.1065  0.0127
  267YOPE   NH3 3327   9.426   1.321  10.048 -0.1742 -0.0647 -0.2914
  267YOPE   PO4 3328   9.665   1.685  10.297  0.0576 -0.0113  0.2979
  267YOPE   GL1 3329   9.947   1.454   9.981 -0.1903  0.1821  0.2288
  267YOPE   GL2 3330  10.281   1.491   9.812 -0.0140 -0.0490  0.3331
  267YOPE   C1A 3331   9.889   1.151   9.617  0.2245 -0.0779  0.2887
  267YOPE   D2A 3332   9.883   0.860   9.313 -0.0087 -0.0114  0.1236
  267YOPE   C3A 3333   9.753   0.512   9.149 -0.0461  0.2039 -0.0309
  267YOPE   C4A 3334  10.026   0.175   8.876 -0.3580 -0.2363  0.0611
  267YOPE   C1B 3335  10.208   1.463   9.345 -0.0774  0.1563  0.0991
  267YOPE   C2B 3336  10.031   1.242   9.005 -0.4597  0.1323 -0.0578
  267YOPE   D3B 3337  10.112   1.104   8.631 -0.2984  0.0917  0.2310
  267YOPE   C4B 3338  10.180   0.800   8.192  0.1057  0.0342  0.0753
  268POPC   NC3 3339   5.729  10.336  10.534 -0.0464  0.0365 -0.3840
  268POPC   PO4 3340   5.852  10.316  10.192  0.1596  0.1614  0.1179
  268POPC   GL1 3341   5.791  10.590   9.864 -0.0299  0.3676 -0.1004
  268POPC   GL2 3342   5.593  10.365   9.665 -0.1513  0.0829 -0.1233
  268POPC   C1A 3343   5.970  10.933   9.669  0.0823  0.1247 -0.0410
  268POPC   D2A 3344   5.868  11.337   9.438 -0.3288  0.2882  0.0009
  268POPC   C3A 3345   6.163  11.625   9.373  0.4489  0.2852 -0.0774
  268POPC   C4A 3346   6.483  11.775   9.695  0.1526 -0.1959 -0.0715
  268POPC   C1B 3347   5.549   9.986   9.365 -0.2412 -0.0180  0.0914
  268POPC   C2B 3348   5.625  10.013   8.953  0.1291  0.0615  0.0086
  268POPC   C3B 3349   5.290  10.164   8.811  0.1692 -0.0196 -0.2104
  268POPC   C4B 3350   5.091  10.439   8.492  0.0437  0.0832  0.0901
  269POPC   NC3 3351   0.175   8.695  10.422 -0.1028  0.0551 -0.0709
  269POPC   PO4 3352   0.528   8.591  10.137  0.3810  0.1870 -0.0384
  269POPC   GL1 3353   0.236   8.478   9.836  0.0115 -0.1166  0.3945
  269POPC   GL2 3354   0.143   8.741   9.588 -0.2126 -0.1181 -0.2449
  269POPC   C1A 3355   0.323   8.205   9.468  0.0759 -0.0230 -0.0515
  269POPC   D2A 3356   0.547   7.930   9.340 -0.1533 -0.0589 -0.1579
  269POPC   C3A 3357   0.745   7.880   9.033 -0.0002 -0.0042  0.2021
  269POPC   C4A 3358   0.781   8.060   8.708 -0.0789 -0.0505 -0.1225
  269POPC   C1B 3359   0.201   8.582   9.156 -0.1715  0.2844 -0.2888
  269POPC   C2B 3360   0.421   8.507   8.741  0.1488 -0.0935  0.2055
  269POPC   C3B 3361   0.504   8.380   8.378 -0.0723 -0.0640  0.0487
  269POPC   C4B 3362   0.607   8.082   8.085 -0.0477 -0.0318  0.2303
  270POPC   NC3 3363   9.394   5.392  10.118  0.0328 -0.0892  0.2434
  270POPC   PO4 3364   9.365   4.924  10.083 -0.0386  0.2454 -0.2239
  270POPC   GL1 3365   9.630   5.006   9.755 -0.2027  0.0386 -0.1483
  270POPC   GL2 3366   9.744   5.361   9.792  0.1477  0.2993 -0.3315
  270POPC   C1A 3367   9.746   4.852   9.323 -0.1132  0.2478  0.1615
  270POPC   D2A 3368   9.831   4.843   8.847 -0.0081  0.0758  0.3051
  270POPC   C3A 3369  10.079   4.970   8.439  0.0050 -0.4360  0.0616
  270POPC   C4A 3370  10.068   5.051   8.008  0.0856 -0.0384  0.0783
  270POPC   C1B 3371   9.928   5.310   9.318  0.0950 -0.0049  0.0507
  270POPC   C2B 3372   9.995   5.324   8.993 -0.1291 -0.1687 -0.1339
  270POPC   C3B 3373  10.012   5.487   8.545  0.2500  0.1209 -0.2018
  270POPC   C4B 3374   9.922   5.759   8.152 -0.1478  0.3029 -0.1958
  271POPC   NC3 3375  10.922  17.762  10.370 -0.1253 -0.1620  0.1270
  271POPC   PO4 3376  11.021  17.342  10.120 -0.1800  0.0773  0.3708
  271POPC   GL1 3377  11.409  17.449   9.841 -0.2412 -0.1980 -0.1010
  271POPC   GL2 3378  11.708  17.309   9.990  0.1626  0.0955 -0.0001
  271POPC   C1A 3379  11.584  17.464   9.437 -0.0243  0.1185  0.1262
  271POPC   D2A 3380  11.567  17.414   8.975 -0.1505 -0.1348  0.0004
  271POPC   C3A 3381  11.515  17.080   8.603 -0.1621 -0.0829  0.0898
  271POPC   C4A 3382  11.337  16.753   8.357 -0.0767 -0.0095  0.4066
  271POPC   C1B 3383  11.914  17.239   9.714  0.0759  0.0356  0.4003
  271POPC   C2B 3384  12.061  17.352   9.326  0.3118 -0.0711  0.0919
  271POPC   C3B 3385  12.156  17.431   8.978 -0.1198  0.0021 -0.1443
  271POPC   C4B 3386  11.935  17.406   8.625  0.1368 -0.2199  0.0348
  272POPC   NC3 3387   0.692   7.123   9.882 -0.1744 -0.0733 -0.0473
  272POPC   PO4 3388   0.895   6.683  10.063 -0.2082  0.1049 -0.4127
  272POPC   GL1 3389   0.818   6.613   9.693  0.0219  0.2096 -0.0466
  272POPC   GL2 3390   0.540   6.391   9.563 -0.1815 -0.1707 -0.1989
  272POPC   C1A 3391   1.138   6.730   9.362 -0.0444  0.0249  0.0515
  272POPC   D2A 3392   1.262   7.174   9.314 -0.1110 -0.0573 -0.1342
  272POPC   C3A 3393   1.536   7.216   8.954 -0.0546  0.1484 -0.1923
  272POPC   C4A 3394   1.607   7.161   8.503 -0.0432 -0.0291 -0.2559
  272POPC   C1B 3395   0.310   6.418   9.225 -0.2070 -0.3855 -0.1536
  272POPC   C2B 3396   0.246   6.482   8.866 -0.1079 -0.3194  0.1136
  272POPC   C3B 3397   0.217   6.649   8.593 -0.3452 -0.1563  0.1175
  272POPC   C4B 3398   0.234   6.544   8.248  0.1047  0.2029  0.4051
  273POPC   NC3 3399  13.078   6.086  10.048 -0.0295  0.1066  0.3134
  273POPC   PO4 3400  12.913   6.390   9.668  0.3264 -0.0988 -0.0026
  273POPC   GL1 3401  12.663   6.531   9.373  0.3816 -0.1537  0.2979
  273POPC   GL2 3402  12.443   6.640   9.297 -0.0510  0.1840 -0.1770
  273POPC   C1A 3403  12.526   6.291   8.993  0.1297 -0.5531  0.0670
  273POPC   D2A 3404  12.315   6.408   8.599 -0.0014  0.0330 -0.4495
  273POPC   C3A 3405  12.164   6.224   8.191  0.4154  0.0656  0.3115
  273POPC   C4A 3406  12.075   5.830   8.012 -0.3005  0.0837  0.1700
  273POPC   C1B 3407  12.337   6.793   8.878 -0.0381 -0.2387  0.0149
  273POPC   C2B 3408  12.038   6.861   8.504  0.1446  0.1365  0.3448
  273POPC   C3B 3409  11.690   6.981   8.327 -0.1624 -0.0857 -0.1237
  273POPC   C4B 3410  11.711   7.190   8.070 -0.0566  0.0098 -0.2699
  274POPC   NC3 3411   6.380   5.908   9.988 -0.1956 -0.0951  0.2593
  274POPC   PO4 3412   6.857   5.872  10.034 -0.1294 -0.2597  0.3532
  274POPC   GL1 3413   6.687   6.007   9.604 -0.1235  0.2325 -0.1361
  274POPC   GL2 3414   6.784   6.284   9.563 -0.0457  0.0303 -0.0398
  274POPC   C1A 3415   6.597   5.936   9.231  0.1249  0.1548  0.6179
  274POPC   D2A 3416   6.664   5.913   8.938  0.0113  0.0356 -0.1621
  274POPC   C3A 3417   6.664   5.649   8.545 -0.0772 -0.2595 -0.0499
  274POPC   C4A 3418   6.825   5.749   8.128 -0.1348 -0.2656 -0.3837
  274POPC   C1B 3419   6.851   6.355   9.233  0.0856  0.0478  0.1527
  274POPC   C2B 3420   6.817   6.356   8.858 -0.0150 -0.1411 -0.1017
  274POPC   C3B 3421   6.742   6.294   8.510  0.1361 -0.2225  0.0848
  274POPC   C4B 3422   6.709   6.233   8.032  0.1367  0.0497 -0.1377
  275POPC   NC3 3423   1.217   4.434  10.238 -0.1381  0.0083 -0.1682
  275POPC   PO4 3424   1.227   4.801  10.050 -0.3128  0.1094 -0.1410
  275POPC   GL1 3425   1.475   4.905   9.710 -0.0357  0.0535 -0.0187
  275POPC   GL2 3426   1.405   5.246   9.478 -0.0394 -0.0193 -0.2281
  275POPC   C1A 3427   1.740   4.844   9.312  0.2592  0.0599 -0.2938
  275POPC   D2A 3428   1.939   4.874   8.852  0.1853  0.3871 -0.2106
  275POPC   C3A 3429   1.946   4.527   8.553 -0.2343 -0.2722 -0.2456
  275POPC   C4A 3430   2.193   4.191   8.336 -0.2714  0.0487 -0.1650
  275POPC   C1B 3431   1.658   5.278   9.104  0.0451  0.2226  0.0321
  275POPC   C2B 3432   1.720   5.341   8.785 -0.0410 -0.0654  0.3712
  275POPC   C3B 3433   1.803   5.452   8.430  0.0516  0.0996 -0.0804
  275POPC   C4B 3434   1.872   5.709   8.076  0.0983 -0.0355 -0.0519
  276POPC   NC3 3435   1.939   3.074  10.755  0.0191 -0.0586 -0.0067
  276POPC   PO4 3436   1.864   3.381  10.291  0.0251  0.0689 -0.2260
  276POPC   GL1 3437   1.688   3.253   9.950 -0.0902 -0.0029  0.1871
  276POPC   GL2 3438   1.622   3.506   9.785  0.1571 -0.0711  0.2881
  276POPC   C1A 3439   1.911   2.856   9.674  0.0784 -0.2258  0.0125
  276POPC   D2A 3440   1.735   2.610   9.378  0.1197 -0.0916  0.2980
  276POPC   C3A 3441   1.676   2.498   9.013 -0.2295 -0.0430 -0.0685
  276POPC   C4A 3442   1.641   2.353   8.447 -0.1001  0.0857  0.3722
  276POPC   C1B 3443   1.618   3.252   9.348 -0.0847 -0.1517 -0.1815
  276POPC   C2B 3444   1.811   2.992   9.058 -0.0749  0.0843  0.0826
  276POPC   C3B 3445   1.867   2.870   8.692  0.0061 -0.1564 -0.0537
  276POPC   C4B 3446   2.040   2.878   8.189 -0.1088  0.3204 -0.1734
  277POPC   NC3 3447  12.256  11.161  10.201 -0.0334 -0.0388  0.0825
  277POPC   PO4 3448  12.006  10.801   9.989 -0.1494  0.0439  0.2307
  277POPC   GL1 3449  11.798  10.916   9.648  0.0816  0.1099  0.0926
  277POPC   GL2 3450  11.517  10.811   9.435 -0.1880 -0.3288 -0.2526
  277POPC   C1A 3451  12.056  10.830   9.326 -0.0262  0.0011 -0.0363
  277POPC   D2A 3452  12.002  10.885   8.808  0.1343  0.3923 -0.0938
  277POPC   C3A 3453  12.264  10.704   8.654  0.1158  0.0629  0.0145
  277POPC   C4A 3454  12.572  10.623   8.350 -0.0657  0.0701  0.1643
  277POPC   C1B 3455  11.503  10.795   9.022  0.1052 -0.0071 -0.1809
  277POPC   C2B 3456  11.459  10.774   8.654  0.1952 -0.0890  0.0326
  277POPC   C3B 3457  11.166  10.912   8.278  0.0902  0.1526  0.4093
  277POPC   C4B 3458  10.986  10.761   7.904 -0.2254 -0.0684  0.2529
  278POPC   NC3 3459  17.077   5.817   9.988  0.0973 -0.1134 -0.2267
  278POPC   PO4 3460  16.640   6.075   9.820  0.2156 -0.1995  0.1783
  278POPC   GL1 3461  16.528   6.175   9.353  0.1042 -0.2768 -0.3716
  278POPC   GL2 3462  16.359   5.961   9.265  0.0733  0.0159 -0.0372
  278POPC   C1A 3463  16.657   6.029   8.881 -0.0477 -0.0691  0.0773
  278POPC   D2A 3464  16.446   5.732   8.686  0.1526 -0.1542 -0.3223
  278POPC   C3A 3465  16.316   5.601   8.259 -0.2154  0.0552 -0.1068
  278POPC   C4A 3466  16.075   5.358   7.980  0.2085  0.1836  0.0338
  278POPC   C1B 3467  16.180   5.696   9.165  0.1578 -0.2560 -0.0687
  278POPC   C2B 3468  16.195   5.267   9.073  0.3215  0.1520 -0.0073
  278POPC   C3B 3469  16.184   5.140   8.614 -0.1287 -0.1759 -0.0591
  278POPC   C4B 3470  16.479   5.144   8.308  0.0358  0.1218  0.1267
  279POPC   NC3 3471  11.438   0.155  10.005 -0.1585 -0.0249 -0.0887
  279POPC   PO4 3472  11.801  -0.159   9.865 -0.2642 -0.2477  0.2426
  279POPC   GL1 3473  11.979  -0.065   9.493 -0.0836  0.3186  0.0417
  279POPC   GL2 3474  11.830   0.227   9.311  0.0468  0.0381  0.2393
  279POPC   C1A 3475  12.071  -0.084   9.062  0.0970 -0.2349  0.0768
  279POPC   D2A 3476  12.159  -0.043   8.691  0.0166 -0.2877 -0.2683
  279POPC   C3A 3477  12.491  -0.277   8.536 -0.0175  0.1549 -0.0435
  279POPC   C4A 3478  12.874  -0.526   8.368  0.2017 -0.0531 -0.1786
  279POPC   C1B 3479  12.016   0.387   8.908 -0.0693  0.3822 -0.0800
  279POPC   C2B 3480  12.404   0.517   8.736 -0.1825  0.3589 -0.0994
  279POPC   C3B 3481  12.855   0.621   8.481  0.2217  0.0035  0.0665
  279POPC   C4B 3482  13.268   0.711   8.489 -0.3562  0.1294 -0.0744
  280POPC   NC3 3483   1.652  13.667  10.506  0.2356  0.0165 -0.0268
  280POPC   PO4 3484   1.699  14.124  10.591  0.1303 -0.1330  0.0138
  280POPC   GL1 3485   1.765  14.215  10.111  0.1284  0.2444  0.0898
  280POPC   GL2 3486   1.801  13.885  10.106  0.1381 -0.0500  0.0465
  280POPC   C1A 3487   2.150  14.524   9.904  0.1445 -0.0311  0.0867
  280POPC   D2A 3488   2.546  14.834   9.888 -0.1857 -0.1463 -0.0609
  280POPC   C3A 3489   2.690  14.772   9.444 -0.1036 -0.3143  0.0715
  280POPC   C4A 3490   2.662  14.793   9.090  0.0242 -0.1676  0.1831
  280POPC   C1B 3491   1.474  13.966   9.790  0.1095 -0.0425 -0.5812
  280POPC   C2B 3492   1.273  14.140   9.491 -0.1749 -0.0263 -0.0465
  280POPC   C3B 3493   1.016  14.287   9.093 -0.0047  0.0377  0.1431
  280POPC   C4B 3494   0.718  14.130   8.802 -0.0588  0.0142  0.1529
  281POPC   NC3 3495   2.461  16.088  10.589  0.0601  0.3049 -0.0523
  281POPC   PO4 3496   2.494  16.426  10.350  0.1882 -0.1154  0.5288
  281POPC   GL1 3497   2.294  16.308  10.003  0.3495 -0.1833  0.0246
  281POPC   GL2 3498   1.927  16.220   9.957 -0.2290  0.1368 -0.1174
  281POPC   C1A 3499   2.361  16.315   9.586 -0.2493  0.1187 -0.0847
  281POPC   D2A 3500   2.410  16.125   9.185  0.0534 -0.1023  0.2715
  281POPC   C3A 3501   2.820  15.965   9.120  0.4731  0.1031 -0.2138
  281POPC   C4A 3502   3.169  16.048   9.290  0.0307  0.0474 -0.1437
  281POPC   C1B 3503   1.737  16.100   9.551 -0.0182 -0.0264 -0.2292
  281POPC   C2B 3504   1.505  16.237   9.198  0.3307 -0.1960  0.0474
  281POPC   C3B 3505   1.197  16.317   8.924 -0.2804 -0.0192 -0.1441
  281POPC   C4B 3506   1.071  16.280   8.578  0.2170  0.1924  0.1464
  282POPC   NC3 3507  14.040  11.681  10.522  0.0250  0.1747 -0.0158
  282POPC   PO4 3508  13.541  11.745  10.517 -0.1693 -0.4036 -0.2841
  282POPC   GL1 3509  13.521  11.972  10.089  0.0915  0.2370 -0.1644
  282POPC   GL2 3510  13.188  12.182  10.175  0.2467 -0.0984 -0.2468
  282POPC   C1A 3511  13.814  12.131   9.771  0.0095  0.1399  0.0897
  282POPC   D2A 3512  13.792  12.268   9.443 -0.0061  0.0966  0.5374
  282POPC   C3A 3513  13.838  12.139   9.069 -0.1931 -0.0077 -0.1280
  282POPC   C4A 3514  13.660  12.322   8.634  0.1287 -0.3046  0.1443
  282POPC   C1B 3515  13.442  12.424   9.943 -0.0934 -0.3646  0.1187
  282POPC   C2B 3516  13.396  12.523   9.589 -0.1236  0.1301 -0.2313
  282POPC   C3B 3517  13.452  12.534   9.100 -0.0557 -0.3281 -0.1994
  282POPC   C4B 3518  13.585  12.787   8.816  0.0644 -0.0743  0.2230
  283POPC   NC3 3519   6.347  14.642  10.526 -0.2011 -0.0009  0.0354
  283POPC   PO4 3520   6.336  14.952  10.658  0.1691 -0.1377 -0.0992
  283POPC   GL1 3521   6.000  14.942  10.219 -0.1082 -0.1889  0.1715
  283POPC   GL2 3522   6.112  14.685  10.041 -0.0750 -0.1612  0.1977
  283POPC   C1A 3523   5.643  14.867  10.154 -0.0038  0.1134 -0.0473
  283POPC   D2A 3524   5.197  14.833  10.329 -0.2333  0.2352  0.3226
  283POPC   C3A 3525   4.909  14.642  10.038 -0.0825 -0.0314  0.2193
  283POPC   C4A 3526   4.689  14.708   9.717 -0.1878  0.0892 -0.0011
  283POPC   C1B 3527   6.512  14.483   9.686 -0.2414 -0.2209 -0.1229
  283POPC   C2B 3528   6.469  14.380   9.306 -0.1933 -0.2050 -0.2882
  283POPC   C3B 3529   6.179  14.275   9.067 -0.0607 -0.1591  0.2523
  283POPC   C4B 3530   5.787  14.196   8.787  0.1111  0.0125  0.0777
  284POPC   NC3 3531  18.000  11.529  10.354  0.0152 -0.3209 -0.3991
  284POPC   PO4 3532  18.044  11.038  10.259 -0.0358  0.1629 -0.2214
  284POPC   GL1 3533  18.027  11.007   9.820 -0.0956 -0.2528  0.0754
  284POPC   GL2 3534  17.742  11.195   9.763  0.1619 -0.0429 -0.3359
  284POPC   C1A 3535  18.161  11.115   9.455  0.0503  0.1429 -0.1880
  284POPC   D2A 3536  18.435  11.378   9.021  0.1099  0.1851  0.0282
  284POPC   C3A 3537  18.367  11.723   8.688  0.0274 -0.0217 -0.3457
  284POPC   C4A 3538  18.565  11.880   8.315 -0.5882 -0.0155 -0.1933
  284POPC   C1B 3539  17.837  11.496   9.445  0.0716  0.4391  0.1253
  284POPC   C2B 3540  17.962  11.465   8.985 -0.0997  0.0727 -0.0969
  284POPC   C3B 3541  17.973  11.517   8.476  0.2281 -0.0690  0.0940
  284POPC   C4B 3542  18.212  11.573   8.069 -0.0153  0.0997 -0.2561
  285POPC   NC3 3543  18.028   2.752  10.811 -0.1543  0.0608 -0.2871
  285POPC   PO4 3544  18.299   2.742  10.398  0.2222 -0.1578  0.0105
  285POPC   GL1 3545  18.183   2.908  10.007 -0.2479  0.1186  0.0199
  285POPC   GL2 3546  18.364   2.918   9.548  0.2172  0.0514 -0.0394
  285POPC   C1A 3547  17.869   2.807   9.723 -0.1944 -0.4979  0.2277
  285POPC   D2A 3548  17.623   2.578   9.531 -0.0314  0.1576 -0.2069
  285POPC   C3A 3549  17.446   2.346   9.197  0.0127 -0.2787 -0.2446
  285POPC   C4A 3550  17.568   2.328   8.771 -0.0650  0.2445 -0.0115
  285POPC   C1B 3551  18.423   2.981   9.142  0.3561  0.2730  0.0823
  285POPC   C2B 3552  18.361   3.281   8.812 -0.0086 -0.1481  0.1658
  285POPC   C3B 3553  18.259   3.571   8.507 -0.1072  0.0780 -0.0799
  285POPC   C4B 3554  18.128   3.385   8.173  0.2419 -0.2229  0.0943
  286POPC   NC3 3555   5.986  12.401  10.762 -0.2927  0.2806 -0.0870
  286POPC   PO4 3556   6.252  12.142  10.567 -0.1469 -0.0182 -0.3427
  286POPC   GL1 3557   5.976  12.094  10.186  0.0384 -0.2775 -0.0756
  286POPC   GL2 3558   5.654  12.170  10.187 -0.1199  0.0705 -0.1057
  286POPC   C1A 3559   5.930  11.720   9.847  0.1818  0.1984  0.1735
  286POPC   D2A 3560   5.830  11.962   9.572  0.0584 -0.0518 -0.0069
  286POPC   C3A 3561   5.732  11.780   9.106 -0.5099  0.2194 -0.1681
  286POPC   C4A 3562   5.874  11.421   8.934 -0.1466 -0.0741  0.2329
  286POPC   C1B 3563   5.435  12.258   9.756  0.2028  0.4085  0.0938
  286POPC   C2B 3564   5.081  12.245   9.577  0.2050 -0.2030  0.2593
  286POPC   C3B 3565   4.724  11.939   9.405 -0.2590  0.2123  0.0138
  286POPC   C4B 3566   4.407  11.949   9.136 -0.1347 -0.0963 -0.1261
  287POPC   NC3 3567  15.535   7.001   9.522 -0.0046  0.1654  0.0238
  287POPC   PO4 3568  15.329   7.376   9.483 -0.2925 -0.0117 -0.0839
  287POPC   GL1 3569  15.305   7.274   9.082  0.0935 -0.2240 -0.2554
  287POPC   GL2 3570  15.628   7.310   9.035  0.0993 -0.0573  0.0470
  287POPC   C1A 3571  15.228   7.347   8.626 -0.1368 -0.2587 -0.1718
  287POPC   D2A 3572  15.273   7.463   8.209  0.0116 -0.0610 -0.3510
  287POPC   C3A 3573  15.656   7.212   7.901  0.1435  0.3346 -0.2418
  287POPC   C4A 3574  15.957   6.961   7.743  0.0576  0.0073 -0.0438
  287POPC   C1B 3575  15.632   6.992   8.702 -0.2776 -0.3942 -0.0245
  287POPC   C2B 3576  15.693   6.958   8.324 -0.1972  0.2269  0.2191
  287POPC   C3B 3577  15.617   6.593   7.997  0.0568 -0.1691  0.0824
  287POPC   C4B 3578  15.577   6.310   7.683  0.0035  0.1020  0.0889
  288POPC   NC3 3579   0.354  16.246  11.086  0.2239 -0.1277 -0.1315
  288POPC   PO4 3580  -0.109  16.318  11.019 -0.0834  0.1268 -0.3305
  288POPC   GL1 3581  -0.277  16.341  10.683 -0.0626 -0.4252 -0.2712
  288POPC   GL2 3582  -0.250  16.635  10.482  0.0442  0.4158  0.0225
  288POPC   C1A 3583  -0.138  16.090  10.412 -0.2174  0.1423 -0.2732
  288POPC   D2A 3584  -0.267  15.866   9.853 -0.3283 -0.4200 -0.0144
  288POPC   C3A 3585   0.062  15.694   9.622 -0.1119  0.1430 -0.1258
  288POPC   C4A 3586   0.322  15.508   9.332  0.1069 -0.3590  0.3307
  288POPC   C1B 3587   0.100  16.566  10.326 -0.1404 -0.3356 -0.1121
  288POPC   C2B 3588   0.207  16.656   9.936  0.0322 -0.3330 -0.0344
  288POPC   C3B 3589   0.354  16.816   9.533 -0.0654  0.1257  0.1506
  288POPC   C4B 3590   0.526  16.875   9.113  0.0627 -0.0944 -0.1936
  289POPC   NC3 3591  15.281  13.200  10.924  0.3427 -0.1881 -0.1969
  289POPC   PO4 3592  15.705  13.107  10.628 -0.0261 -0.1525  0.1845
  289POPC   GL1 3593  15.885  13.002  10.316 -0.0467 -0.3235  0.1489
  289POPC   GL2 3594  16.220  13.126  10.313  0.0380  0.2478  0.0911
  289POPC   C1A 3595  15.844  12.947   9.929 -0.1274 -0.0071 -0.0619
  289POPC   D2A 3596  15.672  12.593   9.765 -0.0475 -0.1052  0.0996
  289POPC   C3A 3597  15.736  12.723   9.273  0.3141 -0.0716 -0.0702
  289POPC   C4A 3598  15.973  12.721   8.881 -0.2496  0.1839 -0.1448
  289POPC   C1B 3599  16.107  13.317   9.845  0.0048 -0.0518 -0.1925
  289POPC   C2B 3600  15.846  13.161   9.429 -0.1829  0.1092  0.2955
  289POPC   C3B 3601  15.772  13.120   9.042 -0.2139  0.0783  0.0621
  289POPC   C4B 3602  15.480  13.390   8.730 -0.2016 -0.0517  0.1825
  290POPC   NC3 3603   3.080  15.510  11.068  0.3037 -0.3199  0.1836
  290POPC   PO4 3604   2.742  15.722  10.787 -0.1060  0.0383 -0.3549
  290POPC   GL1 3605   2.599  15.731  10.268 -0.0218  0.2410  0.0835
  290POPC   GL2 3606   2.699  16.001  10.114  0.0561  0.1533 -0.0787
  290POPC   C1A 3607   2.348  15.827   9.834  0.1192 -0.2376 -0.0400
  290POPC   D2A 3608   2.078  15.729   9.656  0.3616 -0.0540 -0.0497
  290POPC   C3A 3609   1.906  15.326   9.395  0.0005  0.3291 -0.2311
  290POPC   C4A 3610   2.032  15.010   9.039 -0.1950 -0.0824 -0.1213
  290POPC   C1B 3611   2.812  16.156   9.671 -0.2542 -0.0530 -0.0485
  290POPC   C2B 3612   2.825  16.390   9.344 -0.0314 -0.0029 -0.0215
  290POPC   C3B 3613   2.932  16.421   8.976  0.1864  0.2573  0.4777
  290POPC   C4B 3614   3.004  16.463   8.515 -0.1278 -0.2171  0.0348
  291POPC   NC3 3615  10.707   2.466  10.070 -0.1689 -0.1021 -0.0902
  291POPC   PO4 3616  10.805   2.876  10.190  0.2086 -0.0916 -0.3216
  291POPC   GL1 3617  10.914   3.050   9.811  0.0350 -0.0404  0.1125
  291POPC   GL2 3618  10.649   2.831   9.645  0.2216 -0.0222  0.0263
  291POPC   C1A 3619  10.857   3.208   9.359 -0.2231  0.0438 -0.1483
  291POPC   D2A 3620  10.664   3.270   8.943  0.1376 -0.3981 -0.3752
  291POPC   C3A 3621  10.524   3.611   8.681  0.1266 -0.0280  0.1947
  291POPC   C4A 3622  10.466   3.625   8.280  0.5301 -0.0553 -0.0164
  291POPC   C1B 3623  10.406   3.010   9.335 -0.2917 -0.2383  0.1200
  291POPC   C2B 3624  10.345   2.858   8.874 -0.2510 -0.0455  0.1608
  291POPC   C3B 3625  10.174   3.126   8.541 -0.0146 -0.3165  0.1018
  291POPC   C4B 3626   9.784   3.179   8.274 -0.0695 -0.2458  0.2434
  292POPC   NC3 3627  12.650  10.226  10.355 -0.1426 -0.1798 -0.0685
  292POPC   PO4 3628  12.384  10.012  10.109  0.0583 -0.0451 -0.2375
  292POPC   GL1 3629  12.403   9.857   9.663 -0.1653  0.0632 -0.0195
  292POPC   GL2 3630  12.118   9.910   9.502  0.3945 -0.1062 -0.0123
  292POPC   C1A 3631  12.597   9.584   9.368  0.2020 -0.0792 -0.0231
  292POPC   D2A 3632  12.751   9.202   8.996  0.1440 -0.1138 -0.1970
  292POPC   C3A 3633  12.837   8.851   9.038 -0.1628  0.0376  0.2726
  292POPC   C4A 3634  12.624   8.543   9.272 -0.0228 -0.1515  0.1078
  292POPC   C1B 3635  12.225   9.825   9.119  0.2021  0.0730  0.4470
  292POPC   C2B 3636  12.159   9.916   8.649 -0.2826 -0.1667 -0.3197
  292POPC   C3B 3637  12.218  10.231   8.333 -0.2370  0.0506 -0.0735
  292POPC   C4B 3638  12.269  10.188   7.890  0.0969 -0.0589  0.4587
  293POPC   NC3 3639  18.045  10.150  10.610  0.0376 -0.0505  0.0477
  293POPC   PO4 3640  18.037  10.535  10.391 -0.0627  0.2669 -0.0671
  293POPC   GL1 3641  17.914  10.494   9.950  0.1513 -0.1369  0.3406
  293POPC   GL2 3642  18.007  10.203   9.703 -0.2272  0.0870  0.3419
  293POPC   C1A 3643  17.777  10.739   9.497  0.0521  0.0111 -0.1757
  293POPC   D2A 3644  17.620  11.027   9.210  0.0033  0.0613 -0.0016
  293POPC   C3A 3645  17.759  11.063   8.762 -0.1799 -0.0801 -0.0246
  293POPC   C4A 3646  17.610  11.106   8.342 -0.2174  0.0799 -0.0782
  293POPC   C1B 3647  17.882  10.276   9.318  0.0331 -0.0333  0.0285
  293POPC   C2B 3648  17.671  10.416   8.952  0.1272 -0.0722 -0.3391
  293POPC   C3B 3649  17.652  10.604   8.557 -0.1616  0.2956 -0.1963
  293POPC   C4B 3650  17.625  10.553   8.193  0.0348  0.0971 -0.0044
  294POPC   NC3 3651  17.545   9.597  10.083 -0.1260  0.0472 -0.0130
  294POPC   PO4 3652  17.529   9.284   9.709  0.0462 -0.2325 -0.0171
  294POPC   GL1 3653  17.675   9.400   9.330 -0.1289 -0.1053  0.0293
  294POPC   GL2 3654  17.393   9.408   9.141  0.0153 -0.0591 -0.1091
  294POPC   C1A 3655  17.896   9.325   9.027 -0.1130 -0.0836  0.1609
  294POPC   D2A 3656  18.074   9.695   8.823  0.1410 -0.0224 -0.2058
  294POPC   C3A 3657  18.399   9.741   8.608 -0.3294 -0.0451 -0.0874
  294POPC   C4A 3658  18.608   9.803   8.165  0.0588  0.1515 -0.1137
  294POPC   C1B 3659  17.348   9.402   8.678 -0.0091  0.0554  0.2822
  294POPC   C2B 3660  17.370   9.784   8.341  0.1497 -0.0373 -0.0079
  294POPC   C3B 3661  17.507  10.035   8.114 -0.0481  0.0881  0.3395
  294POPC   C4B 3662  17.919  10.158   8.116  0.0376 -0.0520  0.1104
  295POPC   NC3 3663   2.916   3.286  10.560 -0.2742 -0.4179  0.1085
  295POPC   PO4 3664   3.041   3.024  10.202 -0.0095  0.1230 -0.0474
  295POPC   GL1 3665   2.920   3.008   9.829 -0.2172  0.3308 -0.0057
  295POPC   GL2 3666   2.801   3.300   9.736  0.1303 -0.1395  0.0710
  295POPC   C1A 3667   2.893   2.621   9.514 -0.2268 -0.1429  0.1448
  295POPC   D2A 3668   2.813   2.469   9.134 -0.0203  0.1899 -0.1003
  295POPC   C3A 3669   2.950   2.119   8.865 -0.0768 -0.2062 -0.0023
  295POPC   C4A 3670   2.828   1.898   8.507  0.1140 -0.0522  0.0935
  295POPC   C1B 3671   2.730   3.140   9.353 -0.2473  0.3688 -0.1853
  295POPC   C2B 3672   2.814   2.920   9.010  0.0693 -0.2152  0.1136
  295POPC   C3B 3673   3.050   2.803   8.640  0.0119 -0.3269 -0.1862
  295POPC   C4B 3674   3.366   2.882   8.402 -0.1005  0.0250  0.1677
  296POPC   NC3 3675  12.053   2.528   9.930 -0.0044  0.0190  0.0698
  296POPC   PO4 3676  12.455   2.463  10.107  0.0044  0.3296 -0.0896
  296POPC   GL1 3677  12.504   2.552   9.691  0.0172  0.3051 -0.0608
  296POPC   GL2 3678  12.634   2.333   9.433 -0.0054  0.2419 -0.3000
  296POPC   C1A 3679  12.443   2.825   9.358 -0.1366  0.0263 -0.1480
  296POPC   D2A 3680  12.119   3.097   9.082 -0.2751  0.1449 -0.1861
  296POPC   C3A 3681  12.271   2.889   8.819  0.1516  0.0979  0.0558
  296POPC   C4A 3682  12.446   2.739   8.480 -0.2366  0.2431 -0.0030
  296POPC   C1B 3683  12.680   2.519   8.929 -0.1466  0.1633  0.0193
  296POPC   C2B 3684  12.770   2.343   8.517 -0.0542  0.2085  0.3572
  296POPC   C3B 3685  12.650   2.277   8.137  0.0631 -0.0749  0.0269
  296POPC   C4B 3686  12.597   1.912   7.839 -0.0821 -0.0783  0.1779
  297POPC   NC3 3687   4.457  17.074  10.780  0.2954 -0.0085  0.0480
  297POPC   PO4 3688   4.203  16.860  10.504  0.1744  0.0488 -0.1468
  297POPC   GL1 3689   4.244  16.852  10.116  0.2741  0.1384  0.2907
  297POPC   GL2 3690   4.290  17.192  10.131 -0.2210 -0.2304  0.0785
  297POPC   C1A 3691   4.225  16.819   9.717  0.1816  0.1021  0.3195
  297POPC   D2A 3692   4.254  16.763   9.275  0.4252 -0.0641  0.0036
  297POPC   C3A 3693   3.822  16.780   9.002 -0.1378 -0.0748 -0.3099
  297POPC   C4A 3694   3.568  16.912   8.741  0.1317  0.0945  0.0227
  297POPC   C1B 3695   4.478  17.317   9.673  0.2110  0.5963  0.2838
  297POPC   C2B 3696   4.501  17.253   9.296  0.1441 -0.0175  0.3134
  297POPC   C3B 3697   4.456  17.003   8.937 -0.1651 -0.3310 -0.5444
  297POPC   C4B 3698   4.431  16.598   8.836  0.3206  0.0687  0.1525
  298POPC   NC3 3699   7.192   0.025  10.000  0.3866 -0.0424  0.0310
  298POPC   PO4 3700   7.611  -0.119   9.854 -0.0624 -0.0100 -0.1093
  298POPC   GL1 3701   7.892  -0.194   9.605 -0.3611 -0.0198 -0.0441
  298POPC   GL2 3702   8.150  -0.227   9.655 -0.0914 -0.0953 -0.0031
  298POPC   C1A 3703   7.989  -0.291   9.166  0.1995  0.0564 -0.2097
  298POPC   D2A 3704   8.068  -0.083   8.737  0.3422 -0.0611  0.0311
  298POPC   C3A 3705   8.072  -0.054   8.377 -0.3460 -0.1303 -0.0873
  298POPC   C4A 3706   8.177  -0.190   7.965  0.1125 -0.0837  0.0449
  298POPC   C1B 3707   8.322  -0.595   9.446  0.1813  0.0446  0.1056
  298POPC   C2B 3708   8.323  -0.596   8.968  0.2609 -0.0213  0.2778
  298POPC   C3B 3709   8.003  -0.579   8.724  0.3221 -0.1645 -0.0162
  298POPC   C4B 3710   7.614  -0.874   8.622 -0.1123 -0.1232  0.2645
  299POPC   NC3 3711  12.464  18.019  10.378 -0.0732 -0.1680 -0.0504
  299POPC   PO4 3712  12.164  18.147  10.189 -0.1273  0.1390 -0.1122
  299POPC   GL1 3713  12.140  17.726   9.883 -0.3611 -0.1700 -0.0606
  299POPC   GL2 3714  11.968  17.756   9.665 -0.1187  0.1367 -0.0876
  299POPC   C1A 3715  12.468  17.500   9.503 -0.0467 -0.2348  0.1618
  299POPC   D2A 3716  12.731  17.463   8.995  0.2652 -0.1117 -0.1004
  299POPC   C3A 3717  12.534  17.605   8.661 -0.2877  0.2462  0.1384
  299POPC   C4A 3718  12.309  17.665   8.345  0.0372 -0.0818  0.0620
  299POPC   C1B 3719  11.882  17.918   9.257 -0.0066  0.1496 -0.0965
  299POPC   C2B 3720  11.627  17.863   8.834  0.1265 -0.0170 -0.0568
  299POPC   C3B 3721  11.420  17.575   8.485 -0.1548 -0.0820  0.3438
  299POPC   C4B 3722  11.044  17.714   8.307 -0.2298 -0.0583  0.0403
  300POPC   NC3 3723   7.382   3.831   9.757  0.1733 -0.1736  0.0586
  300POPC   PO4 3724   7.502   3.485   9.666 -0.0078  0.0172  0.2805
  300POPC   GL1 3725   7.377   3.344   9.298  0.2826 -0.2600 -0.2671
  300POPC   GL2 3726   7.214   3.664   9.174 -0.1500  0.1846 -0.0518
  300POPC   C1A 3727   7.414   3.129   8.993 -0.0264 -0.1476 -0.1565
  300POPC   D2A 3728   7.386   3.186   8.563 -0.1002  0.0877 -0.2322
  300POPC   C3A 3729   7.454   2.800   8.274  0.0770  0.2545  0.1291
  300POPC   C4A 3730   7.519   2.363   8.362 -0.0256  0.1132  0.0265
  300POPC   C1B 3731   7.276   3.654   8.799 -0.2809  0.1384 -0.0697
  300POPC   C2B 3732   7.089   3.514   8.430  0.0065  0.0019  0.0074
  300POPC   C3B 3733   6.826   3.506   8.112  0.1877  0.2522 -0.0444
  300POPC   C4B 3734   6.408   3.548   7.803  0.0748  0.1406 -0.0117
  301POPC   NC3 3735   8.047  12.323  10.752 -0.0144  0.1442  0.2280
  301POPC   PO4 3736   7.952  12.476  10.233  0.0333 -0.0387 -0.1611
  301POPC   GL1 3737   7.711  12.413   9.873  0.1973 -0.2101  0.1666
  301POPC   GL2 3738   7.570  12.178   9.910 -0.0419  0.0438  0.1403
  301POPC   C1A 3739   7.542  12.535   9.421 -0.2439 -0.3735 -0.0747
  301POPC   D2A 3740   7.285  12.681   9.007 -0.0529  0.1039 -0.2858
  301POPC   C3A 3741   7.338  12.666   8.606 -0.1122  0.2131  0.4183
  301POPC   C4A 3742   7.186  12.365   8.305  0.3017 -0.0721  0.0990
  301POPC   C1B 3743   7.316  12.075   9.605 -0.3773  0.1379  0.0512
  301POPC   C2B 3744   7.264  12.217   9.181  0.2246  0.0990  0.0630
  301POPC   C3B 3745   7.147  12.055   8.836  0.0819  0.1390 -0.4148
  301POPC   C4B 3746   6.931  11.797   8.487  0.2022 -0.2857  0.1932
  302POPC   NC3 3747   5.670   2.292  10.306 -0.2493  0.1393 -0.2774
  302POPC   PO4 3748   6.026   1.839  10.242  0.2593  0.3114 -0.0627
  302POPC   GL1 3749   6.045   1.807   9.868  0.1466  0.1157 -0.1035
  302POPC   GL2 3750   5.975   1.967   9.582  0.0180  0.1021  0.0276
  302POPC   C1A 3751   5.857   1.551   9.400  0.0152 -0.1453  0.1945
  302POPC   D2A 3752   5.705   1.537   8.979  0.1512  0.2373  0.2185
  302POPC   C3A 3753   5.328   1.539   8.745 -0.0070  0.1674 -0.0782
  302POPC   C4A 3754   4.860   1.530   8.783  0.2247 -0.0929  0.0368
  302POPC   C1B 3755   5.739   2.040   9.211 -0.0404  0.1095 -0.0982
  302POPC   C2B 3756   5.275   2.118   9.057  0.0470  0.0249  0.1381
  302POPC   C3B 3757   4.886   2.043   8.889  0.0193 -0.1897  0.0453
  302POPC   C4B 3758   4.401   1.942   8.829 -0.0109 -0.1661  0.1345
  303POPC   NC3 3759   0.628   1.864  10.590 -0.5092  0.0053  0.0925
  303POPC   PO4 3760   0.433   1.987  10.188 -0.2037  0.1467  0.0557
  303POPC   GL1 3761   0.184   2.245   9.915 -0.2922  0.2072 -0.0505
  303POPC   GL2 3762   0.189   2.592   9.918 -0.4346 -0.2894 -0.1512
  303POPC   C1A 3763   0.096   2.129   9.522 -0.0751  0.2645  0.3659
  303POPC   D2A 3764   0.119   2.011   9.134 -0.1265  0.1007  0.2725
  303POPC   C3A 3765  -0.046   1.695   8.936  0.2333  0.0338 -0.0195
  303POPC   C4A 3766  -0.317   1.620   8.544 -0.2553 -0.0817  0.2658
  303POPC   C1B 3767   0.288   2.597   9.375  0.1188 -0.0424  0.0071
  303POPC   C2B 3768   0.236   2.439   8.931  0.0968  0.0857 -0.1485
  303POPC   C3B 3769   0.151   2.470   8.582  0.2157 -0.1114 -0.0412
  303POPC   C4B 3770   0.287   2.548   8.161 -0.1235 -0.0845  0.1273
  304POPC   NC3 3771  12.365  16.012  11.094 -0.1666 -0.0136 -0.0946
  304POPC   PO4 3772  12.751  15.839  10.803 -0.0701  0.1001  0.0620
  304POPC   GL1 3773  12.797  15.667  10.353  0.1596  0.0596  0.0022
  304POPC   GL2 3774  12.905  15.268  10.343 -0.1215  0.0136 -0.1888
  304POPC   C1A 3775  13.001  15.861   9.981 -0.3252  0.1245  0.0511
  304POPC   D2A 3776  13.074  15.695   9.595 -0.0696  0.0602  0.0811
  304POPC   C3A 3777  13.385  15.608   9.387  0.2072  0.0007  0.0027
  304POPC   C4A 3778  13.607  15.390   9.078  0.4661 -0.2318 -0.2448
  304POPC   C1B 3779  12.892  15.060   9.794  0.1876  0.0473  0.0228
  304POPC   C2B 3780  12.973  15.203   9.490  0.0317 -0.0053 -0.0785
  304POPC   C3B 3781  12.968  15.411   9.067 -0.1869  0.1829  0.0667
  304POPC   C4B 3782  13.013  15.483   8.703 -0.2602  0.0529  0.0124
  305POPC   NC3 3783   5.654   8.054  10.310 -0.1774  0.0059 -0.0226
  305POPC   PO4 3784   5.770   8.636  10.228 -0.0700  0.1569  0.0091
  305POPC   GL1 3785   6.168   8.764   9.950  0.0952 -0.0253  0.0573
  305POPC   GL2 3786   6.188   9.040   9.867  0.0346 -0.0400  0.0057
  305POPC   C1A 3787   6.168   8.603   9.520  0.0949  0.1867  0.3402
  305POPC   D2A 3788   5.751   8.543   9.433  0.2040 -0.1359  0.1513
  305POPC   C3A 3789   5.670   8.731   9.027  0.2212  0.0278 -0.2240
  305POPC   C4A 3790   5.608   8.623   8.637  0.0235 -0.2050 -0.2806
  305POPC   C1B 3791   6.130   9.155   9.455  0.0997  0.2743  0.2962
  305POPC   C2B 3792   6.073   9.629   9.280 -0.0650 -0.2590 -0.1125
  305POPC   C3B 3793   6.007   9.650   8.861  0.0317  0.1199 -0.0379
  305POPC   C4B 3794   6.097   9.948   8.486  0.5074  0.4647 -0.3186
  306POPC   NC3 3795   7.145  16.183  10.228  0.1479 -0.2707 -0.0937
  306POPC   PO4 3796   6.714  16.091  10.439  0.2083  0.2930 -0.0123
  306POPC   GL1 3797   6.677  15.954  10.042  0.4138  0.0657 -0.0627
  306POPC   GL2 3798   6.745  16.188   9.903  0.2666  0.0861 -0.3061
  306POPC   C1A 3799   6.414  16.035   9.603 -0.2819  0.0011 -0.0554
  306POPC   D2A 3800   6.149  15.896   9.154 -0.2624 -0.0733  0.4126
  306POPC   C3A 3801   6.150  15.674   8.840 -0.2225  0.1493  0.2311
  306POPC   C4A 3802   6.095  15.852   8.522  0.1424  0.4361 -0.1379
  306POPC   C1B 3803   6.739  16.344   9.475 -0.1735 -0.0802  0.0685
  306POPC   C2B 3804   6.670  16.221   9.104 -0.4754  0.0490 -0.0783
  306POPC   C3B 3805   6.572  16.043   8.749 -0.0587  0.2498  0.1801
  306POPC   C4B 3806   6.624  15.560   8.595  0.0846 -0.0334 -0.1369
  307POPC   NC3 3807   7.493   8.376  10.540  0.0895  0.2747 -0.0913
  307POPC   PO4 3808   7.478   8.059  10.146  0.0684 -0.2919  0.1191
  307POPC   GL1 3809   7.323   8.096   9.730  0.2415  0.0568  0.1703
  307POPC   GL2 3810   6.991   8.082   9.762 -0.1890  0.1941 -0.1388
  307POPC   C1A 3811   7.409   8.230   9.379  0.0578  0.1837 -0.0041
  307POPC   D2A 3812   7.749   8.200   9.267 -0.2212  0.0300 -0.1082
  307POPC   C3A 3813   7.680   8.223   8.912  0.2735 -0.2996 -0.1695
  307POPC   C4A 3814   8.005   8.380   8.561 -0.3862  0.1382  0.3471
  307POPC   C1B 3815   6.928   8.093   9.303  0.2156 -0.0057  0.3004
  307POPC   C2B 3816   6.726   8.016   8.908 -0.1097  0.0147 -0.0561
  307POPC   C3B 3817   6.242   7.965   8.822 -0.0850 -0.0037  0.1235
  307POPC   C4B 3818   6.138   8.006   8.393 -0.0189  0.1875  0.0488
  308YOPC   NC3 3819   8.441  12.331  10.464 -0.0779 -0.1622  0.0069
  308YOPC   PO4 3820   8.877  12.282  10.405  0.0811 -0.0869 -0.1725
  308YOPC   GL1 3821   8.617  12.268   9.922 -0.0451 -0.0142 -0.4043
  308YOPC   GL2 3822   8.293  12.266   9.949  0.2575 -0.0030  0.2196
  308YOPC   C1A 3823   8.690  12.285   9.578  0.0310  0.0067  0.0927
  308YOPC   D2A 3824   8.639  12.452   9.191  0.1419 -0.1781  0.1169
  308YOPC   C3A 3825   8.598  12.347   8.765 -0.0159 -0.3343  0.1080
  308YOPC   C4A 3826   8.506  12.480   8.341 -0.1637  0.0444  0.2952
  308YOPC   C1B 3827   8.171  12.381   9.486 -0.1172 -0.1669  0.0900
  308YOPC   C2B 3828   8.214  12.169   9.061  0.0436  0.1080  0.2135
  308YOPC   D3B 3829   8.151  12.055   8.739  0.0328  0.1004 -0.1373
  308YOPC   C4B 3830   8.000  12.261   8.324  0.2962 -0.2883 -0.1817
  309YOPC   NC3 3831   6.874   1.012  10.236  0.1591  0.0436  0.2490
  309YOPC   PO4 3832   6.684   1.268  10.015  0.1152 -0.1470  0.1509
  309YOPC   GL1 3833   6.460   1.230   9.623  0.1268  0.3116 -0.3042
  309YOPC   GL2 3834   6.738   1.242   9.462  0.0158  0.1965 -0.1022
  309YOPC   C1A 3835   6.210   1.185   9.333 -0.0251  0.0875 -0.2267
  309YOPC   D2A 3836   6.054   1.170   8.903 -0.2691  0.1711  0.2672
  309YOPC   C3A 3837   5.948   1.481   8.560 -0.0613  0.3561  0.3296
  309YOPC   C4A 3838   5.867   1.829   8.266 -0.1371  0.1242  0.0373
  309YOPC   C1B 3839   6.637   1.181   9.047  0.0837 -0.0191  0.0208
  309YOPC   C2B 3840   6.423   1.362   8.664 -0.0631 -0.0310 -0.2437
  309YOPC   D3B 3841   6.120   1.036   8.429  0.0952  0.2118  0.0466
  309YOPC   C4B 3842   5.718   1.024   8.256 -0.2141  0.0524 -0.3469
  310YOPC   NC3 3843   9.755   4.691  10.214  0.1282  0.4113  0.0706
  310YOPC   PO4 3844   9.473   4.475   9.964  0.1609 -0.0904  0.0721
  310YOPC   GL1 3845   9.416   4.493   9.428  0.2666 -0.0897 -0.1010
  310YOPC   GL2 3846   9.034   4.377   9.264 -0.0964 -0.0999  0.1488
  310YOPC   C1A 3847   9.317   4.805   8.978 -0.5179 -0.3042  0.0990
  310YOPC   D2A 3848   9.079   5.026   8.769 -0.3012 -0.0687 -0.1470
  310YOPC   C3A 3849   9.058   5.264   8.457 -0.0391 -0.2090 -0.0746
  310YOPC   C4A 3850   8.950   5.578   8.139 -0.4395 -0.0402 -0.1306
  310YOPC   C1B 3851   9.393   4.290   8.879  0.0381 -0.0047  0.0643
  310YOPC   C2B 3852   9.578   4.419   8.603 -0.1348  0.0743 -0.0397
  310YOPC   D3B 3853   9.480   4.837   8.537 -0.0861  0.0020  0.2100
  310YOPC   C4B 3854   9.642   5.161   8.429 -0.3378 -0.3569 -0.1439
  311YOPC   NC3 3855  16.498  15.564  10.907  0.0280  0.2311  0.1179
  311YOPC   PO4 3856  16.830  15.265  10.973 -0.0742  0.2183  0.2078
  311YOPC   GL1 3857  17.012  15.311  10.498  0.0087 -0.0140  0.1558
  311YOPC   GL2 3858  16.613  15.271  10.487 -0.1227 -0.0013  0.0415
  311YOPC   C1A 3859  16.941  14.957  10.226  0.0197  0.0900  0.2100
  311YOPC   D2A 3860  16.731  14.624   9.997  0.0205 -0.0721  0.5526
  311YOPC   C3A 3861  16.887  14.353   9.760 -0.0776 -0.1062  0.3239
  311YOPC   C4A 3862  17.019  13.918   9.781 -0.0132 -0.1814 -0.0099
  311YOPC   C1B 3863  16.541  15.212  10.021 -0.0829 -0.0771 -0.0880
  311YOPC   C2B 3864  16.651  14.994   9.727  0.0271  0.1326  0.2316
  311YOPC   D3B 3865  16.644  15.086   9.324 -0.0613  0.2472  0.1545
  311YOPC   C4B 3866  17.084  14.991   9.048  0.1546  0.1113  0.0477
  312YOPC   NC3 3867   3.155   9.642   9.839  0.3547 -0.2047  0.2804
  312YOPC   PO4 3868   3.619   9.404   9.877  0.1994 -0.4824  0.0935
  312YOPC   GL1 3869   3.532   9.369   9.467 -0.2123  0.0310  0.1307
  312YOPC   GL2 3870   3.136   9.266   9.346 -0.2537 -0.1225 -0.1542
  312YOPC   C1A 3871   3.536   9.162   9.008  0.0745 -0.0708  0.0102
  312YOPC   D2A 3872   3.355   8.935   8.700  0.1123 -0.0809 -0.2755
  312YOPC   C3A 3873   3.178   8.964   8.264 -0.2224  0.1725 -0.2310
  312YOPC   C4A 3874   3.219   9.183   7.918 -0.2292  0.1502 -0.0621
  312YOPC   C1B 3875   3.233   8.860   9.241  0.1684 -0.0709 -0.1853
  312YOPC   C2B 3876   3.458   8.565   9.062  0.1213 -0.1769 -0.2378
  312YOPC   D3B 3877   3.320   8.485   8.681  0.1548  0.3004 -0.2352
  312YOPC   C4B 3878   3.370   8.482   8.267  0.0478  0.1127  0.0787
  313YOPC   NC3 3879  16.099   6.740   9.697 -0.2533  0.2468 -0.0278
  313YOPC   PO4 3880  16.247   7.113   9.660  0.2667 -0.0158 -0.4185
  313YOPC   GL1 3881  16.297   7.313   9.255  0.1014  0.2148  0.2387
  313YOPC   GL2 3882  16.698   7.280   9.192 -0.1615  0.0257 -0.2233
  313YOPC   C1A 3883  16.189   7.274   8.839 -0.0042  0.1253 -0.1118
  313YOPC   D2A 3884  16.133   6.992   8.647 -0.2194 -0.0732  0.0573
  313YOPC   C3A 3885  16.287   6.931   8.280 -0.0768  0.0419 -0.2898
  313YOPC   C4A 3886  16.320   6.744   7.950 -0.1257 -0.1582 -0.0458
  313YOPC   C1B 3887  16.655   6.925   8.805 -0.0560 -0.0825  0.1419
  313YOPC   C2B 3888  16.501   6.657   8.578 -0.0195  0.2091  0.0455
  313YOPC   D3B 3889  16.730   6.291   8.512 -0.2044  0.2518  0.2135
  313YOPC   C4B 3890  16.701   5.885   8.206 -0.0647  0.1670  0.4209
  314YOPC   NC3 3891  18.148  12.797  10.867 -0.2193  0.1629 -0.0675
  314YOPC   PO4 3892  17.722  12.743  10.744  0.1144 -0.0823  0.1116
  314YOPC   GL1 3893  17.499  12.978  10.442 -0.2133  0.0923  0.1706
  314YOPC   GL2 3894  17.202  13.151  10.508 -0.0990 -0.0543 -0.0028
  314YOPC   C1A 3895  17.608  13.288   9.984  0.2049 -0.0359 -0.2165
  314YOPC   D2A 3896  17.623  13.519   9.550 -0.0787 -0.0757 -0.1851
  314YOPC   C3A 3897  17.310  13.754   9.455 -0.2615  0.1224  0.0299
  314YOPC   C4A 3898  17.150  13.571   9.079  0.0270 -0.0337  0.0915
  314YOPC   C1B 3899  17.133  13.118  10.122  0.0735 -0.3500 -0.1199
  314YOPC   C2B 3900  16.963  13.390   9.862  0.3597  0.3533 -0.0074
  314YOPC   D3B 3901  16.523  13.643  10.035 -0.2475  0.0658  0.1357
  314YOPC   C4B 3902  16.103  13.616  10.271 -0.0292  0.1118 -0.1942
  315YOPC   NC3 3903   1.556   1.881  10.840 -0.3234  0.1112 -0.1313
  315YOPC   PO4 3904   1.799   1.725  10.501 -0.2221  0.1381  0.1680
  315YOPC   GL1 3905   1.625   1.782  10.097 -0.2493 -0.2350 -0.0149
  315YOPC   GL2 3906   1.282   1.833   9.992  0.2623  0.0267  0.1675
  315YOPC   C1A 3907   1.695   1.577   9.740 -0.2312 -0.1206 -0.1373
  315YOPC   D2A 3908   1.675   1.361   9.375 -0.1381 -0.2047 -0.1614
  315YOPC   C3A 3909   1.926   1.486   8.983 -0.1294 -0.0291 -0.0856
  315YOPC   C4A 3910   2.213   1.237   8.656  0.0164  0.0043  0.0120
  315YOPC   C1B 3911   1.336   1.777   9.459 -0.3687  0.2967 -0.4186
  315YOPC   C2B 3912   1.300   1.406   9.103 -0.0295  0.0787 -0.0888
  315YOPC   D3B 3913   1.100   1.510   8.708  0.3122  0.1904 -0.3183
  315YOPC   C4B 3914   0.658   1.704   8.529  0.1554  0.1189 -0.0822
  316YOPC   NC3 3915   4.128   8.531   9.984  0.2211 -0.0003  0.3981
  316YOPC   PO4 3916   4.355   8.854   9.792  0.3608 -0.5088 -0.1842
  316YOPC   GL1 3917   4.411   9.057   9.419  0.0182 -0.0745 -0.3722
  316YOPC   GL2 3918   4.557   9.409   9.532 -0.2800 -0.0685  0.2069
  316YOPC   C1A 3919   4.380   9.039   9.001 -0.4004 -0.1423 -0.1919
  316YOPC   D2A 3920   4.310   9.155   8.523  0.1188 -0.0186  0.0156
  316YOPC   C3A 3921   4.087   9.443   8.318 -0.2496 -0.2234 -0.2762
  316YOPC   C4A 3922   4.235   9.865   8.397 -0.0529  0.2945  0.1504
  316YOPC   C1B 3923   4.811   9.295   9.166 -0.2684 -0.1874 -0.3147
  316YOPC   C2B 3924   4.781   9.263   8.714  0.1811 -0.1027  0.1086
  316YOPC   D3B 3925   4.765   9.679   8.336  0.1962  0.2281  0.1698
  316YOPC   C4B 3926   4.865  10.034   7.944  0.3143  0.4040  0.1047
  317YOPC   NC3 3927  14.418   8.674  10.252 -0.0388  0.2768  0.1496
  317YOPC   PO4 3928  14.712   8.831  10.043 -0.2236  0.2700  0.2495
  317YOPC   GL1 3929  14.876   8.923   9.539 -0.1509 -0.1697 -0.1079
  317YOPC   GL2 3930  14.970   8.707   9.313  0.1061  0.1096  0.0492
  317YOPC   C1A 3931  14.731   9.296   9.344  0.0186  0.3589 -0.1127
  317YOPC   D2A 3932  14.400   9.496   9.459 -0.1553 -0.2901 -0.0558
  317YOPC   C3A 3933  14.334   9.713   9.087  0.3674  0.1713 -0.0754
  317YOPC   C4A 3934  14.523   9.725   8.724  0.0248  0.2797 -0.0873
  317YOPC   C1B 3935  14.841   8.968   8.946 -0.0427  0.1602 -0.3162
  317YOPC   C2B 3936  14.725   9.260   8.608  0.0353 -0.0496  0.1746
  317YOPC   D3B 3937  14.963   9.516   8.394 -0.6118 -0.2340  0.1748
  317YOPC   C4B 3938  15.237   9.728   8.046 -0.0595 -0.0896  0.0375
  318YOPC   NC3 3939   5.939   1.219  10.526 -0.3046 -0.1688 -0.1343
  318YOPC   PO4 3940   5.825   0.923  10.267 -0.2773 -0.1304  0.1286
  318YOPC   GL1 3941   5.517   0.874  10.087 -0.3236  0.1338 -0.0167
  318YOPC   GL2 3942   5.285   0.742  10.199  0.0063 -0.2386  0.1150
  318YOPC   C1A 3943   5.503   0.761   9.640 -0.1891  0.0216  0.2437
  318YOPC   D2A 3944   5.747   0.998   9.238  0.2098 -0.1855 -0.1916
  318YOPC   C3A 3945   5.953   0.712   8.973 -0.1001  0.1600 -0.0950
  318YOPC   C4A 3946   6.090   0.398   8.629 -0.0149  0.3336 -0.0739
  318YOPC   C1B 3947   5.013   1.014   9.909  0.1598 -0.0682 -0.1118
  318YOPC   C2B 3948   4.703   1.179   9.521 -0.2613  0.1108 -0.1061
  318YOPC   D3B 3949   4.699   1.164   9.084 -0.1052 -0.2659 -0.0347
  318YOPC   C4B 3950   4.674   1.010   8.712 -0.0274  0.0298  0.1405
  319YOPC   NC3 3951  12.724  15.363  10.767 -0.1904  0.1032 -0.2770
  319YOPC   PO4 3952  13.193  15.141  10.761 -0.1416  0.0838  0.1235
  319YOPC   GL1 3953  13.457  15.231  10.425  0.1377 -0.2472  0.2046
  319YOPC   GL2 3954  13.346  15.476  10.263  0.1248  0.0170  0.0215
  319YOPC   C1A 3955  13.699  14.983  10.069 -0.1113 -0.0100 -0.0582
  319YOPC   D2A 3956  13.803  14.756   9.850  0.0853 -0.0026 -0.1714
  319YOPC   C3A 3957  13.903  14.866   9.466 -0.1000 -0.0978 -0.0853
  319YOPC   C4A 3958  13.846  15.006   9.036 -0.3221  0.1144  0.1722
  319YOPC   C1B 3959  13.327  15.318   9.931 -0.0039 -0.0713 -0.1769
  319YOPC   C2B 3960  13.467  15.106   9.621 -0.0326 -0.2836 -0.1605
  319YOPC   D3B 3961  13.329  14.958   9.217  0.0154 -0.0106  0.0864
  319YOPC   C4B 3962  13.410  15.048   8.754  0.2007  0.0741  0.1758
  320YOPC   NC3 3963   4.925   6.551   9.788 -0.1610  0.2067  0.2565
  320YOPC   PO4 3964   4.569   6.735  10.024 -0.1474  0.2992 -0.0267
  320YOPC   GL1 3965   4.617   6.941   9.686 -0.1828 -0.1214  0.0053
  320YOPC   GL2 3966   4.898   7.049   9.525  0.1089  0.1460  0.0184
  320YOPC   C1A 3967   4.516   6.976   9.233  0.0809  0.2028 -0.0984
  320YOPC   D2A 3968   4.547   6.986   8.825  0.0584  0.0978 -0.0509
  320YOPC   C3A 3969   4.223   6.813   8.489  0.1280  0.0337 -0.0166
  320YOPC   C4A 3970   4.019   6.593   8.218  0.2397 -0.1294  0.6003
  320YOPC   C1B 3971   5.015   7.127   9.057  0.0088 -0.0387 -0.2406
  320YOPC   C2B 3972   5.065   7.118   8.633 -0.1549  0.1192 -0.1070
  320YOPC   D3B 3973   4.803   7.150   8.374 -0.1043 -0.2928  0.1067
  320YOPC   C4B 3974   4.541   7.242   8.023  0.1140 -0.0027  0.4219
  321YOPC   NC3 3975  16.315  14.669  11.211 -0.0523 -0.0710  0.0871
  321YOPC   PO4 3976  16.581  14.396  10.931 -0.2794 -0.1985 -0.3331
  321YOPC   GL1 3977  16.402  14.151  10.548 -0.2819  0.0782  0.0845
  321YOPC   GL2 3978  16.543  13.802  10.499  0.0403 -0.0192 -0.2748
  321YOPC   C1A 3979  16.516  14.132  10.122 -0.2955  0.2028  0.2313
  321YOPC   D2A 3980  16.529  14.005   9.609  0.1349  0.2315 -0.0465
  321YOPC   C3A 3981  16.330  14.158   9.232  0.0014  0.0254  0.3396
  321YOPC   C4A 3982  16.003  14.027   9.045 -0.1273  0.0176 -0.1359
  321YOPC   C1B 3983  16.929  13.945  10.267 -0.2007  0.3619  0.2796
  321YOPC   C2B 3984  17.031  14.368  10.277 -0.1041  0.2320  0.0630
  321YOPC   D3B 3985  17.294  14.640  10.043 -0.1533 -0.0906 -0.1028
  321YOPC   C4B 3986  17.306  15.114   9.921 -0.1707 -0.0598  0.3093
  322YOPC   NC3 3987  18.065  13.146  10.540 -0.4642 -0.0892  0.2234
  322YOPC   PO4 3988  18.433  13.324  10.364 -0.0641 -0.1244  0.0468
  322YOPC   GL1 3989  18.365  13.639  10.138 -0.0340 -0.3674  0.3103
  322YOPC   GL2 3990  18.484  13.967  10.156 -0.0406  0.0405  0.2916
  322YOPC   C1A 3991  18.594  13.670   9.761  0.0607  0.1417  0.2780
  322YOPC   D2A 3992  18.978  13.642   9.697  0.1787  0.0819 -0.1258
  322YOPC   C3A 3993  19.147  13.254   9.406 -0.1615  0.1670  0.5315
  322YOPC   C4A 3994  19.016  12.980   9.101 -0.0296 -0.0214 -0.0801
  322YOPC   C1B 3995  18.379  14.208   9.801 -0.1889  0.0103 -0.1262
  322YOPC   C2B 3996  18.404  14.372   9.415  0.2246  0.0473  0.0255
  322YOPC   D3B 3997  18.178  14.117   9.106 -0.1125 -0.0865 -0.1187
  322YOPC   C4B 3998  18.360  14.123   8.658  0.0062 -0.0401 -0.0520
  323YOPC   NC3 3999  12.973  11.960  10.613 -0.1510  0.2296 -0.1260
  323YOPC   PO4 4000  12.527  11.966  10.413  0.2067  0.1509  0.2365
  323YOPC   GL1 4001  12.564  11.807  10.074  0.0308  0.0513  0.0871
  323YOPC   GL2 4002  12.256  11.610   9.974 -0.2607  0.2975  0.2917
  323YOPC   C1A 4003  13.033  11.857   9.823 -0.1419  0.2537 -0.0633
  323YOPC   D2A 4004  13.378  12.017   9.570  0.4077 -0.1679 -0.1148
  323YOPC   C3A 4005  13.314  12.022   9.190 -0.0323  0.0863 -0.0625
  323YOPC   C4A 4006  13.427  11.935   8.826  0.2639 -0.0545  0.0419
  323YOPC   C1B 4007  12.485  11.749   9.594 -0.1285  0.0001 -0.0305
  323YOPC   C2B 4008  12.435  11.786   9.223  0.1180  0.0077  0.0693
  323YOPC   D3B 4009  12.460  11.868   8.790  0.2548 -0.0198  0.2810
  323YOPC   C4B 4010  12.355  12.050   8.424  0.2945 -0.0916 -0.0107
  324YOPC   NC3 4011   8.933   6.832  10.147  0.1141  0.1102 -0.0382
  324YOPC   PO4 4012   9.217   6.513  10.124 -0.1145 -0.3021  0.0747
  324YOPC   GL1 4013   9.235   6.567   9.672 -0.2419 -0.2328  0.1733
  324YOPC   GL2 4014   9.116   6.892   9.587 -0.4763  0.0215  0.1150
  324YOPC   C1A 4015   9.272   6.433   9.224 -0.0682  0.0314 -0.2293
  324YOPC   D2A 4016   9.125   6.418   8.868 -0.0507 -0.2307  0.0385
  324YOPC   C3A 4017   9.391   6.322   8.541 -0.3191 -0.2236 -0.0929
  324YOPC   C4A 4018   9.670   6.110   8.345  0.0459 -0.0291  0.0113
  324YOPC   C1B 4019   9.175   6.960   9.119 -0.1959  0.2397 -0.1974
  324YOPC   C2B 4020   9.037   6.924   8.794 -0.1848 -0.0313  0.0492
  324YOPC   D3B 4021   9.180   6.818   8.452 -0.1774 -0.0205  0.1471
  324YOPC   C4B 4022   9.627   6.637   8.161 -0.1696  0.0053  0.0998
  325YOPC   NC3 4023   3.598  15.492  11.245  0.3220  0.2989  0.2053
  325YOPC   PO4 4024   3.512  15.716  10.855  0.0949 -0.2747 -0.2282
  325YOPC   GL1 4025   3.614  16.058  10.480 -0.1465 -0.0763 -0.0224
  325YOPC   GL2 4026   3.517  16.333  10.250  0.2251  0.1581 -0.3157
  325YOPC   C1A 4027   3.627  15.856  10.043 -0.1273 -0.2318 -0.5066
  325YOPC   D2A 4028   3.602  15.473   9.805 -0.1172 -0.3183 -0.2614
  325YOPC   C3A 4029   3.505  15.500   9.448 -0.0832 -0.0731 -0.2985
  325YOPC   C4A 4030   3.148  15.510   9.302  0.2368  0.0997 -0.1237
  325YOPC   C1B 4031   3.714  16.359   9.865  0.1388  0.0459 -0.1281
  325YOPC   C2B 4032   3.900  16.432   9.473 -0.3807 -0.1983 -0.0622
  325YOPC   D3B 4033   3.853  16.210   9.015 -0.0405  0.1365  0.0372
  325YOPC   C4B 4034   3.546  15.960   8.908  0.2538  0.2317 -0.0031
  326YOPC   NC3 4035  11.019   5.181  10.194 -0.3784 -0.0672 -0.0381
  326YOPC   PO4 4036  11.354   5.518  10.370  0.1040 -0.0597  0.0674
  326YOPC   GL1 4037  11.342   5.497   9.975 -0.4061  0.0694 -0.0177
  326YOPC   GL2 4038  11.385   5.203   9.792  0.0444 -0.0202 -0.1937
  326YOPC   C1A 4039  11.128   5.767   9.677 -0.1172 -0.0533 -0.1651
  326YOPC   D2A 4040  10.681   5.674   9.512 -0.2248  0.0690  0.1154
  326YOPC   C3A 4041  10.316   5.991   9.615 -0.1230 -0.1334 -0.2292
  326YOPC   C4A 4042   9.955   5.881   9.648  0.0611  0.2533  0.1067
  326YOPC   C1B 4043  11.371   4.788   9.534  0.0084  0.1007  0.0175
  326YOPC   C2B 4044  11.252   4.534   9.236 -0.0312  0.2170  0.3141
  326YOPC   D3B 4045  11.225   4.533   8.723  0.0424  0.1195 -0.0360
  326YOPC   C4B 4046  10.916   4.381   8.414  0.0238  0.1308  0.0386
  327YOPC   NC3 4047   2.436   7.349  10.425 -0.1178  0.2247  0.0173
  327YOPC   PO4 4048   2.153   6.950  10.468 -0.0812  0.2626 -0.2972
  327YOPC   GL1 4049   1.986   6.885  10.091  0.2453 -0.1713  0.1949
  327YOPC   GL2 4050   2.312   7.024   9.939 -0.2610 -0.1300 -0.1095
  327YOPC   C1A 4051   2.067   6.672   9.678 -0.0066  0.2811  0.2182
  327YOPC   D2A 4052   2.140   6.481   9.320 -0.0739 -0.0809 -0.0012
  327YOPC   C3A 4053   2.100   6.551   8.949 -0.2580  0.3474  0.0630
  327YOPC   C4A 4054   1.961   6.799   8.698  0.0619  0.1379 -0.2586
  327YOPC   C1B 4055   2.183   7.201   9.530 -0.0904 -0.1495  0.4550
  327YOPC   C2B 4056   2.193   6.979   9.249  0.2441  0.1132  0.1068
  327YOPC   D3B 4057   1.720   6.818   9.156 -0.1788  0.0022  0.0520
  327YOPC   C4B 4058   1.309   6.751   8.889  0.2864 -0.2191 -0.1861
  328YOPC   NC3 4059   9.456  10.776   9.919 -0.1141  0.1645 -0.0946
  328YOPC   PO4 4060   9.896  10.867  10.047 -0.0974  0.0306 -0.4881
  328YOPC   GL1 4061   9.882  11.059   9.684  0.3070  0.1545  0.2364
  328YOPC   GL2 4062   9.919  11.413   9.567  0.1508  0.0221 -0.1304
  328YOPC   C1A 4063   9.963  10.968   9.270 -0.0369 -0.7229  0.1256
  328YOPC   D2A 4064  10.070  10.890   8.727  0.0403 -0.2531 -0.1549
  328YOPC   C3A 4065   9.885  10.966   8.354 -0.1685 -0.1066  0.0854
  328YOPC   C4A 4066   9.755  11.258   8.123  0.1617  0.2001  0.0774
  328YOPC   C1B 4067   9.924  11.525   9.115 -0.1048 -0.5355  0.1528
  328YOPC   C2B 4068  10.276  11.716   8.846 -0.0072  0.1216 -0.1171
  328YOPC   D3B 4069  10.267  11.875   8.455  0.2290 -0.0086 -0.1447
  328YOPC   C4B 4070  10.195  12.163   8.239 -0.4939  0.0536 -0.1786
  329YOPC   NC3 4071   0.788   3.438  10.232 -0.2199 -0.3324  0.0710
  329YOPC   PO4 4072   0.340   3.474  10.128 -0.1392 -0.0257 -0.0126
  329YOPC   GL1 4073   0.146   3.259   9.850 -0.1600  0.0950  0.1484
  329YOPC   GL2 4074   0.051   3.482   9.642  0.2842  0.3118 -0.3078
  329YOPC   C1A 4075   0.403   3.139   9.513 -0.0413 -0.1133  0.0139
  329YOPC   D2A 4076   0.489   3.190   9.072  0.0080  0.0724 -0.6113
  329YOPC   C3A 4077   0.356   2.900   8.781 -0.2538 -0.2984  0.1118
  329YOPC   C4A 4078   0.021   2.969   8.370 -0.1895 -0.1800  0.1720
  329YOPC   C1B 4079   0.105   3.663   9.242 -0.1999  0.0782 -0.0732
  329YOPC   C2B 4080   0.194   3.792   8.846  0.0573 -0.0646  0.3647
  329YOPC   D3B 4081   0.467   3.408   8.604  0.1995 -0.0339  0.1034
  329YOPC   C4B 4082   0.637   3.102   8.313 -0.1376  0.0918  0.2826
  330YOPC   NC3 4083  13.645   1.118  10.516 -0.0476  0.1697 -0.0522
  330YOPC   PO4 4084  13.432   0.797  10.362 -0.0345  0.1656 -0.1347
  330YOPC   GL1 4085  13.339   0.506  10.040 -0.0503  0.1931 -0.4280
  330YOPC   GL2 4086  13.046   0.606   9.778  0.0388 -0.0982  0.0871
  330YOPC   C1A 4087  13.329   0.205   9.787  0.0536  0.3850 -0.2133
  330YOPC   D2A 4088  13.231   0.140   9.325  0.1708  0.1128 -0.3618
  330YOPC   C3A 4089  13.314  -0.193   9.056 -0.0496  0.0557 -0.1018
  330YOPC   C4A 4090  13.391  -0.336   8.655  0.0266  0.0382 -0.2035
  330YOPC   C1B 4091  12.968   0.564   9.413  0.1136 -0.3026  0.0170
  330YOPC   C2B 4092  12.964   0.555   8.931  0.2386  0.1034 -0.2154
  330YOPC   D3B 4093  13.266   0.280   8.734 -0.0127 -0.2400 -0.1644
  330YOPC   C4B 4094  13.554   0.135   8.477 -0.0039  0.0145 -0.4856
  331YOPC   NC3 4095   1.685   8.633  10.281  0.3638 -0.1459  0.2924
  331YOPC   PO4 4096   1.540   8.581   9.855  0.2248 -0.0547  0.0296
  331YOPC   GL1 4097   1.500   8.458   9.528 -0.0042  0.1096  0.0026
  331YOPC   GL2 4098   1.553   8.629   9.309  0.1613 -0.1692 -0.2573
  331YOPC   C1A 4099   1.453   8.221   9.077 -0.0370 -0.1245 -0.1056
  331YOPC   D2A 4100   1.265   8.137   8.712 -0.3092  0.0424 -0.1589
  331YOPC   C3A 4101   1.006   8.474   8.513 -0.0324  0.2005 -0.4147
  331YOPC   C4A 4102   0.732   8.841   8.458 -0.1967 -0.2154 -0.1060
  331YOPC   C1B 4103   1.870   8.699   9.123 -0.0524  0.0370  0.0025
  331YOPC   C2B 4104   2.081   8.754   8.643 -0.0398  0.0358 -0.1045
  331YOPC   D3B 4105   1.766   8.854   8.352  0.2085 -0.0926  0.0795
  331YOPC   C4B 4106   1.348   9.020   8.331  0.1061  0.1337  0.2942
  332YOPC   NC3 4107  11.637   5.895  10.120  0.2052 -0.0971 -0.2892
  332YOPC   PO4 4108  11.941   5.956   9.727  0.2973  0.2446 -0.0914
  332YOPC   GL1 4109  11.630   5.700   9.630 -0.0699  0.3104 -0.3455
  332YOPC   GL2 4110  11.827   5.461   9.562 -0.0703 -0.0924 -0.1880
  332YOPC   C1A 4111  11.370   5.469   9.371  0.0256  0.2148 -0.0125
  332YOPC   D2A 4112  11.041   5.650   9.179 -0.0309  0.3675 -0.2301
  332YOPC   C3A 4113  10.975   5.495   8.900 -0.0836 -0.0164  0.0073
  332YOPC   C4A 4114  11.010   5.455   8.489  0.0308  0.3011 -0.1145
  332YOPC   C1B 4115  11.884   5.563   9.132  0.1394  0.1717 -0.1752
  332YOPC   C2B 4116  11.940   5.745   8.684 -0.1078 -0.2097  0.2829
  332YOPC   D3B 4117  11.924   5.496   8.336  0.1467  0.2881 -0.2703
  332YOPC   C4B 4118  11.785   5.432   7.888  0.0895  0.0862  0.2178
  333YOPC   NC3 4119   5.388   5.935  10.286 -0.1279 -0.0726  0.0411
  333YOPC   PO4 4120   5.591   5.541  10.315 -0.1309  0.1004  0.2804
  333YOPC   GL1 4121   5.507   5.610   9.855 -0.1335  0.0902  0.0879
  333YOPC   GL2 4122   5.736   5.644   9.764 -0.2692  0.0188  0.5133
  333YOPC   C1A 4123   5.150   5.901   9.669  0.1548  0.0843  0.1902
  333YOPC   D2A 4124   5.211   6.303   9.382  0.0449  0.0954 -0.1016
  333YOPC   C3A 4125   5.343   6.114   8.880  0.0772 -0.0958  0.0957
  333YOPC   C4A 4126   5.360   6.236   8.516 -0.0565 -0.1957 -0.2234
  333YOPC   C1B 4127   5.545   5.866   9.381 -0.2955 -0.1444  0.1518
  333YOPC   C2B 4128   5.230   5.772   9.201  0.1508  0.1287 -0.0755
  333YOPC   D3B 4129   5.287   5.571   8.782 -0.0370  0.0215 -0.0051
  333YOPC   C4B 4130   5.164   5.750   8.420 -0.1025  0.1100 -0.0706
  334YOPC   NC3 4131  10.632   1.624  10.237 -0.2530  0.1736  0.0803
  334YOPC   PO4 4132  10.863   2.029  10.278  0.1800  0.5411 -0.0566
  334YOPC   GL1 4133  10.808   2.049   9.812 -0.2057  0.0673  0.1354
  334YOPC   GL2 4134  10.853   2.244   9.599 -0.1392  0.0581  0.0171
  334YOPC   C1A 4135  10.611   1.861   9.475 -0.0722 -0.0004  0.1613
  334YOPC   D2A 4136  10.366   2.011   9.085  0.0915 -0.2110  0.1319
  334YOPC   C3A 4137  10.151   1.849   8.878  0.2390 -0.0714  0.3750
  334YOPC   C4A 4138   9.847   2.029   8.549 -0.0032 -0.0175  0.3378
  334YOPC   C1B 4139  10.667   2.498   9.307  0.0992  0.0442  0.0498
  334YOPC   C2B 4140  10.681   2.470   8.850 -0.2863 -0.3600  0.2161
  334YOPC   D3B 4141  10.977   2.463   8.588  0.0740  0.0106  0.5647
  334YOPC   C4B 4142  11.098   2.121   8.280  0.0199  0.0342 -0.1285
  335YOPC   NC3 4143  15.062   1.533  10.334 -0.3121  0.1431 -0.2131
  335YOPC   PO4 4144  14.811   1.206  10.546 -0.1608 -0.0465  0.1472
  335YOPC   GL1 4145  14.908   1.092  10.160 -0.1680 -0.3676  0.0209
  335YOPC   GL2 4146  15.216   1.200   9.943  0.2467 -0.0158 -0.1250
  335YOPC   C1A 4147  14.816   1.318   9.665  0.2391  0.0903  0.0690
  335YOPC   D2A 4148  14.781   1.752   9.500  0.0834 -0.2640  0.0342
  335YOPC   C3A 4149  14.523   1.758   9.207  0.0377  0.1741 -0.0001
  335YOPC   C4A 4150  14.589   1.913   8.764 -0.1830 -0.2234  0.2522
  335YOPC   C1B 4151  15.459   1.224   9.666  0.1930 -0.4365  0.0163
  335YOPC   C2B 4152  15.575   1.178   9.267  0.2747 -0.2345  0.0082
  335YOPC   D3B 4153  15.707   0.854   9.010  0.0898 -0.3978 -0.1010
  335YOPC   C4B 4154  15.943   0.729   8.629  0.0794 -0.0551  0.1572
  336YOPC   NC3 4155   8.277  15.399  10.107 -0.1724  0.0067  0.0094
  336YOPC   PO4 4156   8.418  14.979   9.973 -0.2216  0.1576  0.0367
  336YOPC   GL1 4157   8.607  14.903   9.632  0.1073  0.0060  0.1019
  336YOPC   GL2 4158   8.947  14.782   9.738 -0.0632 -0.0919 -0.2606
  336YOPC   C1A 4159   8.664  14.647   9.269  0.0336 -0.1544  0.0534
  336YOPC   D2A 4160   8.606  14.464   8.933 -0.0307  0.1677  0.1961
  336YOPC   C3A 4161   8.610  14.593   8.495  0.0495  0.2335  0.0963
  336YOPC   C4A 4162   8.860  14.793   8.132 -0.0142  0.1665 -0.1184
  336YOPC   C1B 4163   9.098  14.500   9.386  0.1161 -0.0414  0.2256
  336YOPC   C2B 4164   9.120  14.425   9.041  0.1190  0.0041  0.0469
  336YOPC   D3B 4165   9.020  14.341   8.578  0.3752  0.0298  0.0203
  336YOPC   C4B 4166   8.957  14.122   8.245  0.1751  0.0670 -0.1518
  337YOPC   NC3 4167  13.663   2.271   9.812  0.2193 -0.0956 -0.0070
  337YOPC   PO4 4168  13.524   1.918   9.819  0.1065 -0.1956  0.1598
  337YOPC   GL1 4169  13.509   1.908   9.264  0.1607 -0.1963  0.2597
  337YOPC   GL2 4170  13.666   2.230   9.239  0.0238  0.0030 -0.2272
  337YOPC   C1A 4171  13.734   1.890   8.864  0.3962  0.3808  0.1856
  337YOPC   D2A 4172  13.885   1.708   8.507  0.0938 -0.2660 -0.2551
  337YOPC   C3A 4173  13.924   2.022   8.093  0.3106  0.1528  0.1538
  337YOPC   C4A 4174  13.957   1.956   7.684  0.1546 -0.0088 -0.1288
  337YOPC   C1B 4175  13.801   2.463   8.877 -0.2462 -0.0142 -0.0178
  337YOPC   C2B 4176  13.679   2.792   8.507 -0.2945 -0.0892 -0.2982
  337YOPC   D3B 4177  14.132   2.915   8.382 -0.2810 -0.0588  0.5535
  337YOPC   C4B 4178  14.415   2.711   8.181  0.0241 -0.0655  0.0102
  338YOPC   NC3 4179  16.423  10.281  10.577 -0.0321 -0.1016  0.2969
  338YOPC   PO4 4180  16.665  10.396  10.234  0.0669 -0.2748 -0.0756
  338YOPC   GL1 4181  16.692  10.731   9.968  0.3153  0.1331  0.1215
  338YOPC   GL2 4182  16.776  11.114  10.143  0.0315 -0.0357  0.3144
  338YOPC   C1A 4183  16.684  10.771   9.544 -0.2340 -0.1256  0.1473
  338YOPC   D2A 4184  16.577  10.886   9.085  0.3650  0.0357  0.2953
  338YOPC   C3A 4185  16.352  11.150   9.015  0.1390  0.0640  0.2008
  338YOPC   C4A 4186  16.099  11.255   8.825 -0.0041  0.3811  0.0445
  338YOPC   C1B 4187  16.446  11.130   9.874  0.1591 -0.0436 -0.0401
  338YOPC   C2B 4188  16.382  11.210   9.460  0.0630 -0.3460 -0.2612
  338YOPC   D3B 4189  15.932  11.322   9.241 -0.1972  0.1930  0.0508
  338YOPC   C4B 4190  15.636  11.266   8.975  0.1046  0.2281  0.1849
  339YOPC   NC3 4191   2.877   1.477  10.796  0.0782  0.0113 -0.3578
  339YOPC   PO4 4192   2.521   1.308  10.581  0.0240 -0.2011 -0.0536
  339YOPC   GL1 4193   2.421   1.443  10.109  0.1932  0.5222  0.0313
  339YOPC   GL2 4194   2.062   1.419  10.179 -0.1506 -0.2188 -0.0296
  339YOPC   C1A 4195   2.492   1.181   9.778 -0.0112 -0.3834  0.1672
  339YOPC   D2A 4196   2.743   0.921   9.500 -0.0073  0.0671 -0.2045
  339YOPC   C3A 4197   2.458   0.733   9.197 -0.3044 -0.2793 -0.1903
  339YOPC   C4A 4198   2.103   0.725   8.905  0.1327  0.0305  0.0633
  339YOPC   C1B 4199   2.005   1.197   9.763  0.0535 -0.2035  0.1618
  339YOPC   C2B 4200   1.960   0.978   9.316  0.1421  0.1690  0.3133
  339YOPC   D3B 4201   1.656   1.092   8.954 -0.1109 -0.1282 -0.0687
  339YOPC   C4B 4202   1.323   1.014   8.758  0.1373  0.2389 -0.0084
  340YOPC   NC3 4203  12.063  14.842  11.091 -0.0462  0.2652 -0.2133
  340YOPC   PO4 4204  12.232  14.759  10.719 -0.2645  0.0112 -0.3806
  340YOPC   GL1 4205  12.103  14.802  10.195  0.2333 -0.0187  0.2576
  340YOPC   GL2 4206  12.069  14.501   9.920 -0.1217  0.1422 -0.2193
  340YOPC   C1A 4207  11.898  14.950   9.755 -0.2678  0.1754  0.1845
  340YOPC   D2A 4208  12.088  14.848   9.409  0.1553  0.2915 -0.2714
  340YOPC   C3A 4209  11.702  14.868   9.190  0.1196  0.1225  0.1683
  340YOPC   C4A 4210  11.410  14.587   8.978 -0.2612 -0.3503  0.0489
  340YOPC   C1B 4211  12.238  14.320   9.604  0.1028  0.1540 -0.1033
  340YOPC   C2B 4212  12.350  14.504   9.221 -0.1593 -0.0831 -0.3097
  340YOPC   D3B 4213  12.023  14.560   8.899  0.0881  0.0277  0.1701
  340YOPC   C4B 4214  11.932  14.588   8.490  0.2692 -0.1634  0.3535
  341YOPC   NC3 4215  16.179  15.486  11.526  0.1053  0.0112  0.6831
  341YOPC   PO4 4216  15.975  15.415  11.104  0.2876  0.2821 -0.0368
  341YOPC   GL1 4217  15.972  15.029  10.841 -0.4500 -0.2260  0.0920
  341YOPC   GL2 4218  16.313  14.937  10.745 -0.2357 -0.0947  0.0128
  341YOPC   C1A 4219  15.871  14.778  10.425 -0.1193 -0.3444  0.4501
  341YOPC   D2A 4220  15.673  14.883   9.955  0.0699  0.0679 -0.3394
  341YOPC   C3A 4221  15.747  14.641   9.667 -0.1117 -0.0644 -0.1737
  341YOPC   C4A 4222  15.945  14.420   9.445 -0.2793  0.1176 -0.1565
  341YOPC   C1B 4223  16.357  14.668  10.344  0.1890  0.0889  0.2464
  341YOPC   C2B 4224  16.200  14.636   9.964 -0.2066 -0.0218  0.0762
  341YOPC   D3B 4225  16.398  14.485   9.689 -0.1046  0.1523  0.1831
  341YOPC   C4B 4226  16.643  14.556   9.304 -0.0916  0.1772 -0.0640
  342YOPC   NC3 4227   7.485  11.411  10.470  0.1768  0.2087  0.2430
  342YOPC   PO4 4228   7.527  10.945  10.377 -0.2085 -0.4101 -0.3778
  342YOPC   GL1 4229   7.357  10.771   9.994  0.0283 -0.0573 -0.2110
  342YOPC   GL2 4230   7.062  10.807  10.057  0.0546 -0.1126 -0.3550
  342YOPC   C1A 4231   7.207  10.505   9.615 -0.0611 -0.3100  0.3457
  342YOPC   D2A 4232   7.132  10.631   9.148 -0.0202  0.0537  0.0964
  342YOPC   C3A 4233   7.036  10.610   8.724 -0.2690 -0.0472 -0.0562
  342YOPC   C4A 4234   7.046  10.717   8.198 -0.3230 -0.1296  0.0119
  342YOPC   C1B 4235   6.937  11.195  10.009  0.5424 -0.2483  0.5172
  342YOPC   C2B 4236   6.991  11.579   9.761  0.0659 -0.1047  0.1730
  342YOPC   D3B 4237   6.913  11.361   9.425  0.0559  0.0082 -0.0098
  342YOPC   C4B 4238   6.596  11.271   9.174 -0.1064 -0.1629  0.2318
  343YOPC   NC3 4239   0.422   2.982  10.222  0.0771 -0.0514  0.0801
  343YOPC   PO4 4240   0.882   2.939  10.157  0.4738  0.0334 -0.1992
  343YOPC   GL1 4241   1.017   3.070   9.796 -0.2214 -0.1655  0.0937
  343YOPC   GL2 4242   1.099   3.461   9.661  0.0017 -0.0318  0.1176
  343YOPC   C1A 4243   0.913   3.207   9.294 -0.2612 -0.1677 -0.3052
  343YOPC   D2A 4244   0.954   3.311   8.901 -0.0305  0.0376 -0.0929
  343YOPC   C3A 4245   1.019   3.356   8.442 -0.0877 -0.3559  0.2552
  343YOPC   C4A 4246   0.919   3.503   8.096 -0.1017  0.0820  0.1035
  343YOPC   C1B 4247   1.268   3.570   9.187  0.1050  0.0134  0.0736
  343YOPC   C2B 4248   1.475   3.271   8.883 -0.1616  0.0711  0.2344
  343YOPC   D3B 4249   1.815   3.333   8.502 -0.0630  0.1336 -0.3868
  343YOPC   C4B 4250   2.240   3.288   8.560  0.0950 -0.1069  0.2200
  344YOPC   NC3 4251   2.799   2.577  10.254 -0.2797 -0.0143  0.0108
  344YOPC   PO4 4252   2.346   2.490  10.317 -0.1725 -0.0519 -0.2982
  344YOPC   GL1 4253   2.160   2.523   9.960  0.0036  0.1318 -0.3153
  344YOPC   GL2 4254   2.503   2.634   9.845 -0.2353 -0.0054  0.0466
  344YOPC   C1A 4255   2.143   2.376   9.578 -0.0621 -0.0150  0.0764
  344YOPC   D2A 4256   2.288   2.398   9.229  0.1323  0.1166  0.0132
  344YOPC   C3A 4257   2.116   2.460   8.840  0.1488 -0.2294 -0.0564
  344YOPC   C4A 4258   2.105   2.351   8.414 -0.2628 -0.1267  0.0273
  344YOPC   C1B 4259   2.449   2.789   9.432  0.3856 -0.0297 -0.0343
  344YOPC   C2B 4260   2.306   2.940   9.089 -0.3239  0.0359 -0.4008
  344YOPC   D3B 4261   2.412   2.792   8.603 -0.1696 -0.2936 -0.2030
  344YOPC   C4B 4262   2.478   2.604   8.272 -0.1753  0.1714 -0.1220
  345YOPC   NC3 4263   1.267   8.900  10.709 -0.0786  0.2092  0.3048
  345YOPC   PO4 4264   1.258   8.975  10.241 -0.1508  0.0629 -0.1758
  345YOPC   GL1 4265   1.101   8.982   9.737 -0.0172  0.1784  0.0661
  345YOPC   GL2 4266   0.998   9.183   9.687  0.0628 -0.0611 -0.4198
  345YOPC   C1A 4267   1.237   8.945   9.321  0.1051  0.2036  0.0524
  345YOPC   D2A 4268   1.324   8.887   8.915 -0.3199 -0.1272 -0.0236
  345YOPC   C3A 4269   1.544   8.653   8.804  0.2361  0.4064 -0.0900
  345YOPC   C4A 4270   1.483   8.428   8.437 -0.1555 -0.2603 -0.1535
  345YOPC   C1B 4271   0.849   9.566   9.726 -0.1017 -0.2446 -0.2492
  345YOPC   C2B 4272   0.537   9.808   9.659  0.1695  0.2889 -0.3422
  345YOPC   D3B 4273   0.281   9.511   9.574  0.2546  0.0119  0.1011
  345YOPC   C4B 4274  -0.017   9.229   9.352 -0.0349  0.1730  0.4230
  346YOPC   NC3 4275   9.273  17.609  10.119 -0.2750 -0.1035 -0.4359
  346YOPC   PO4 4276   9.075  17.317  10.304  0.1721  0.1854  0.0773
  346YOPC   GL1 4277   8.831  17.418   9.900 -0.3349 -0.0684 -0.1498
  346YOPC   GL2 4278   9.009  17.253   9.651  0.0497  0.1543 -0.0169
  346YOPC   C1A 4279   8.754  17.696   9.620  0.1203 -0.0338 -0.1618
  346YOPC   D2A 4280   8.832  17.930   9.172  0.0353 -0.2543 -0.0589
  346YOPC   C3A 4281   9.083  17.774   8.838  0.0693 -0.0049  0.3072
  346YOPC   C4A 4282   9.421  17.811   8.565 -0.0715  0.3316 -0.1095
  346YOPC   C1B 4283   9.121  17.465   9.220 -0.0931  0.0888 -0.1428
  346YOPC   C2B 4284   9.266  17.304   8.808  0.0185 -0.4284  0.2043
  346YOPC   D3B 4285   9.091  17.401   8.434  0.1052 -0.0771  0.1090
  346YOPC   C4B 4286   9.117  17.741   8.173 -0.0691  0.0756  0.0108
  347YOPC   NC3 4287   2.588  14.300  11.147 -0.0257 -0.1448 -0.1156
  347YOPC   PO4 4288   2.437  13.890  10.930 -0.2723  0.0561 -0.3968
  347YOPC   GL1 4289   2.666  14.090  10.576  0.2834 -0.0876 -0.1081
  347YOPC   GL2 4290   2.955  13.867  10.420 -0.1284 -0.0670  0.0745
  347YOPC   C1A 4291   2.651  14.271  10.107  0.0462 -0.2318 -0.2664
  347YOPC   D2A 4292   2.746  14.316   9.740 -0.1931 -0.2565  0.0188
  347YOPC   C3A 4293   2.395  14.344   9.416 -0.1623 -0.3271  0.0295
  347YOPC   C4A 4294   2.068  14.520   9.132 -0.0457 -0.0634 -0.1133
  347YOPC   C1B 4295   2.894  13.810   9.874  0.0997 -0.2389  0.1533
  347YOPC   C2B 4296   2.608  13.799   9.610 -0.0728 -0.1982  0.0114
  347YOPC   D3B 4297   2.491  13.848   9.216  0.3681  0.0332  0.1831
  347YOPC   C4B 4298   2.303  13.997   9.015 -0.0600 -0.1214  0.0448
  348YOPC   NC3 4299   6.592  13.749  10.692 -0.2550 -0.0131 -0.0535
  348YOPC   PO4 4300   6.426  13.382  10.488 -0.0318  0.0102  0.0816
  348YOPC   GL1 4301   6.579  13.320  10.074  0.3065  0.0223  0.1554
  348YOPC   GL2 4302   6.416  13.034   9.928 -0.1674 -0.2960 -0.1729
  348YOPC   C1A 4303   6.683  13.543   9.745 -0.0677  0.0048  0.0084
  348YOPC   D2A 4304   6.589  13.894   9.407  0.2606  0.1120  0.1676
  348YOPC   C3A 4305   6.584  13.990   8.997  0.1977 -0.0828  0.2875
  348YOPC   C4A 4306   6.816  14.116   8.703  0.0204 -0.0903  0.1184
  348YOPC   C1B 4307   6.295  13.023   9.495  0.2767  0.0903 -0.3566
  348YOPC   C2B 4308   6.095  12.968   9.117  0.0721 -0.3029  0.0787
  348YOPC   D3B 4309   5.671  12.823   9.055 -0.0707 -0.2090  0.0602
  348YOPC   C4B 4310   5.251  12.764   8.732  0.0718  0.0602 -0.0216
  349YOPC   NC3 4311  15.662   8.593   9.805 -0.1835 -0.1959  0.1704
  349YOPC   PO4 4312  15.392   8.672   9.455  0.0131  0.1675 -0.2529
  349YOPC   GL1 4313  15.339   8.564   9.042  0.1576 -0.4526 -0.2781
  349YOPC   GL2 4314  15.428   8.222   8.980  0.0101 -0.0457 -0.1544
  349YOPC   C1A 4315  15.317   8.776   8.696 -0.0557 -0.0512 -0.1816
  349YOPC   D2A 4316  15.113   8.983   8.476 -0.0950 -0.1331 -0.0469
  349YOPC   C3A 4317  15.035   9.196   8.044  0.0674 -0.1230  0.0472
  349YOPC   C4A 4318  14.876   9.168   7.758 -0.3143  0.0034  0.3566
  349YOPC   C1B 4319  15.442   8.317   8.586 -0.2243 -0.1689  0.1569
  349YOPC   C2B 4320  15.466   8.494   8.289 -0.1121  0.2130  0.0499
  349YOPC   D3B 4321  15.348   8.799   8.001  0.3512 -0.0601  0.1113
  349YOPC   C4B 4322  15.545   8.737   7.629  0.6050 -0.3123  0.0849
  350YOPC   NC3 4323  14.503   1.512  10.228  0.3234 -0.1803 -0.0445
  350YOPC   PO4 4324  14.332   1.112  10.174  0.0845  0.1519 -0.0366
  350YOPC   GL1 4325  14.049   1.072   9.957 -0.1627 -0.0979  0.3753
  350YOPC   GL2 4326  13.674   1.126  10.001  0.1491  0.0713 -0.5508
  350YOPC   C1A 4327  13.940   1.023   9.569  0.1644 -0.1160  0.1610
  350YOPC   D2A 4328  13.769   1.002   9.072  0.0843  0.0996 -0.3613
  350YOPC   C3A 4329  13.586   1.423   8.878 -0.0201  0.3595 -0.0180
  350YOPC   C4A 4330  13.377   1.648   8.461 -0.3377  0.1046 -0.3733
  350YOPC   C1B 4331  13.425   0.954   9.685 -0.1038 -0.2651 -0.1874
  350YOPC   C2B 4332  13.451   0.696   9.432  0.0065 -0.1155 -0.2269
  350YOPC   D3B 4333  13.510   0.508   9.145 -0.1453 -0.0413 -0.1821
  350YOPC   C4B 4334  13.780   0.573   8.778 -0.0335  0.0274  0.0623
  351YOPC   NC3 4335   9.187  11.695  10.274 -0.0199 -0.2131 -0.0219
  351YOPC   PO4 4336   9.022  11.710   9.990  0.0505  0.0588  0.0947
  351YOPC   GL1 4337   9.253  11.609   9.620  0.2107  0.2402 -0.0356
  351YOPC   GL2 4338   9.539  11.825   9.668  0.0725  0.1808 -0.2419
  351YOPC   C1A 4339   9.122  11.627   9.246 -0.0854 -0.3813  0.1995
  351YOPC   D2A 4340   9.020  11.623   8.780  0.0809  0.0158 -0.0019
  351YOPC   C3A 4341   8.931  12.027   8.546 -0.1616 -0.4128  0.3064
  351YOPC   C4A 4342   8.530  11.966   8.262 -0.0636  0.0849 -0.1902
  351YOPC   C1B 4343   9.534  11.892   9.119 -0.0003  0.0709  0.1132
  351YOPC   C2B 4344   9.410  11.918   8.773 -0.1321 -0.0753  0.1983
  351YOPC   D3B 4345   9.791  11.792   8.575  0.2835 -0.4477  0.0092
  351YOPC   C4B 4346  10.021  11.428   8.563 -0.0218 -0.1470 -0.2180
  352YOPC   NC3 4347   8.000  17.141   9.764 -0.0968  0.1501 -0.1448
  352YOPC   PO4 4348   7.632  17.259   9.818  0.0053 -0.2454 -0.1220
  352YOPC   GL1 4349   7.723  17.393   9.499 -0.2357  0.1437  0.0218
  352YOPC   GL2 4350   7.780  17.760   9.512  0.1411 -0.1171  0.2355
  352YOPC   C1A 4351   7.953  17.502   9.119  0.0376 -0.0308 -0.0549
  352YOPC   D2A 4352   8.197  17.346   8.808  0.0464 -0.3624  0.3486
  352YOPC   C3A 4353   8.223  17.270   8.420 -0.2223 -0.1047  0.1958
  352YOPC   C4A 4354   8.584  17.280   8.132  0.1979  0.0705 -0.1796
  352YOPC   C1B 4355   7.514  17.762   9.095 -0.1078 -0.1598 -0.1556
  352YOPC   C2B 4356   7.134  17.629   8.835 -0.1435 -0.0412  0.2033
  352YOPC   D3B 4357   7.166  17.782   8.461  0.0101  0.0999 -0.0819
  352YOPC   C4B 4358   7.237  17.901   8.090 -0.0559  0.2322 -0.0736
  353YOPC   NC3 4359  15.163   8.226   9.388 -0.2435  0.1696 -0.0165
  353YOPC   PO4 4360  14.724   8.082   9.361  0.0273 -0.1109  0.2224
  353YOPC   GL1 4361  14.464   8.382   9.184 -0.1119 -0.2368 -0.0022
  353YOPC   GL2 4362  14.168   8.293   9.328 -0.1634 -0.0706  0.0668
  353YOPC   C1A 4363  14.398   8.634   8.786  0.1007  0.0619  0.2207
  353YOPC   D2A 4364  14.338   8.944   8.485  0.1469  0.3421  0.1167
  353YOPC   C3A 4365  14.224   8.679   8.194  0.1715 -0.1759  0.0515
  353YOPC   C4A 4366  14.168   8.304   7.962  0.0238 -0.1922 -0.0757
  353YOPC   C1B 4367  14.100   8.171   8.877 -0.0777  0.0333  0.0713
  353YOPC   C2B 4368  14.124   8.230   8.489  0.1652 -0.1240  0.1780
  353YOPC   D3B 4369  14.537   8.115   8.466 -0.0151  0.0837 -0.1889
  353YOPC   C4B 4370  14.753   8.150   8.046 -0.1191  0.0215  0.1676
  354YOPC   NC3 4371   9.378   9.585  10.381  0.1235 -0.3310 -0.2043
  354YOPC   PO4 4372   9.672   9.420  10.091 -0.2799  0.0791  0.2788
  354YOPC   GL1 4373   9.633   9.241   9.706 -0.4105 -0.0560  0.1754
  354YOPC   GL2 4374   9.957   9.435   9.596 -0.1640 -0.0661 -0.0136
  354YOPC   C1A 4375   9.394   9.040   9.362 -0.1940  0.0414  0.0225
  354YOPC   D2A 4376   9.184   9.087   9.020 -0.1827 -0.2512  0.1941
  354YOPC   C3A 4377   9.309   8.768   8.676  0.3017 -0.0880  0.0111
  354YOPC   C4A 4378   9.301   8.659   8.189 -0.0162  0.0719  0.0216
  354YOPC   C1B 4379  10.165   9.457   9.252  0.0831 -0.1376  0.4223
  354YOPC   C2B 4380  10.046   9.649   8.917  0.1103  0.2726  0.1793
  354YOPC   D3B 4381   9.861   9.583   8.554  0.2491  0.2507 -0.2648
  354YOPC   C4B 4382  10.044   9.357   8.144 -0.0287 -0.0281 -0.0189
  355YOPC   NC3 4383  16.178   6.195   9.906  0.1518  0.2682  0.2298
  355YOPC   PO4 4384  16.177   5.707   9.829  0.0570 -0.0305 -0.0956
  355YOPC   GL1 4385  16.511   5.545   9.542  0.3424 -0.0838 -0.2020
  355YOPC   GL2 4386  16.773   5.634   9.575  0.1528 -0.0018 -0.0382
  355YOPC   C1A 4387  16.650   5.499   9.068 -0.0508  0.1212 -0.1763
  355YOPC   D2A 4388  16.703   5.265   8.699 -0.0725  0.1234 -0.0245
  355YOPC   C3A 4389  16.849   5.467   8.385  0.0555 -0.1604  0.2924
  355YOPC   C4A 4390  17.208   5.756   8.257 -0.1494 -0.0648 -0.0416
  355YOPC   C1B 4391  16.937   5.819   9.278  0.0921  0.0004  0.1499
  355YOPC   C2B 4392  17.386   5.897   9.241 -0.0642 -0.3440 -0.2832
  355YOPC   D3B 4393  17.516   5.849   8.875 -0.1298 -0.0806 -0.3418
  355YOPC   C4B 4394  17.620   5.562   8.577 -0.2963 -0.1552 -0.0058
  356YOPC   NC3 4395   3.182   0.876  11.397 -0.3369 -0.2890 -0.1651
  356YOPC   PO4 4396   2.903   0.695  11.096 -0.1172 -0.1864  0.0500
  356YOPC   GL1 4397   2.793   0.506  10.889  0.0764  0.3161  0.1293
  356YOPC   GL2 4398   2.845   0.204  10.783 -0.1598  0.0101  0.0731
  356YOPC   C1A 4399   2.913   0.471  10.383 -0.1325 -0.0479 -0.2498
  356YOPC   D2A 4400   2.920  -0.002  10.313 -0.2259  0.3044  0.1889
  356YOPC   C3A 4401   3.201  -0.152  10.114 -0.4841 -0.1285 -0.0395
  356YOPC   C4A 4402   3.322  -0.112   9.676 -0.0089  0.0832  0.0033
  356YOPC   C1B 4403   2.476   0.245  10.536 -0.1125  0.0696  0.0597
  356YOPC   C2B 4404   2.327   0.333  10.187 -0.2300 -0.1750  0.0761
  356YOPC   D3B 4405   2.549   0.133   9.935  0.3104 -0.2676  0.0570
  356YOPC   C4B 4406   2.836  -0.146   9.720 -0.1520 -0.0586 -0.2154
  357YOPC   NC3 4407   7.820  10.775   9.983  0.0115 -0.0990 -0.0828
  357YOPC   PO4 4408   8.288  10.645   9.942 -0.0781 -0.3040  0.3257
  357YOPC   GL1 4409   8.162  11.005   9.702  0.1726  0.0407  0.3137
  357YOPC   GL2 4410   8.462  11.072   9.713  0.0507  0.0422 -0.2843
  357YOPC   C1A 4411   7.928  11.277   9.444  0.3440  0.3493 -0.0494
  357YOPC   D2A 4412   7.694  11.344   9.042 -0.1018  0.4068  0.0928
  357YOPC   C3A 4413   7.721  11.650   8.831 -0.0347 -0.3292  0.5157
  357YOPC   C4A 4414   7.521  12.044   8.505  0.0963 -0.0622 -0.1238
  357YOPC   C1B 4415   8.365  11.052   9.223  0.1221  0.2814 -0.1083
  357YOPC   C2B 4416   8.197  10.787   8.972  0.1095  0.0109  0.2159
  357YOPC   D3B 4417   8.030  10.485   8.636  0.2686 -0.0910 -0.2643
  357YOPC   C4B 4418   8.111  10.163   8.409  0.2186 -0.1131 -0.0353
  358YOPC   NC3 4419  10.983   6.523  10.193 -0.0221 -0.0052  0.1090
  358YOPC   PO4 4420  11.345   6.314  10.396 -0.2258 -0.1832 -0.4720
  358YOPC   GL1 4421  11.295   6.421   9.809  0.0227  0.0698 -0.2506
  358YOPC   GL2 4422  11.534   6.241   9.659  0.0531 -0.0623  0.2807
  358YOPC   C1A 4423  11.061   6.404   9.467  0.1966 -0.0267  0.1028
  358YOPC   D2A 4424  10.852   6.109   9.313 -0.1209  0.2896 -0.0076
  358YOPC   C3A 4425  10.886   6.018   8.899 -0.1084  0.1181 -0.0512
  358YOPC   C4A 4426  10.584   5.711   8.559 -0.4368 -0.1513  0.1564
  358YOPC   C1B 4427  11.358   6.026   9.303 -0.1805 -0.0041  0.1128
  358YOPC   C2B 4428  11.558   5.930   9.053 -0.1452  0.2480 -0.0571
  358YOPC   D3B 4429  11.426   5.839   8.729 -0.1536 -0.0300 -0.2171
  358YOPC   C4B 4430  11.566   5.818   8.304  0.1069 -0.1578 -0.0941
  359YOPC   NC3 4431  13.094  16.591  10.621  0.0031  0.2112 -0.1331
  359YOPC   PO4 4432  12.867  16.829  10.609  0.2109 -0.1183 -0.2318
  359YOPC   GL1 4433  13.033  16.906  10.252 -0.0030  0.1028 -0.0620
  359YOPC   GL2 4434  12.836  17.094  10.139 -0.0815 -0.5683  0.2990
  359YOPC   C1A 4435  13.182  16.935   9.790 -0.0998 -0.2402  0.0560
  359YOPC   D2A 4436  13.286  16.918   9.296 -0.1221  0.1458 -0.1539
  359YOPC   C3A 4437  13.390  17.031   8.886 -0.1196 -0.0492 -0.0213
  359YOPC   C4A 4438  13.532  17.137   8.455 -0.0380 -0.2246 -0.1634
  359YOPC   C1B 4439  12.650  16.784   9.915 -0.0086 -0.2660  0.3031
  359YOPC   C2B 4440  12.439  16.398   9.816  0.1587  0.2663 -0.2384
  359YOPC   D3B 4441  12.527  16.004   9.665 -0.0655  0.0895  0.0682
  359YOPC   C4B 4442  12.624  15.683   9.380  0.2658 -0.2671  0.1052
  360YOPC   NC3 4443   3.336   5.995  10.197 -0.2300  0.0729 -0.2163
  360YOPC   PO4 4444   3.240   5.598  10.014 -0.1648 -0.2220 -0.3195
  360YOPC   GL1 4445   3.174   5.483   9.581 -0.1525  0.1081  0.2308
  360YOPC   GL2 4446   3.391   5.221   9.612 -0.0628  0.0409 -0.2214
  360YOPC   C1A 4447   3.273   5.491   9.109  0.1568  0.0023  0.0306
  360YOPC   D2A 4448   3.037   5.435   8.685 -0.2580 -0.0428  0.2523
  360YOPC   C3A 4449   3.190   5.649   8.317  0.2159  0.1678 -0.1868
  360YOPC   C4A 4450   3.010   5.828   7.939 -0.3260 -0.1308  0.0553
  360YOPC   C1B 4451   3.181   5.003   9.313  0.0233  0.0696  0.0054
  360YOPC   C2B 4452   3.217   4.949   8.967  0.1831 -0.0619  0.1692
  360YOPC   D3B 4453   3.194   4.521   8.699  0.1603 -0.1058 -0.3440
  360YOPC   C4B 4454   3.056   4.384   8.294  0.0811 -0.1982  0.0372
  361YOPC   NC3 4455   1.520   6.100  10.373 -0.0522  0.1475 -0.0219
  361YOPC   PO4 4456   1.191   6.237  10.073  0.1130 -0.2813 -0.1078
  361YOPC   GL1 4457   1.244   6.400   9.774  0.2139  0.2087  0.2505
  361YOPC   GL2 4458   1.211   6.215   9.503 -0.0445  0.1901 -0.2145
  361YOPC   C1A 4459   1.537   6.679   9.656  0.1914  0.1159  0.0174
  361YOPC   D2A 4460   1.694   7.120   9.659 -0.0072 -0.0750  0.2675
  361YOPC   C3A 4461   1.732   7.417   9.386  0.4165 -0.1647  0.0151
  361YOPC   C4A 4462   2.050   7.451   9.091 -0.2033  0.0040 -0.1705
  361YOPC   C1B 4463   1.153   6.224   9.210 -0.0453 -0.2130 -0.1329
  361YOPC   C2B 4464   1.132   6.194   8.793 -0.1390  0.0510 -0.0988
  361YOPC   D3B 4465   1.100   6.424   8.415 -0.0497 -0.0219 -0.2586
  361YOPC   C4B 4466   1.326   6.392   8.018  0.0616  0.1357  0.0911
  362YOPC   NC3 4467   1.789  12.357  10.213 -0.2257  0.0233 -0.0889
  362YOPC   PO4 4468   2.210  12.338  10.418 -0.0858  0.2488  0.0398
  362YOPC   GL1 4469   2.397  12.443   9.963  0.1802  0.1503 -0.0246
  362YOPC   GL2 4470   2.624  12.716   9.851  0.0525  0.3658  0.1008
  362YOPC   C1A 4471   2.341  12.379   9.527  0.2079  0.1168  0.2198
  362YOPC   D2A 4472   2.445  12.633   9.190 -0.1660 -0.0066 -0.0504
  362YOPC   C3A 4473   2.158  12.563   8.937  0.3851  0.5178  0.0330
  362YOPC   C4A 4474   1.944  12.657   8.571 -0.1341  0.0294  0.1189
  362YOPC   C1B 4475   2.814  12.754   9.518  0.1864  0.2585  0.3177
  362YOPC   C2B 4476   2.749  12.990   9.089  0.0834  0.2593 -0.2779
  362YOPC   D3B 4477   2.898  13.310   8.881  0.1859 -0.0039 -0.2775
  362YOPC   C4B 4478   2.863  13.732   8.877  0.0095  0.2337  0.2047
  363YOPC   NC3 4479   8.836  15.707  10.143 -0.0589 -0.3170 -0.0720
  363YOPC   PO4 4480   8.815  15.388   9.984 -0.0758 -0.0790  0.4409
  363YOPC   GL1 4481   8.879  15.311   9.507  0.0444  0.0298  0.1963
  363YOPC   GL2 4482   9.100  15.650   9.493 -0.0336  0.1477 -0.1524
  363YOPC   C1A 4483   8.966  15.038   9.103  0.1799  0.0268 -0.2431
  363YOPC   D2A 4484   8.975  14.897   8.677 -0.2048  0.1492 -0.1143
  363YOPC   C3A 4485   9.246  15.059   8.479 -0.0989 -0.0757 -0.2574
  363YOPC   C4A 4486   9.341  15.028   8.043  0.1426 -0.0323  0.0472
  363YOPC   C1B 4487   9.036  15.543   9.067 -0.0849  0.0721 -0.2225
  363YOPC   C2B 4488   8.878  15.374   8.636  0.0265  0.0259 -0.0277
  363YOPC   D3B 4489   8.664  15.191   8.317  0.0990  0.1126  0.4867
  363YOPC   C4B 4490   8.447  14.927   7.910  0.2436  0.0124 -0.3054
  364YOPC   NC3 4491  17.523  16.879  10.629 -0.2309 -0.0574  0.0850
  364YOPC   PO4 4492  17.075  17.055  10.734 -0.1927  0.1442  0.0352
  364YOPC   GL1 4493  16.956  16.927  10.368  0.0367 -0.1923  0.0923
  364YOPC   GL2 4494  16.761  17.151  10.194  0.0324  0.0502  0.0792
  364YOPC   C1A 4495  17.043  16.822   9.984  0.1000 -0.0124  0.3458
  364YOPC   D2A 4496  16.999  16.936   9.516  0.1218  0.0203  0.1700
  364YOPC   C3A 4497  17.217  16.670   9.184 -0.4622  0.3810 -0.1009
  364YOPC   C4A 4498  17.315  16.656   8.879  0.1301 -0.2404  0.4149
  364YOPC   C1B 4499  16.738  17.234   9.794  0.0492  0.2922 -0.0912
  364YOPC   C2B 4500  16.604  17.284   9.450 -0.1879 -0.2568 -0.0164
  364YOPC   D3B 4501  16.818  17.184   9.101 -0.1918  0.1081  0.1886
  364YOPC   C4B 4502  17.103  17.093   8.809 -0.0790  0.2018 -0.3383
  365YOPC   NC3 4503   0.638   7.633  10.336  0.0375  0.0395  0.2836
  365YOPC   PO4 4504   0.297   7.358   9.996 -0.1327 -0.0668 -0.0179
  365YOPC   GL1 4505   0.323   7.442   9.541  0.0118 -0.2444  0.2586
  365YOPC   GL2 4506   0.128   7.295   9.384 -0.2817  0.3333 -0.0553
  365YOPC   C1A 4507   0.437   7.432   9.028  0.1793 -0.3718 -0.3519
  365YOPC   D2A 4508   0.652   7.436   8.589  0.3037  0.2698  0.0707
  365YOPC   C3A 4509   0.754   7.711   8.351 -0.1415 -0.0660  0.0366
  365YOPC   C4A 4510   0.934   7.548   8.023  0.1727  0.1953 -0.0580
  365YOPC   C1B 4511  -0.056   7.391   9.014 -0.3799 -0.0934  0.1089
  365YOPC   C2B 4512  -0.189   7.455   8.619  0.0831  0.0109  0.0667
  365YOPC   D3B 4513  -0.559   7.227   8.302 -0.0396  0.1521  0.0031
  365YOPC   C4B 4514  -0.598   7.276   7.828 -0.0684 -0.4075 -0.2658
  366YOPC   NC3 4515  12.766   3.327   9.972 -0.2231  0.0604  0.1463
  366YOPC   PO4 4516  12.617   3.804   9.946  0.0260  0.1504  0.1970
  366YOPC   GL1 4517  12.753   3.713   9.508  0.3429  0.1310  0.1625
  366YOPC   GL2 4518  13.074   3.698   9.774  0.0185  0.0602 -0.1416
  366YOPC   C1A 4519  12.933   3.687   9.115 -0.2877 -0.1295 -0.1321
  366YOPC   D2A 4520  13.157   3.688   8.702 -0.0527 -0.0198  0.0234
  366YOPC   C3A 4521  13.210   3.930   8.327  0.1176 -0.0087 -0.1017
  366YOPC   C4A 4522  13.239   4.300   8.253  0.2969 -0.0788 -0.0871
  366YOPC   C1B 4523  13.181   3.426   9.452 -0.2651 -0.3546  0.1224
  366YOPC   C2B 4524  13.219   3.286   9.029 -0.0557  0.0270 -0.3807
  366YOPC   D3B 4525  13.363   3.200   8.661  0.1018  0.3142  0.3077
  366YOPC   C4B 4526  13.546   3.453   8.289  0.2096 -0.0784 -0.0966
  367YOPC   NC3 4527  17.732  16.335  11.005  0.1443 -0.0816  0.1364
  367YOPC   PO4 4528  17.531  16.364  10.657 -0.2842  0.2272  0.0192
  367YOPC   GL1 4529  17.723  16.168  10.376 -0.0843 -0.2032  0.0432
  367YOPC   GL2 4530  17.522  16.161  10.141  0.1135  0.0841 -0.0475
  367YOPC   C1A 4531  18.080  16.309  10.021  0.0893  0.1266  0.0131
  367YOPC   D2A 4532  18.384  16.311   9.702  0.0269 -0.1244 -0.1058
  367YOPC   C3A 4533  18.145  16.156   9.395 -0.0847  0.1429 -0.1738
  367YOPC   C4A 4534  18.073  16.178   8.940 -0.2353  0.3525  0.0599
  367YOPC   C1B 4535  17.676  16.073   9.789 -0.1215  0.2060  0.1148
  367YOPC   C2B 4536  17.617  16.144   9.402  0.1219 -0.0257  0.2327
  367YOPC   D3B 4537  17.222  16.107   9.117  0.0791  0.1015 -0.0955
  367YOPC   C4B 4538  16.807  16.009   8.918  0.1600  0.0760 -0.1430
  368YOPC   NC3 4539  10.908  12.187  10.210 -0.1790 -0.1573  0.1147
  368YOPC   PO4 4540  10.558  11.889  10.259 -0.1641  0.0586  0.0854
  368YOPC   GL1 4541  10.545  11.967   9.765  0.1099 -0.0788 -0.0488
  368YOPC   GL2 4542  10.896  12.099   9.732 -0.2579 -0.0303  0.3661
  368YOPC   C1A 4543  10.513  12.136   9.344  0.1140 -0.1951  0.0589
  368YOPC   D2A 4544  10.480  12.168   8.908 -0.4335 -0.0761  0.3246
  368YOPC   C3A 4545  10.181  12.360   8.694  0.0020  0.2751  0.1618
  368YOPC   C4A 4546  10.023  12.768   8.733  0.0773 -0.0310  0.1793
  368YOPC   C1B 4547  11.102  12.091   9.319  0.1992 -0.1067 -0.0602
  368YOPC   C2B 4548  11.113  12.196   8.893 -0.0122  0.4788  0.1147
  368YOPC   D3B 4549  11.134  12.564   8.645  0.0869  0.0348 -0.0463
  368YOPC   C4B 4550  11.015  12.970   8.575 -0.2177 -0.4003  0.1807
  369YOPC   NC3 4551  14.430   5.901  10.000  0.2067  0.0715  0.2270
  369YOPC   PO4 4552  14.366   6.167   9.640 -0.0373  0.1580 -0.3359
  369YOPC   GL1 4553  14.153   5.866   9.376 -0.3070  0.1147  0.0801
  369YOPC   GL2 4554  13.783   5.926   9.350  0.0338  0.1026  0.1389
  369YOPC   C1A 4555  14.322   5.520   9.114  0.1391  0.2664  0.1154
  369YOPC   D2A 4556  14.303   5.530   8.694 -0.0669 -0.1377  0.3391
  369YOPC   C3A 4557  14.245   5.483   8.183  0.0972 -0.3151 -0.1579
  369YOPC   C4A 4558  14.068   5.333   7.811  0.1843  0.2669 -0.2725
  369YOPC   C1B 4559  13.822   5.630   8.961 -0.2145 -0.1818 -0.0983
  369YOPC   C2B 4560  13.620   5.620   8.592 -0.0534  0.3201 -0.0989
  369YOPC   D3B 4561  13.732   5.477   8.131  0.0147 -0.0939 -0.2256
  369YOPC   C4B 4562  13.801   5.790   7.840 -0.0956  0.4028  0.0207
  370YOPC   NC3 4563   7.005   8.014  10.221 -0.2031  0.2218  0.2700
  370YOPC   PO4 4564   6.626   8.148  10.041 -0.3099  0.1075 -0.1580
  370YOPC   GL1 4565   6.436   8.081   9.611 -0.1467 -0.1012 -0.2497
  370YOPC   GL2 4566   6.573   8.335   9.493 -0.0436 -0.1448 -0.0792
  370YOPC   C1A 4567   6.193   8.198   9.230 -0.1808 -0.1354  0.1519
  370YOPC   D2A 4568   6.051   8.467   8.812 -0.0293  0.1453 -0.2603
  370YOPC   C3A 4569   6.041   8.564   8.404  0.1987  0.0638  0.2119
  370YOPC   C4A 4570   5.757   8.858   8.129  0.1851 -0.1048 -0.2947
  370YOPC   C1B 4571   6.574   8.460   8.982 -0.0810  0.1813  0.1534
  370YOPC   C2B 4572   6.563   8.334   8.582  0.0486  0.0614  0.0657
  370YOPC   D3B 4573   6.937   8.118   8.460 -0.0802  0.0103 -0.1370
  370YOPC   C4B 4574   7.185   7.774   8.441  0.3562 -0.2644  0.2642
  371YOPC   NC3 4575  14.248  13.832  11.089 -0.0640  0.1259 -0.0689
  371YOPC   PO4 4576  14.617  14.111  10.999  0.3764  0.2159 -0.0930
  371YOPC   GL1 4577  14.702  14.181  10.630  0.0186  0.2561  0.1790
  371YOPC   GL2 4578  14.459  14.328  10.502 -0.0357  0.0305  0.2299
  371YOPC   C1A 4579  14.998  14.410  10.406  0.1282  0.0688  0.2687
  371YOPC   D2A 4580  15.342  14.660  10.190 -0.0962 -0.0421  0.0719
  371YOPC   C3A 4581  15.308  15.130  10.167 -0.1894 -0.0746  0.3345
  371YOPC   C4A 4582  14.904  15.297  10.296 -0.0126  0.1373  0.2273
  371YOPC   C1B 4583  14.534  14.142  10.153 -0.0528  0.1922 -0.0682
  371YOPC   C2B 4584  14.845  14.211   9.893  0.1682 -0.1662 -0.3034
  371YOPC   D3B 4585  15.018  13.836   9.601  0.0953 -0.1770 -0.2220
  371YOPC   C4B 4586  15.185  13.898   9.262 -0.0583 -0.2163  0.2951
  372YOPC   NC3 4587   7.351   3.042   9.758 -0.0446  0.3032 -0.0131
  372YOPC   PO4 4588   7.732   2.770   9.957 -0.2680  0.1546  0.1422
  372YOPC   GL1 4589   7.872   2.687   9.584  0.0031  0.0921  0.0824
  372YOPC   GL2 4590   8.030   2.494   9.363 -0.0661  0.2511 -0.1683
  372YOPC   C1A 4591   7.696   2.735   9.122  0.1830 -0.1373 -0.3504
  372YOPC   D2A 4592   7.589   2.640   8.734 -0.2337 -0.0405 -0.1383
  372YOPC   C3A 4593   7.929   2.622   8.463 -0.0233 -0.0595  0.0618
  372YOPC   C4A 4594   7.853   2.589   8.057 -0.2536  0.1707 -0.0425
  372YOPC   C1B 4595   8.178   2.439   8.984  0.1686  0.0166  0.4680
  372YOPC   C2B 4596   8.361   2.404   8.580  0.0953 -0.3390  0.1275
  372YOPC   D3B 4597   8.382   2.533   8.106  0.0678  0.1217 -0.0505
  372YOPC   C4B 4598   8.703   2.597   7.808 -0.0127  0.0215 -0.0881
  373YOPC   NC3 4599   9.322  12.513  10.386  0.1804  0.1402 -0.1668
  373YOPC   PO4 4600   9.419  12.136  10.227  0.0849  0.2457  0.0517
  373YOPC   GL1 4601   9.131  12.189   9.912 -0.0825 -0.3578  0.0218
  373YOPC   GL2 4602   9.071  12.489   9.904  0.2187 -0.2584 -0.1526
  373YOPC   C1A 4603   9.175  12.112   9.454  0.2599 -0.1747  0.1567
  373YOPC   D2A 4604   9.015  12.152   9.068 -0.2094 -0.3046 -0.0060
  373YOPC   C3A 4605   9.163  12.377   8.818  0.2018 -0.1251 -0.2324
  373YOPC   C4A 4606   9.123  12.716   8.516 -0.0859 -0.1595  0.2251
  373YOPC   C1B 4607   9.140  12.614   9.439  0.0676  0.0986 -0.0496
  373YOPC   C2B 4608   8.992  12.819   9.036  0.1349  0.0432  0.2338
  373YOPC   D3B 4609   8.641  13.086   9.225  0.1744  0.2663 -0.0556
  373YOPC   C4B 4610   8.546  13.274   9.565 -0.2445 -0.2693 -0.1158
  374YOPC   NC3 4611   1.652  17.104  10.868  0.0449 -0.1291 -0.4551
  374YOPC   PO4 4612   1.163  16.869  10.864 -0.2234 -0.1074 -0.2078
  374YOPC   GL1 4613   1.139  16.770  10.522 -0.0208 -0.1704  0.1068
  374YOPC   GL2 4614   1.334  16.560  10.375  0.0821 -0.2203 -0.0588
  374YOPC   C1A 4615   0.832  16.615  10.295  0.0029  0.0496 -0.0285
  374YOPC   D2A 4616   0.827  16.402   9.990 -0.0060 -0.4425  0.2157
  374YOPC   C3A 4617   0.522  16.310   9.692  0.1321 -0.3798 -0.1862
  374YOPC   C4A 4618   0.226  16.088   9.317  0.1086  0.0963 -0.0992
  374YOPC   C1B 4619   1.399  16.455   9.966 -0.1840  0.1548  0.3387
  374YOPC   C2B 4620   1.647  16.608   9.543 -0.5393  0.1011  0.2046
  374YOPC   D3B 4621   1.978  16.446   9.265 -0.1535  0.0216  0.1858
  374YOPC   C4B 4622   1.989  16.062   8.974 -0.1522  0.1547 -0.1657
  375YOPC   NC3 4623  13.069  13.132  10.957  0.1417  0.1811 -0.1395
  375YOPC   PO4 4624  13.267  13.429  10.726  0.0873  0.0905  0.1364
  375YOPC   GL1 4625  13.590  13.175  10.546  0.1693  0.1718 -0.0372
  375YOPC   GL2 4626  13.914  13.039  10.711  0.0960 -0.2529 -0.0388
  375YOPC   C1A 4627  13.620  12.820  10.351  0.1717  0.0246 -0.3698
  375YOPC   D2A 4628  13.870  12.652   9.965 -0.1116  0.1984 -0.1744
  375YOPC   C3A 4629  13.793  12.778   9.623 -0.0748  0.2651 -0.0880
  375YOPC   C4A 4630  13.868  12.745   9.229 -0.0684  0.1532 -0.0193
  375YOPC   C1B 4631  14.091  13.056  10.318  0.2315 -0.1174  0.4465
  375YOPC   C2B 4632  14.304  12.934   9.980  0.2153  0.0458 -0.2530
  375YOPC   D3B 4633  14.590  13.052   9.744  0.3240  0.0722 -0.1943
  375YOPC   C4B 4634  14.721  12.972   9.313 -0.2688  0.1734  0.1641
  376YOPC   NC3 4635  11.619   3.639  10.100  0.0148 -0.0961 -0.0404
  376YOPC   PO4 4636  11.681   4.089  10.217 -0.0029 -0.0698  0.1546
  376YOPC   GL1 4637  11.594   4.054   9.760  0.1748  0.0188  0.1949
  376YOPC   GL2 4638  11.741   4.349   9.672  0.1665 -0.0254  0.0801
  376YOPC   C1A 4639  11.634   3.930   9.300  0.0350  0.2067 -0.1253
  376YOPC   D2A 4640  11.561   3.704   8.824 -0.1406  0.1450  0.2824
  376YOPC   C3A 4641  11.692   3.908   8.459 -0.3315 -0.0742  0.2637
  376YOPC   C4A 4642  11.822   4.178   8.119  0.0538 -0.2213  0.0090
  376YOPC   C1B 4643  11.863   4.404   9.292 -0.0420  0.1526  0.1964
  376YOPC   C2B 4644  11.667   4.246   8.824 -0.0742 -0.0326 -0.1472
  376YOPC   D3B 4645  11.628   4.477   8.463 -0.0025 -0.0120 -0.3058
  376YOPC   C4B 4646  11.640   4.715   8.062 -0.3021  0.0167 -0.0040
  377YOPC   NC3 4647   6.118   0.026  10.163 -0.1380 -0.0325  0.3642
  377YOPC   PO4 4648   6.380   0.253   9.836 -0.0336 -0.0557  0.0506
  377YOPC   GL1 4649   6.210   0.164   9.407 -0.1354 -0.3698 -0.1782
  377YOPC   GL2 4650   5.882   0.231   9.502  0.0665 -0.1111  0.0209
  377YOPC   C1A 4651   6.130   0.157   9.048 -0.0709  0.3150  0.0562
  377YOPC   D2A 4652   5.659   0.226   8.811 -0.0582 -0.1884  0.2014
  377YOPC   C3A 4653   5.617   0.562   8.519  0.1313 -0.0212 -0.0681
  377YOPC   C4A 4654   5.342   0.675   8.301  0.0074  0.1595 -0.2008
  377YOPC   C1B 4655   5.577   0.419   9.306 -0.0044 -0.0698  0.1890
  377YOPC   C2B 4656   5.417   0.656   9.188  0.3487 -0.5601 -0.0625
  377YOPC   D3B 4657   5.177   0.646   8.786 -0.0228  0.0626  0.1654
  377YOPC   C4B 4658   4.905   0.603   8.519 -0.1970 -0.0227  0.3476
  378YOPC   NC3 4659   2.809   8.218  10.234  0.0628 -0.2481 -0.0208
  378YOPC   PO4 4660   2.567   8.541  10.091  0.1389 -0.1620  0.0316
  378YOPC   GL1 4661   2.566   8.481   9.627 -0.1521  0.0319 -0.0335
  378YOPC   GL2 4662   2.308   8.560   9.454 -0.4104  0.0242 -0.0201
  378YOPC   C1A 4663   2.839   8.361   9.273  0.0308 -0.0229 -0.0359
  378YOPC   D2A 4664   2.714   8.257   8.877 -0.3661  0.0537 -0.0403
  378YOPC   C3A 4665   2.872   8.070   8.527  0.3459  0.2012 -0.1342
  378YOPC   C4A 4666   3.002   8.160   8.130 -0.2950 -0.0176  0.0070
  378YOPC   C1B 4667   2.350   8.526   8.995  0.0476 -0.0303  0.1830
  378YOPC   C2B 4668   2.351   8.381   8.590 -0.1301 -0.3455  0.2097
  378YOPC   D3B 4669   2.461   8.399   8.158  0.0176 -0.0193  0.0850
  378YOPC   C4B 4670   2.490   8.355   7.761  0.0777  0.1138 -0.0071
  379YOPC   NC3 4671   0.026   9.580  10.176  0.1565  0.1581  0.0807
  379YOPC   PO4 4672  -0.327   9.736  10.101  0.3590 -0.0103 -0.1197
  379YOPC   GL1 4673  -0.584   9.754   9.713 -0.0786 -0.1846 -0.1560
  379YOPC   GL2 4674  -0.817   9.818   9.627 -0.0865  0.1422  0.0921
  379YOPC   C1A 4675  -0.294   9.707   9.381  0.1250  0.0077 -0.0867
  379YOPC   D2A 4676   0.094   9.694   9.083  0.1476 -0.1845  0.0327
  379YOPC   C3A 4677   0.067   9.332   8.851 -0.1443 -0.1769  0.1693
  379YOPC   C4A 4678   0.299   8.969   8.843  0.0773  0.0249 -0.1719
  379YOPC   C1B 4679  -0.826   9.839   9.211  0.2590  0.0331  0.5171
  379YOPC   C2B 4680  -0.855   9.961   8.738 -0.0838 -0.4313 -0.1040
  379YOPC   D3B 4681  -0.434  10.165   8.646  0.0524  0.4222 -0.0168
  379YOPC   C4B 4682   0.055  10.253   8.420  0.1778  0.3827 -0.1263
  380YOPC   NC3 4683   4.599   0.220  10.590 -0.0199  0.0330 -0.4124
  380YOPC   PO4 4684   4.684   0.507  10.279  0.2601  0.1516  0.0502
  380YOPC   GL1 4685   4.505   0.326   9.899  0.0466  0.0833 -0.0902
  380YOPC   GL2 4686   4.276   0.305  10.044  0.0254  0.0055  0.0499
  380YOPC   C1A 4687   4.281   0.374   9.507 -0.0881 -0.2294  0.1481
  380YOPC   D2A 4688   4.104   0.429   9.177  0.0666 -0.1674  0.3927
  380YOPC   C3A 4689   3.594   0.444   9.104  0.2187  0.1756  0.1233
  380YOPC   C4A 4690   3.330   0.529   8.557  0.0065  0.0127 -0.0262
  380YOPC   C1B 4691   3.919   0.167   9.854  0.0337 -0.0950 -0.0376
  380YOPC   C2B 4692   3.838  -0.103   9.557 -0.0729  0.0629  0.0194
  380YOPC   D3B 4693   3.658  -0.053   9.193  0.0966 -0.1173 -0.1979
  380YOPC   C4B 4694   3.358   0.085   8.782  0.1073 -0.0436 -0.2749
  381YOPC   NC3 4695   4.868   1.730  10.448 -0.0006 -0.0970 -0.1175
  381YOPC   PO4 4696   5.023   2.189  10.356  0.2554  0.0824  0.0315
  381YOPC   GL1 4697   5.237   1.802  10.131 -0.1715 -0.1134 -0.1512
  381YOPC   GL2 4698   5.548   1.861  10.041 -0.2954  0.2144 -0.2440
  381YOPC   C1A 4699   5.244   1.402   9.774 -0.0890 -0.3497  0.2053
  381YOPC   D2A 4700   5.168   1.047   9.428 -0.3023  0.2203  0.2654
  381YOPC   C3A 4701   5.239   1.090   8.997 -0.2178 -0.0406 -0.0131
  381YOPC   C4A 4702   5.621   1.000   8.752  0.1018  0.2101  0.0070
  381YOPC   C1B 4703   5.460   1.835   9.635 -0.0347 -0.0394 -0.0533
  381YOPC   C2B 4704   5.359   1.662   9.309 -0.0542  0.0636  0.0026
  381YOPC   D3B 4705   4.942   1.580   9.339  0.0084 -0.0357 -0.1185
  381YOPC   C4B 4706   4.606   1.790   9.264 -0.0737  0.2672  0.0508
  382YOPC   NC3 4707   5.204   7.542  10.141 -0.0152 -0.3010  0.0097
  382YOPC   PO4 4708   5.634   7.606  10.129  0.0187  0.1379  0.0167
  382YOPC   GL1 4709   5.876   7.775   9.802  0.2698 -0.1193  0.1162
  382YOPC   GL2 4710   5.688   7.936   9.530 -0.0362 -0.3275 -0.2159
  382YOPC   C1A 4711   5.935   7.520   9.371 -0.1154  0.3299  0.1188
  382YOPC   D2A 4712   5.900   7.582   8.952 -0.2069  0.3874  0.0233
  382YOPC   C3A 4713   5.993   7.478   8.570 -0.2070  0.1085  0.5426
  382YOPC   C4A 4714   5.924   7.406   8.155  0.0816 -0.4630 -0.1400
  382YOPC   C1B 4715   5.696   8.164   9.124  0.0029 -0.2534  0.1751
  382YOPC   C2B 4716   5.750   8.064   8.700 -0.0401 -0.1968  0.2775
  382YOPC   D3B 4717   5.665   8.288   8.304 -0.2181 -0.0705 -0.1962
  382YOPC   C4B 4718   5.421   8.432   7.912 -0.1486 -0.1039 -0.2757
  383YOPC   NC3 4719   9.541   0.087  10.436  0.0939 -0.1331  0.0079
  383YOPC   PO4 4720   9.869  -0.131  10.414 -0.4184 -0.0599 -0.0048
  383YOPC   GL1 4721   9.888  -0.500  10.095 -0.3026 -0.2544  0.1009
  383YOPC   GL2 4722   9.671  -0.612   9.948  0.1652 -0.0706  0.0267
  383YOPC   C1A 4723  10.014  -0.500   9.596 -0.1559  0.4328 -0.0710
  383YOPC   D2A 4724  10.098  -0.923   9.434 -0.0545  0.0683  0.2696
  383YOPC   C3A 4725   9.660  -0.953   9.146 -0.0915 -0.0572  0.0229
  383YOPC   C4A 4726   9.421  -1.317   9.205  0.2744 -0.1726  0.7202
  383YOPC   C1B 4727   9.543  -0.559   9.555 -0.0918 -0.0750  0.0676
  383YOPC   C2B 4728   9.433  -0.427   9.114  0.2553  0.0754 -0.1943
  383YOPC   D3B 4729   9.565  -0.159   8.821 -0.1250 -0.0911  0.3105
  383YOPC   C4B 4730   9.704   0.027   8.484 -0.0598  0.0300  0.1983
  384YOPC   NC3 4731   9.859   7.022  10.331  0.0487  0.0867 -0.3305
  384YOPC   PO4 4732  10.211   7.121  10.106 -0.1651  0.0015 -0.0186
  384YOPC   GL1 4733  10.214   6.841   9.758 -0.2276 -0.2162  0.0433
  384YOPC   GL2 4734  10.331   6.520   9.763 -0.0130 -0.0440 -0.1578
  384YOPC   C1A 4735  10.186   6.794   9.345  0.6594  0.0201 -0.1875
  384YOPC   D2A 4736  10.379   6.907   8.930  0.0349 -0.1480 -0.0554
  384YOPC   C3A 4737  10.283   6.627   8.518 -0.0252 -0.2112  0.3479
  384YOPC   C4A 4738  10.227   6.380   8.117 -0.0346  0.2256 -0.0921
  384YOPC   C1B 4739   9.935   6.429   9.666 -0.0582  0.4427  0.1681
  384YOPC   C2B 4740   9.663   6.725   9.422  0.1137 -0.3801  0.2102
  384YOPC   D3B 4741   9.544   7.132   9.575  0.0626 -0.0511  0.0359
  384YOPC   C4B 4742   9.251   7.398   9.358  0.2342  0.0154  0.1616
  385YOPC   NC3 4743   8.930  10.797  10.294 -0.1148  0.0322  0.1696
  385YOPC   PO4 4744   8.786  10.713   9.927  0.0190  0.1822 -0.0276
  385YOPC   GL1 4745   9.131  10.532   9.539 -0.3367  0.1051 -0.1918
  385YOPC   GL2 4746   9.306  10.261   9.533  0.1210 -0.0300  0.3481
  385YOPC   C1A 4747   9.261  10.481   9.063 -0.4928 -0.1992 -0.1682
  385YOPC   D2A 4748   9.284  10.744   8.696  0.0695  0.2213 -0.2231
  385YOPC   C3A 4749   9.361  10.866   8.342  0.0511  0.0080 -0.2950
  385YOPC   C4A 4750   9.231  11.243   8.039  0.0676  0.3309  0.3289
  385YOPC   C1B 4751   9.380   9.846   9.490 -0.0197  0.3928 -0.0627
  385YOPC   C2B 4752   9.608   9.537   9.220  0.0822 -0.1996  0.1971
  385YOPC   D3B 4753   9.476   9.374   8.761  0.0972 -0.1224 -0.4518
  385YOPC   C4B 4754   9.126   9.181   8.526 -0.0830 -0.0683  0.1932
  386YOPC   NC3 4755   8.383   3.563   9.536  0.1918 -0.0746 -0.1596
  386YOPC   PO4 4756   8.681   3.288   9.608  0.0658  0.1320 -0.3512
  386YOPC   GL1 4757   8.630   3.247   9.235 -0.1943 -0.1509  0.2208
  386YOPC   GL2 4758   8.948   3.173   9.113  0.2287 -0.0735  0.2323
  386YOPC   C1A 4759   8.508   3.476   8.864 -0.0915 -0.0273  0.0262
  386YOPC   D2A 4760   8.641   3.528   8.480  0.0887 -0.1612 -0.1562
  386YOPC   C3A 4761   8.601   3.476   8.015 -0.1923 -0.1390  0.0596
  386YOPC   C4A 4762   8.774   3.234   7.629 -0.1799 -0.1826  0.2742
  386YOPC   C1B 4763   9.077   2.922   8.836  0.1043  0.0707 -0.2737
  386YOPC   C2B 4764   9.440   2.524   8.720  0.3752  0.0325 -0.1282
  386YOPC   D3B 4765   9.364   2.218   8.316  0.1239  0.1069 -0.1754
  386YOPC   C4B 4766   9.191   1.804   8.315 -0.1578  0.0966  0.2193
  387YOPC   NC3 4767   0.443   3.831  10.478 -0.1454  0.2725 -0.2625
  387YOPC   PO4 4768   0.787   3.957  10.459  0.1057  0.1845  0.0193
  387YOPC   GL1 4769   0.519   3.919  10.004  0.0526 -0.1137 -0.1872
  387YOPC   GL2 4770   0.221   3.882   9.781  0.1779 -0.2350  0.1777
  387YOPC   C1A 4771   0.674   4.103   9.690 -0.1607  0.1999  0.2068
  387YOPC   D2A 4772   0.722   4.365   9.253  0.0848  0.0198  0.4056
  387YOPC   C3A 4773   0.799   4.336   8.743  0.1451  0.1723 -0.1796
  387YOPC   C4A 4774   0.674   4.442   8.247 -0.2303 -0.3912  0.3688
  387YOPC   C1B 4775   0.216   4.155   9.374  0.1561  0.1035  0.0432
  387YOPC   C2B 4776   0.310   4.303   8.957  0.1356  0.1670  0.1983
  387YOPC   D3B 4777   0.428   4.133   8.555 -0.0420 -0.0358 -0.0079
  387YOPC   C4B 4778   0.548   3.814   8.299 -0.0439 -0.1489  0.2349
  388YOPC   NC3 4779   1.974   6.471  10.774  0.1103  0.3618 -0.2372
  388YOPC   PO4 4780   1.972   6.366  10.289 -0.0489  0.1518  0.1338
  388YOPC   GL1 4781   1.738   6.279   9.809  0.0395  0.3429  0.2782
  388YOPC   GL2 4782   1.962   6.053   9.808  0.2240 -0.2431  0.1626
  388YOPC   C1A 4783   1.708   6.307   9.378  0.3213 -0.0393 -0.1116
  388YOPC   D2A 4784   1.639   6.325   8.944  0.1695  0.1756  0.0412
  388YOPC   C3A 4785   1.849   6.295   8.582  0.0018 -0.0727  0.0983
  388YOPC   C4A 4786   2.145   6.176   8.329 -0.3007  0.4153 -0.0763
  388YOPC   C1B 4787   2.100   6.002   9.389  0.3380  0.0068 -0.1889
  388YOPC   C2B 4788   2.065   6.076   8.955  0.1232  0.0170  0.3385
  388YOPC   D3B 4789   2.043   5.853   8.663 -0.2367 -0.0050 -0.4562
  388YOPC   C4B 4790   2.266   5.527   8.270 -0.1566  0.1506 -0.1825
  389YOPC   NC3 4791  16.419   8.410   9.506  0.0490 -0.1839  0.1372
  389YOPC   PO4 4792  16.136   8.659   9.643 -0.2001 -0.1378  0.0500
  389YOPC   GL1 4793  16.056   8.944   9.335 -0.0424  0.2726 -0.0944
  389YOPC   GL2 4794  15.739   8.996   9.111  0.0232 -0.4812  0.0648
  389YOPC   C1A 4795  16.227   9.234   9.139  0.0495  0.2741  0.3810
  389YOPC   D2A 4796  16.490   9.485   8.957  0.1541 -0.2230 -0.0385
  389YOPC   C3A 4797  16.771   9.310   8.565 -0.0582  0.0214 -0.2575
  389YOPC   C4A 4798  16.709   9.376   8.184 -0.2142 -0.1935  0.0850
  389YOPC   C1B 4799  15.848   9.282   8.797  0.3510 -0.2500 -0.2084
  389YOPC   C2B 4800  16.027   9.536   8.596 -0.2916  0.1896 -0.2748
  389YOPC   D3B 4801  16.341   9.683   8.510 -0.1191 -0.0397 -0.0114
  389YOPC   C4B 4802  16.547  10.013   8.181 -0.0079 -0.3974  0.0282
  390YOPC   NC3 4803   4.459  14.235  11.282 -0.0035 -0.5154 -0.3558
  390YOPC   PO4 4804   4.906  14.431  11.031  0.2876  0.1021  0.4441
  390YOPC   GL1 4805   4.693  14.457  10.614 -0.0345 -0.0811 -0.1403
  390YOPC   GL2 4806   4.682  14.730  10.543  0.2206 -0.1523 -0.0006
  390YOPC   C1A 4807   4.606  14.278  10.202  0.3863 -0.2362  0.0773
  390YOPC   D2A 4808   4.817  14.094   9.872 -0.4417  0.0957 -0.2128
  390YOPC   C3A 4809   4.611  14.225   9.520 -0.1395  0.3080 -0.0279
  390YOPC   C4A 4810   4.605  14.306   9.263 -0.0985  0.1332 -0.1550
  390YOPC   C1B 4811   4.516  14.971  10.193 -0.1795 -0.2380  0.1262
  390YOPC   C2B 4812   4.315  15.030   9.773 -0.1593  0.1336 -0.1033
  390YOPC   D3B 4813   4.430  14.863   9.363  0.1454  0.1076 -0.2673
  390YOPC   C4B 4814   4.419  14.753   8.997  0.0118 -0.0869  0.2269
  391YOPC   NC3 4815  14.450  15.016  11.100  0.1776  0.2369  0.3635
  391YOPC   PO4 4816  14.143  14.893  10.854 -0.1257  0.1447  0.3613
  391YOPC   GL1 4817  14.440  14.976  10.463 -0.0128 -0.1848  0.1570
  391YOPC   GL2 4818  14.666  14.846  10.376 -0.0320 -0.2546  0.1362
  391YOPC   C1A 4819  14.243  15.144  10.031  0.0928  0.0679  0.1032
  391YOPC   D2A 4820  14.387  15.048   9.539  0.0285  0.1911 -0.0114
  391YOPC   C3A 4821  14.770  14.897   9.364  0.1026 -0.1188 -0.2455
  391YOPC   C4A 4822  15.097  14.846   9.024  0.3711 -0.0295 -0.3663
  391YOPC   C1B 4823  14.920  14.792  10.010 -0.1461 -0.0201 -0.4459
  391YOPC   C2B 4824  15.218  14.577   9.702 -0.0277 -0.2770  0.1534
  391YOPC   D3B 4825  14.981  14.434   9.369  0.1064 -0.0873  0.0550
  391YOPC   C4B 4826  15.024  14.213   8.921  0.2158  0.2124  0.1868
  392YOPC   NC3 4827  11.218  11.345  10.070  0.0781 -0.1536 -0.0256
  392YOPC   PO4 4828  11.024  11.702   9.994 -0.1671 -0.0399  0.0344
  392YOPC   GL1 4829  11.151  11.680   9.563  0.0461 -0.0223  0.1990
  392YOPC   GL2 4830  10.863  11.663   9.356 -0.1850 -0.0960  0.1557
  392YOPC   C1A 4831  11.369  11.652   9.178 -0.2396 -0.0741  0.0847
  392YOPC   D2A 4832  11.484  11.730   8.758  0.3068  0.0297  0.0757
  392YOPC   C3A 4833  11.273  12.067   8.452 -0.1278  0.3428  0.0098
  392YOPC   C4A 4834  11.288  12.346   8.135 -0.0887  0.1070 -0.2213
  392YOPC   C1B 4835  10.777  11.695   8.944  0.2583  0.1431 -0.2145
  392YOPC   C2B 4836  10.815  11.765   8.603 -0.0725 -0.0241  0.0625
  392YOPC   D3B 4837  10.611  11.472   8.375 -0.0307  0.1444 -0.0569
  392YOPC   C4B 4838  10.752  11.110   8.044  0.0417 -0.1108 -0.1357
  393YOPC   NC3 4839  11.962   1.104  10.091  0.0025  0.1474  0.1808
  393YOPC   PO4 4840  11.767   1.282   9.824 -0.1074  0.0376 -0.0266
  393YOPC   GL1 4841  12.017   1.352   9.489  0.2210 -0.1452 -0.3563
  393YOPC   GL2 4842  11.851   1.312   9.306 -0.0202  0.3605  0.0577
  393YOPC   C1A 4843  12.370   1.246   9.303  0.1381  0.0439 -0.3029
  393YOPC   D2A 4844  12.695   1.364   9.102 -0.0035  0.1162 -0.0499
  393YOPC   C3A 4845  12.529   1.435   8.699  0.0795 -0.1893 -0.0882
  393YOPC   C4A 4846  12.432   1.357   8.298  0.0153  0.1515  0.2418
  393YOPC   C1B 4847  11.619   1.652   9.028 -0.0948  0.2755 -0.1228
  393YOPC   C2B 4848  11.337   1.731   8.672  0.4754 -0.1269  0.0608
  393YOPC   D3B 4849  11.354   1.517   8.266 -0.3069  0.2352 -0.0310
  393YOPC   C4B 4850  11.505   1.069   8.199  0.0779 -0.1090  0.0783
  394YOPC   NC3 4851   1.284   5.313   9.959  0.4280 -0.0008  0.2507
  394YOPC   PO4 4852   1.065   5.688  10.097  0.0876  0.3536 -0.3671
  394YOPC   GL1 4853   1.052   5.669   9.610  0.1496 -0.0166  0.1730
  394YOPC   GL2 4854   0.902   5.325   9.479 -0.0613  0.0823 -0.0126
  394YOPC   C1A 4855   0.917   5.768   9.203 -0.1356  0.1789  0.1834
  394YOPC   D2A 4856   0.943   5.721   8.707  0.0319 -0.0121  0.3002
  394YOPC   C3A 4857   1.326   5.396   8.538 -0.1426 -0.0913 -0.0816
  394YOPC   C4A 4858   1.544   5.309   8.048 -0.1018  0.4675 -0.1495
  394YOPC   C1B 4859   1.107   5.319   9.119 -0.0750  0.0119 -0.1630
  394YOPC   C2B 4860   0.997   5.069   8.694 -0.1994  0.0310 -0.0707
  394YOPC   D3B 4861   1.079   4.673   8.481  0.2126  0.1338  0.0441
  394YOPC   C4B 4862   1.277   4.367   8.308  0.1478  0.1268  0.0760
  395YOPC   NC3 4863  17.768   8.410   9.823  0.2219 -0.1468  0.1854
  395YOPC   PO4 4864  18.180   8.139  10.043  0.3422 -0.0472  0.2395
  395YOPC   GL1 4865  18.241   8.162   9.618  0.0934 -0.0430  0.1726
  395YOPC   GL2 4866  17.967   7.900   9.395  0.1714 -0.0343  0.0112
  395YOPC   C1A 4867  18.157   8.325   9.183  0.0669 -0.0022  0.2017
  395YOPC   D2A 4868  18.241   8.310   8.757 -0.0366  0.2506  0.0751
  395YOPC   C3A 4869  18.353   8.493   8.390  0.2966  0.0648 -0.1182
  395YOPC   C4A 4870  18.550   8.695   8.147  0.2530 -0.0474  0.4177
  395YOPC   C1B 4871  17.918   7.941   8.939 -0.4857  0.0151  0.2024
  395YOPC   C2B 4872  18.004   7.879   8.517  0.1283  0.0959  0.2105
  395YOPC   D3B 4873  17.948   8.163   8.234  0.5015  0.0188  0.0945
  395YOPC   C4B 4874  17.887   8.339   7.824 -0.0773  0.0054 -0.0150
  396YOPC   NC3 4875  11.446  13.681  11.052  0.0910 -0.0847 -0.2210
  396YOPC   PO4 4876  11.589  13.448  10.716 -0.0061 -0.1468  0.5280
  396YOPC   GL1 4877  11.405  13.283  10.293 -0.2402 -0.1562 -0.2700
  396YOPC   GL2 4878  11.579  13.253   9.990  0.2079  0.0996 -0.1341
  396YOPC   C1A 4879  11.053  13.350   9.960 -0.1282  0.0905  0.0921
  396YOPC   D2A 4880  10.675  13.131   9.797 -0.2347  0.1384  0.3424
  396YOPC   C3A 4881  10.379  13.133   9.429  0.1088 -0.0122 -0.1510
  396YOPC   C4A 4882  10.290  12.956   9.115 -0.4089 -0.1834 -0.0143
  396YOPC   C1B 4883  11.500  13.540   9.627  0.4270 -0.0107  0.0331
  396YOPC   C2B 4884  11.597  13.785   9.286 -0.0115  0.0756  0.0221
  396YOPC   D3B 4885  11.895  13.650   8.946 -0.4430 -0.0885 -0.6049
  396YOPC   C4B 4886  12.298  13.483   8.769 -0.0327 -0.3418  0.0169
  397YOPC   NC3 4887   6.101  16.808  10.407  0.1094  0.0976 -0.1538
  397YOPC   PO4 4888   5.733  16.582  10.628 -0.2867  0.1963 -0.0806
  397YOPC   GL1 4889   5.591  16.786  10.194 -0.0294 -0.1382  0.1715
  397YOPC   GL2 4890   5.625  16.557   9.904 -0.0749 -0.2049 -0.0220
  397YOPC   C1A 4891   5.386  17.144  10.003  0.2182  0.1331 -0.2554
  397YOPC   D2A 4892   5.094  17.486   9.789 -0.1041  0.2280  0.1610
  397YOPC   C3A 4893   4.920  17.529   9.319  0.3293 -0.0249  0.0811
  397YOPC   C4A 4894   4.860  17.289   8.945  0.1733  0.1631  0.0686
  397YOPC   C1B 4895   5.543  16.439   9.436 -0.0441 -0.1432  0.1400
  397YOPC   C2B 4896   5.289  16.579   9.169  0.0423  0.1749  0.3782
  397YOPC   D3B 4897   5.262  16.289   8.837 -0.0409  0.0844 -0.1121
  397YOPC   C4B 4898   5.234  15.833   8.803 -0.0633  0.1942 -0.1736
  398YOPC   NC3 4899   7.904   6.604  10.205  0.0303 -0.4746  0.1611
  398YOPC   PO4 4900   7.756   6.087  10.234 -0.0429 -0.1892 -0.0502
  398YOPC   GL1 4901   7.869   6.248   9.826 -0.1179  0.2461  0.1727
  398YOPC   GL2 4902   7.689   6.567   9.713 -0.2100 -0.0767  0.1690
  398YOPC   C1A 4903   8.157   6.037   9.483 -0.0592 -0.1780  0.0988
  398YOPC   D2A 4904   8.300   6.024   9.174 -0.4221  0.2226  0.0175
  398YOPC   C3A 4905   8.370   5.624   9.004  0.1047 -0.1959  0.4352
  398YOPC   C4A 4906   8.064   5.252   8.887 -0.1781 -0.1150 -0.2907
  398YOPC   C1B 4907   7.590   6.838   9.504 -0.0935  0.1916  0.0686
  398YOPC   C2B 4908   7.604   7.044   9.135  0.0979 -0.4085  0.3276
  398YOPC   D3B 4909   7.289   7.399   9.091 -0.3561  0.0913  0.0629
  398YOPC   C4B 4910   7.225   7.830   8.919 -0.0144 -0.1868  0.2111
  399YOPC   NC3 4911  11.657   7.177  10.057 -0.0189  0.1141 -0.3378
  399YOPC   PO4 4912  11.723   7.531   9.979 -0.1243 -0.1020 -0.0243
  399YOPC   GL1 4913  11.836   7.758   9.567 -0.2823 -0.2573 -0.2008
  399YOPC   GL2 4914  12.193   7.705   9.438 -0.1009 -0.2289 -0.1760
  399YOPC   C1A 4915  11.799   7.995   9.206  0.0257 -0.2984  0.0082
  399YOPC   D2A 4916  11.700   7.774   8.840 -0.0561  0.2024 -0.1210
  399YOPC   C3A 4917  11.369   7.746   8.520 -0.3192 -0.0951 -0.0485
  399YOPC   C4A 4918  11.415   7.609   8.125 -0.1478  0.3380 -0.2555
  399YOPC   C1B 4919  11.988   7.455   9.079 -0.0192  0.1237 -0.0150
  399YOPC   C2B 4920  11.756   7.312   8.647 -0.1622 -0.0424  0.0927
  399YOPC   D3B 4921  11.820   7.583   8.392  0.1701 -0.3026  0.2599
  399YOPC   C4B 4922  11.946   7.642   7.896  0.1697 -0.0868  0.0451
  400YOPC   NC3 4923   8.616  14.579  10.163 -0.0803  0.0487  0.0857
  400YOPC   PO4 4924   9.011  14.402  10.146  0.3392  0.0172 -0.0456
  400YOPC   GL1 4925   8.781  14.302   9.721  0.0993  0.1717  0.3849
  400YOPC   GL2 4926   8.547  14.145   9.848 -0.2594  0.4256  0.2580
  400YOPC   C1A 4927   8.784  14.131   9.375  0.0713  0.0669  0.1326
  400YOPC   D2A 4928   8.741  14.005   8.911  0.3306  0.1546 -0.3328
  400YOPC   C3A 4929   9.019  13.713   8.630  0.1448  0.1165  0.2603
  400YOPC   C4A 4930   8.883  13.321   8.289 -0.0420  0.3313  0.1779
  400YOPC   C1B 4931   8.493  13.797   9.657  0.0334  0.1448  0.0487
  400YOPC   C2B 4932   8.567  13.650   9.304  0.1202 -0.1618  0.1563
  400YOPC   D3B 4933   8.572  13.560   8.928  0.0908 -0.0420  0.0257
  400YOPC   C4B 4934   8.536  13.605   8.632 -0.2894  0.0835 -0.3431
  401YOPC   NC3 4935   4.927  11.063  10.266 -0.0140 -0.2086 -0.2437
  401YOPC   PO4 4936   4.549  11.046  10.285  0.1855  0.0246 -0.0345
  401YOPC   GL1 4937   4.611  11.317   9.904  0.2153 -0.0330  0.1371
  401YOPC   GL2 4938   4.903  11.417   9.947  0.1374  0.1939 -0.0159
  401YOPC   C1A 4939   4.437  11.444   9.461 -0.0989 -0.0676  0.2382
  401YOPC   D2A 4940   4.459  11.262   9.125  0.2008  0.0116 -0.1469
  401YOPC   C3A 4941   4.512  11.583   8.799  0.0450 -0.1413  0.2504
  401YOPC   C4A 4942   4.472  11.899   8.610 -0.0317 -0.5926 -0.2330
  401YOPC   C1B 4943   4.980  11.522   9.592 -0.1648  0.1150  0.0027
  401YOPC   C2B 4944   4.919  11.465   9.189 -0.1184  0.1429 -0.4325
  401YOPC   D3B 4945   5.088  11.638   8.823 -0.1632 -0.3780 -0.1553
  401YOPC   C4B 4946   5.101  11.952   8.424  0.1987  0.1229  0.1142
  402YOPC   NC3 4947  17.308   7.874  10.188 -0.1526 -0.0118 -0.1898
  402YOPC   PO4 4948  17.303   8.166   9.909  0.0967 -0.2032 -0.2200
  402YOPC   GL1 4949  17.336   8.344   9.436  0.0945 -0.1978 -0.1182
  402YOPC   GL2 4950  17.701   8.347   9.310 -0.2739 -0.2148 -0.1614
  402YOPC   C1A 4951  17.311   8.544   9.035  0.1360  0.1783  0.2331
  402YOPC   D2A 4952  17.260   8.519   8.537  0.3220  0.0862  0.0584
  402YOPC   C3A 4953  16.984   8.407   8.252 -0.2053  0.0439  0.0518
  402YOPC   C4A 4954  16.524   8.332   8.115 -0.0160  0.1729 -0.1510
  402YOPC   C1B 4955  17.765   8.427   8.792 -0.2543 -0.0722 -0.1104
  402YOPC   C2B 4956  17.761   8.541   8.456 -0.0082 -0.3430  0.3356
  402YOPC   D3B 4957  17.534   8.931   8.185  0.1799  0.2612 -0.0865
  402YOPC   C4B 4958  17.419   9.006   7.800 -0.2279  0.3630  0.0136
  403YOPC   NC3 4959  18.304   4.714  10.113  0.0719  0.5072 -0.0242
  403YOPC   PO4 4960  18.003   4.362  10.126  0.1424 -0.4024 -0.1403
  403YOPC   GL1 4961  18.141   3.985   9.985 -0.1549  0.1239  0.1756
  403YOPC   GL2 4962  18.241   3.669  10.115  0.0173  0.2524  0.1766
  403YOPC   C1A 4963  18.197   3.948   9.577  0.0889 -0.2998  0.2073
  403YOPC   D2A 4964  17.895   3.745   9.346 -0.1811  0.2252  0.1281
  403YOPC   C3A 4965  17.978   3.607   8.913 -0.3693 -0.1132  0.3449
  403YOPC   C4A 4966  17.858   3.199   8.598  0.1264  0.1666 -0.0939
  403YOPC   C1B 4967  18.040   3.369   9.822  0.2726  0.0332  0.1303
  403YOPC   C2B 4968  18.137   3.330   9.334 -0.0133  0.0751 -0.2123
  403YOPC   D3B 4969  17.933   2.911   9.214 -0.2127 -0.0669 -0.0803
  403YOPC   C4B 4970  17.680   2.737   9.050  0.0902  0.2299 -0.1419
  404YOPC   NC3 4971   6.363  17.443  10.421  0.0292  0.0555  0.3190
  404YOPC   PO4 4972   6.404  17.138  10.132  0.0985 -0.3425  0.1405
  404YOPC   GL1 4973   6.365  17.076   9.692  0.0448  0.1813  0.0016
  404YOPC   GL2 4974   6.646  16.802   9.630 -0.2643  0.1327 -0.2381
  404YOPC   C1A 4975   6.136  17.112   9.354 -0.0564 -0.2365  0.1551
  404YOPC   D2A 4976   6.044  16.942   8.914  0.1705 -0.0892 -0.0496
  404YOPC   C3A 4977   5.759  16.630   8.828 -0.1272 -0.1579  0.0872
  404YOPC   C4A 4978   5.705  16.233   9.068 -0.0815 -0.2328  0.4029
  404YOPC   C1B 4979   6.473  16.726   9.133  0.0179  0.1319  0.1133
  404YOPC   C2B 4980   6.564  16.681   8.602  0.2151 -0.1823 -0.0043
  404YOPC   D3B 4981   6.209  16.852   8.439 -0.2163 -0.1394 -0.1394
  404YOPC   C4B 4982   5.801  16.917   8.416  0.1226  0.2783 -0.0998
  405YOPC   NC3 4983   1.931   4.204  10.902  0.0550 -0.1764 -0.0980
  405YOPC   PO4 4984   1.608   4.272  10.484  0.0870 -0.0500  0.1693
  405YOPC   GL1 4985   1.707   4.225  10.060 -0.0151 -0.3313  0.4070
  405YOPC   GL2 4986   1.757   4.619  10.052  0.1770  0.0316  0.0583
  405YOPC   C1A 4987   1.515   3.979   9.752  0.0171  0.1524 -0.0744
  405YOPC   D2A 4988   1.156   3.968   9.417 -0.1479  0.0869  0.2579
  405YOPC   C3A 4989   1.201   4.154   9.109 -0.1790  0.1447  0.0898
  405YOPC   C4A 4990   1.415   4.418   8.759  0.1431 -0.0083  0.2807
  405YOPC   C1B 4991   1.638   4.409   9.560 -0.0377  0.0646 -0.0447
  405YOPC   C2B 4992   1.772   4.326   9.149 -0.1733 -0.0790 -0.0528
  405YOPC   D3B 4993   2.114   4.014   8.931 -0.1420  0.0322  0.0925
  405YOPC   C4B 4994   2.398   3.857   8.698  0.2828 -0.1963  0.1338
  406YOPC   NC3 4995  12.862   6.902   9.732  0.1570  0.0520  0.0498
  406YOPC   PO4 4996  12.688   7.495   9.654 -0.0197  0.1031 -0.0926
  406YOPC   GL1 4997  12.618   7.534   9.191  0.2031  0.0246 -0.1070
  406YOPC   GL2 4998  12.427   7.252   9.000 -0.1084  0.1964 -0.1998
  406YOPC   C1A 4999  12.668   7.863   8.774 -0.2191  0.0324  0.2488
  406YOPC   D2A 5000  12.731   7.990   8.431 -0.2407  0.3536 -0.2166
  406YOPC   C3A 5001  12.441   8.354   8.241  0.0065  0.0187 -0.2123
  406YOPC   C4A 5002  12.159   8.561   7.984 -0.0943  0.0506  0.1330
  406YOPC   C1B 5003  12.281   7.361   8.578 -0.1499 -0.1654 -0.0292
  406YOPC   C2B 5004  12.156   7.263   8.147  0.1569 -0.3444 -0.0492
  406YOPC   D3B 5005  12.091   6.848   8.033 -0.0987  0.0574  0.0185
  406YOPC   C4B 5006  11.781   6.663   7.706 -0.2375 -0.0127  0.0439
  407YOPC   NC3 5007   4.261  17.953  10.745 -0.0922  0.2934  0.0001
  407YOPC   PO4 5008   4.183  18.402  10.744  0.2603  0.0526  0.2498
  407YOPC   GL1 5009   4.319  18.212  10.353  0.0628 -0.0273  0.1827
  407YOPC   GL2 5010   4.065  17.990  10.255  0.0534 -0.0083  0.1429
  407YOPC   C1A 5011   4.374  18.231   9.919 -0.1236  0.1677 -0.3575
  407YOPC   D2A 5012   4.302  18.253   9.423 -0.1122 -0.1885 -0.1137
  407YOPC   C3A 5013   4.346  17.810   9.221 -0.0859  0.0536 -0.0225
  407YOPC   C4A 5014   4.448  17.563   8.889 -0.0483  0.2620 -0.1474
  407YOPC   C1B 5015   3.717  18.063  10.005  0.1389 -0.0166 -0.0049
  407YOPC   C2B 5016   3.473  17.813   9.696  0.0794  0.4096 -0.0179
  407YOPC   D3B 5017   3.394  17.912   9.306 -0.1242 -0.2013 -0.0074
  407YOPC   C4B 5018   3.158  18.151   9.110 -0.1819 -0.3343 -0.0985
  408YOPC   NC3 5019  14.036  16.466  11.741 -0.0788  0.1943  0.2097
  408YOPC   PO4 5020  14.021  16.618  11.163 -0.2878 -0.1297  0.1434
  408YOPC   GL1 5021  14.194  16.829  10.749  0.1913 -0.1323  0.1251
  408YOPC   GL2 5022  14.263  16.540  10.510 -0.0471  0.0796 -0.2664
  408YOPC   C1A 5023  14.380  16.959  10.327 -0.0273 -0.1156 -0.2171
  408YOPC   D2A 5024  14.205  17.027  10.024  0.2143 -0.4726  0.0837
  408YOPC   C3A 5025  14.376  17.013   9.594 -0.1628  0.0072 -0.2343
  408YOPC   C4A 5026  14.244  16.919   9.196 -0.1107 -0.0177  0.0467
  408YOPC   C1B 5027  14.057  16.516  10.052 -0.2441 -0.0807  0.0302
  408YOPC   C2B 5028  14.056  16.594   9.585 -0.3774  0.0827 -0.0319
  408YOPC   D3B 5029  14.425  16.489   9.375  0.3234 -0.1046  0.1992
  408YOPC   C4B 5030  14.569  16.328   8.972 -0.2620 -0.1376  0.1068
  409YOPC   NC3 5031  17.927   1.619  11.399  0.1937 -0.1639 -0.0737
  409YOPC   PO4 5032  17.724   1.621  10.928  0.0200  0.0330 -0.1189
  409YOPC   GL1 5033  17.527   1.393  10.492  0.0797 -0.0274 -0.0734
  409YOPC   GL2 5034  17.567   1.086  10.310 -0.0779  0.0605 -0.1969
  409YOPC   C1A 5035  17.464   1.810  10.166 -0.0553 -0.3374  0.2119
  409YOPC   D2A 5036  17.699   2.071   9.870 -0.0060  0.1853  0.1931
  409YOPC   C3A 5037  17.568   1.952   9.425 -0.0979  0.4659 -0.1698
  409YOPC   C4A 5038  17.434   1.903   8.976 -0.2168  0.0975  0.0579
  409YOPC   C1B 5039  18.004   1.068  10.155 -0.1654  0.0252 -0.1289
  409YOPC   C2B 5040  18.385   0.905   9.902  0.2368  0.2184  0.0233
  409YOPC   D3B 5041  18.366   0.846   9.531 -0.3334 -0.1313  0.0998
  409YOPC   C4B 5042  18.385   0.809   9.085 -0.1406  0.2915 -0.0121
  410YOPC   NC3 5043   8.029   8.848  10.035 -0.0672 -0.2146  0.0254
  410YOPC   PO4 5044   8.504   8.841   9.952 -0.2977  0.0244  0.3004
  410YOPC   GL1 5045   8.492   8.957   9.622  0.2480 -0.0896  0.2015
  410YOPC   GL2 5046   8.385   9.292   9.626 -0.0878  0.3056  0.2740
  410YOPC   C1A 5047   8.750   8.948   9.263  0.2602 -0.3647 -0.1997
  410YOPC   D2A 5048   8.709   9.048   8.824 -0.0413  0.1815 -0.1481
  410YOPC   C3A 5049   8.834   8.733   8.495  0.2122  0.1175  0.0140
  410YOPC   C4A 5050   8.936   8.334   8.425 -0.2436  0.3343  0.1791
  410YOPC   C1B 5051   8.380   9.307   9.183  0.3537 -0.1587 -0.1189
  410YOPC   C2B 5052   8.439   9.474   8.771 -0.1807  0.1451 -0.4767
  410YOPC   D3B 5053   8.226   9.219   8.518  0.1396  0.1086 -0.0522
  410YOPC   C4B 5054   8.328   9.078   8.228 -0.1780 -0.0562 -0.1368
  411YOPC   NC3 5055  15.167   6.455   9.711 -0.0089 -0.3800 -0.0169
  411YOPC   PO4 5056  15.602   6.475   9.762  0.0766 -0.1114  0.1673
  411YOPC   GL1 5057  15.498   6.505   9.364  0.0773 -0.1966  0.2495
  411YOPC   GL2 5058  15.238   6.272   9.207  0.1233 -0.2500  0.0629
  411YOPC   C1A 5059  15.695   6.558   8.992 -0.2573 -0.1559  0.2493
  411YOPC   D2A 5060  15.626   6.506   8.597 -0.0529  0.3456 -0.1016
  411YOPC   C3A 5061  15.931   6.535   8.326 -0.3462  0.5740 -0.1205
  411YOPC   C4A 5062  16.302   6.328   8.180 -0.1291  0.1259 -0.2061
  411YOPC   C1B 5063  15.033   6.190   8.865 -0.0175 -0.0909  0.2676
  411YOPC   C2B 5064  15.014   6.099   8.431  0.0886  0.1559 -0.1344
  411YOPC   D3B 5065  15.172   5.741   8.423 -0.0662  0.1908  0.3016
  411YOPC   C4B 5066  15.285   5.396   8.345  0.1155  0.0602 -0.1192
  412YOPC   NC3 5067   3.843  12.887  11.502 -0.3366 -0.1659  0.1224
  412YOPC   PO4 5068   3.751  12.908  11.041 -0.2628 -0.1898 -0.1617
  412YOPC   GL1 5069   3.810  13.174  10.591  0.5208 -0.0762  0.2458
  412YOPC   GL2 5070   3.625  13.048  10.279 -0.1057 -0.1705 -0.0993
  412YOPC   C1A 5071   4.139  13.125  10.216 -0.0994  0.0996 -0.1705
  412YOPC   D2A 5072   4.434  13.275   9.993 -0.3245 -0.1234  0.0375
  412YOPC   C3A 5073   4.724  13.130  10.150 -0.0732 -0.0027 -0.0115
  412YOPC   C4A 5074   5.181  13.113  10.088  0.1337  0.5001  0.1772
  412YOPC   C1B 5075   3.655  12.949   9.835  0.0317  0.2217 -0.0370
  412YOPC   C2B 5076   3.771  12.997   9.406  0.0483 -0.2035 -0.2402
  412YOPC   D3B 5077   3.774  13.114   9.016 -0.0699 -0.3343 -0.1446
  412YOPC   C4B 5078   4.049  13.271   8.620  0.0666  0.0144  0.1012
  413YOPC   NC3 5079  11.454  15.544  10.512 -0.0502  0.0231 -0.1559
  413YOPC   PO4 5080  11.488  15.158  10.244  0.3761  0.1712 -0.1267
  413YOPC   GL1 5081  11.304  15.199   9.838  0.3068 -0.0598  0.0470
  413YOPC   GL2 5082  11.293  14.974   9.593 -0.2990 -0.0262 -0.3245
  413YOPC   C1A 5083  11.083  15.454   9.467  0.1947  0.0465  0.1677
  413YOPC   D2A 5084  11.158  15.573   8.952 -0.1096 -0.0066 -0.3107
  413YOPC   C3A 5085  10.999  15.269   8.762 -0.0814 -0.0521 -0.1712
  413YOPC   C4A 5086  10.725  15.073   8.462 -0.0606  0.2656 -0.1428
  413YOPC   C1B 5087  11.160  15.011   9.135 -0.0459  0.0771 -0.3707
  413YOPC   C2B 5088  11.465  15.144   8.852 -0.3297 -0.2090  0.0159
  413YOPC   D3B 5089  11.946  15.040   8.710  0.0721  0.0116  0.3171
  413YOPC   C4B 5090  12.126  15.407   8.572 -0.3818  0.3243 -0.0014
  414YOPC   NC3 5091   6.265   9.983  10.147 -0.1699 -0.0742  0.2291
  414YOPC   PO4 5092   5.820   9.825  10.118 -0.1761  0.0326 -0.0205
  414YOPC   GL1 5093   5.966  10.071   9.742  0.2618  0.2233  0.1784
  414YOPC   GL2 5094   6.249  10.313   9.786  0.0818  0.1096 -0.0580
  414YOPC   C1A 5095   5.989  10.244   9.309 -0.5483 -0.0114  0.2942
  414YOPC   D2A 5096   6.183  10.464   8.952  0.0162 -0.2674 -0.1148
  414YOPC   C3A 5097   5.788  10.436   8.703  0.0240 -0.0507  0.2109
  414YOPC   C4A 5098   5.647  10.547   8.430 -0.2163  0.3708  0.1518
  414YOPC   C1B 5099   6.421  10.594   9.385 -0.3256  0.1918 -0.0132
  414YOPC   C2B 5100   6.590  10.728   8.992  0.1968  0.2620  0.0840
  414YOPC   D3B 5101   6.253  10.844   8.642  0.0838  0.0191 -0.0677
  414YOPC   C4B 5102   5.826  10.955   8.735  0.1219  0.1343 -0.4773
  415YOPC   NC3 5103   0.739  10.598   9.817 -0.1016  0.0336  0.1644
  415YOPC   PO4 5104   0.787  11.066   9.805  0.1815  0.0969  0.0203
  415YOPC   GL1 5105   0.732  10.941   9.450  0.0820 -0.1608  0.0518
  415YOPC   GL2 5106   0.988  11.021   9.269 -0.1307 -0.0352  0.0668
  415YOPC   C1A 5107   0.357  10.996   9.200  0.0726 -0.2695 -0.1795
  415YOPC   D2A 5108   0.373  11.068   8.678  0.1061 -0.1734 -0.0380
  415YOPC   C3A 5109   0.188  11.373   8.444  0.0823 -0.1839  0.1847
  415YOPC   C4A 5110   0.545  11.524   8.277 -0.2235  0.2939  0.1026
  415YOPC   C1B 5111   0.708  10.820   8.949 -0.2134  0.0476 -0.1933
  415YOPC   C2B 5112   0.746  10.847   8.423  0.0224  0.1108 -0.0213
  415YOPC   D3B 5113   0.754  10.761   8.025  0.4851  0.2187  0.2471
  415YOPC   C4B 5114   0.533  11.060   8.023 -0.2265 -0.2616 -0.1255
  416YOPC   NC3 5115   6.147  17.908  10.652 -0.2267  0.1826  0.2184
  416YOPC   PO4 5116   6.019  17.973  10.195  0.0353 -0.1283 -0.1126
  416YOPC   GL1 5117   5.901  18.133   9.795 -0.0816  0.2601  0.4943
  416YOPC   GL2 5118   5.580  18.289   9.696  0.2121 -0.0834  0.2475
  416YOPC   C1A 5119   6.113  18.091   9.387  0.0273 -0.0682 -0.1842
  416YOPC   D2A 5120   5.949  18.101   8.962 -0.1668  0.0237 -0.4384
  416YOPC   C3A 5121   5.725  17.761   8.801 -0.3370 -0.0882 -0.1021
  416YOPC   C4A 5122   5.714  17.299   8.806  0.2022 -0.2044  0.2950
  416YOPC   C1B 5123   5.657  18.231   9.326 -0.0114 -0.3575  0.1468
  416YOPC   C2B 5124   5.435  18.142   8.903 -0.2162  0.0396  0.2312
  416YOPC   D3B 5125   5.601  18.112   8.446  0.0948 -0.1945  0.1764
  416YOPC   C4B 5126   5.571  17.882   8.038 -0.0058  0.0696  0.0521
  417YOPC   NC3 5127   7.019   0.841   9.724 -0.1124  0.0004  0.2117
  417YOPC   PO4 5128   7.248   1.199   9.957 -0.2086 -0.3849  0.0988
  417YOPC   GL1 5129   7.350   1.220   9.592  0.3274 -0.0847 -0.1405
  417YOPC   GL2 5130   7.503   1.073   9.451 -0.2048  0.0914 -0.0686
  417YOPC   C1A 5131   7.179   1.250   9.137 -0.0317 -0.0681 -0.1531
  417YOPC   D2A 5132   7.287   1.598   8.854  0.0034 -0.1911  0.2760
  417YOPC   C3A 5133   7.439   1.631   8.488 -0.4264 -0.0436  0.1050
  417YOPC   C4A 5134   7.516   1.923   8.164  0.0085  0.2768 -0.2340
  417YOPC   C1B 5135   7.635   1.159   9.116 -0.0238  0.0597 -0.0443
  417YOPC   C2B 5136   7.737   1.441   8.918 -0.4379  0.2952 -0.3066
  417YOPC   D3B 5137   8.046   1.489   8.708  0.1604 -0.0129 -0.1125
  417YOPC   C4B 5138   8.331   1.763   8.269  0.5206  0.2438  0.1289
  418YOPC   NC3 5139  12.111  13.281  10.791  0.2241 -0.0668 -0.1033
  418YOPC   PO4 5140  12.248  12.922  10.914 -0.2058 -0.0686 -0.1721
  418YOPC   GL1 5141  12.384  12.967  10.483  0.0082  0.0248 -0.2113
  418YOPC   GL2 5142  12.136  12.766  10.400 -0.2747  0.1343  0.3162
  418YOPC   C1A 5143  12.619  12.894  10.114  0.0341 -0.0561 -0.1053
  418YOPC   D2A 5144  12.807  13.090   9.796 -0.0664  0.1346 -0.4014
  418YOPC   C3A 5145  13.074  12.971   9.495  0.1927  0.1338  0.2404
  418YOPC   C4A 5146  13.399  12.955   9.329  0.0576 -0.0676 -0.1138
  418YOPC   C1B 5147  12.378  12.493  10.006 -0.0070 -0.0227 -0.1172
  418YOPC   C2B 5148  12.543  12.639   9.619  0.1615  0.2132  0.0647
  418YOPC   D3B 5149  12.563  12.302   9.319 -0.0553 -0.1559  0.1391
  418YOPC   C4B 5150  12.873  11.961   9.324  0.1905  0.1118  0.2063
  419YOPC   NC3 5151  13.230  14.627  10.774  0.0545  0.3814 -0.0286
  419YOPC   PO4 5152  12.942  14.424  10.424  0.2485 -0.0751  0.0678
  419YOPC   GL1 5153  12.915  14.108  10.137 -0.1229 -0.3587 -0.2134
  419YOPC   GL2 5154  12.652  14.330   9.986  0.1550  0.1119 -0.1133
  419YOPC   C1A 5155  13.230  13.930   9.841 -0.2744 -0.1711 -0.0174
  419YOPC   D2A 5156  13.263  13.910   9.325 -0.2488  0.0377  0.3020
  419YOPC   C3A 5157  13.605  14.113   9.134  0.1491 -0.3356  0.0926
  419YOPC   C4A 5158  13.791  14.361   8.763  0.1942 -0.3542 -0.3031
  419YOPC   C1B 5159  12.722  14.112   9.650  0.2807  0.0955  0.1021
  419YOPC   C2B 5160  12.835  14.168   9.174 -0.1587 -0.2970 -0.3045
  419YOPC   D3B 5161  12.749  14.142   8.779  0.1112 -0.1638  0.1036
  419YOPC   C4B 5162  12.409  14.287   8.486 -0.2327  0.2363 -0.2780
  420YOPC   NC3 5163   5.888   4.223  10.023 -0.2197 -0.0535 -0.4240
  420YOPC   PO4 5164   6.202   3.829  10.057 -0.1256 -0.3862  0.0413
  420YOPC   GL1 5165   6.440   3.764   9.556 -0.2157 -0.1464  0.1356
  420YOPC   GL2 5166   6.433   4.093   9.399  0.0003 -0.0650 -0.0024
  420YOPC   C1A 5167   6.666   3.732   9.159 -0.1888 -0.0284 -0.0920
  420YOPC   D2A 5168   6.789   3.833   8.741 -0.2280  0.4609 -0.2653
  420YOPC   C3A 5169   6.812   4.048   8.366  0.0247 -0.0269 -0.2835
  420YOPC   C4A 5170   6.950   4.306   8.073  0.0971  0.2059 -0.1645
  420YOPC   C1B 5171   6.314   4.158   8.954 -0.1693 -0.3287  0.2895
  420YOPC   C2B 5172   6.268   3.855   8.528 -0.5537 -0.4545 -0.1613
  420YOPC   D3B 5173   6.434   3.894   8.126 -0.3400  0.2219  0.1207
  420YOPC   C4B 5174   6.848   3.933   7.773  0.0294  0.1661 -0.1823
  421YOPC   NC3 5175  15.944  13.690  11.150  0.1375 -0.2991  0.1670
  421YOPC   PO4 5176  15.630  13.575  10.787  0.0563  0.3987 -0.0232
  421YOPC   GL1 5177  15.603  13.538  10.343 -0.0987  0.0347  0.1192
  421YOPC   GL2 5178  15.356  13.406  10.422  0.1791 -0.0048 -0.0578
  421YOPC   C1A 5179  15.701  13.645   9.919  0.0515  0.1970 -0.0963
  421YOPC   D2A 5180  15.467  13.574   9.583  0.0304 -0.0454  0.2116
  421YOPC   C3A 5181  15.680  13.618   9.167 -0.0329  0.2813 -0.1465
  421YOPC   C4A 5182  15.586  13.911   8.816 -0.2548  0.1857 -0.1024
  421YOPC   C1B 5183  15.164  13.567   9.997  0.1869  0.0170 -0.0153
  421YOPC   C2B 5184  14.954  13.305   9.651  0.2698  0.1643 -0.0164
  421YOPC   D3B 5185  14.916  13.498   9.228  0.1469 -0.2069  0.0347
  421YOPC   C4B 5186  14.702  13.917   9.050  0.0443  0.1275  0.2485
  422YOPC   NC3 5187  17.832   1.029  10.763 -0.0370 -0.2766  0.0480
  422YOPC   PO4 5188  18.273   0.943  10.979  0.2190  0.0856  0.2241
  422YOPC   GL1 5189  18.408   0.878  10.573  0.0431  0.0066 -0.0755
  422YOPC   GL2 5190  18.279   0.732  10.431 -0.1044  0.0557 -0.1373
  422YOPC   C1A 5191  18.698   1.023  10.250  0.1383  0.0800  0.2794
  422YOPC   D2A 5192  18.889   1.303   9.952  0.0594  0.0792  0.2247
  422YOPC   C3A 5193  18.768   1.166   9.615  0.0407  0.1003  0.1332
  422YOPC   C4A 5194  18.833   0.878   9.228  0.1096 -0.1586  0.2660
  422YOPC   C1B 5195  18.234   0.438  10.078 -0.0473 -0.2844 -0.0769
  422YOPC   C2B 5196  18.111   0.378   9.697 -0.0672  0.2055  0.0327
  422YOPC   D3B 5197  18.157   0.434   9.289 -0.1152 -0.2952  0.4625
  422YOPC   C4B 5198  18.083   0.455   8.899 -0.1958  0.2802 -0.1798
  423YOPC   NC3 5199  17.238  12.681  10.917 -0.0842  0.1699 -0.2740
  423YOPC   PO4 5200  17.505  13.122  10.988 -0.0112 -0.0286 -0.3451
  423YOPC   GL1 5201  17.625  13.468  10.731 -0.1998  0.1119  0.4058
  423YOPC   GL2 5202  17.808  13.555  10.407  0.0200  0.2836  0.4174
  423YOPC   C1A 5203  17.320  13.643  10.429  0.0219 -0.1105 -0.1352
  423YOPC   D2A 5204  17.428  13.858  10.143 -0.0057 -0.1125 -0.0935
  423YOPC   C3A 5205  17.545  14.239  10.336 -0.0006  0.0732  0.0820
  423YOPC   C4A 5206  17.714  14.396  10.627  0.1211 -0.2153  0.1268
  423YOPC   C1B 5207  17.860  13.738  10.005  0.0983 -0.2165  0.1900
  423YOPC   C2B 5208  18.033  13.844   9.643 -0.0928  0.0799 -0.1816
  423YOPC   D3B 5209  17.752  13.903   9.228 -0.0907  0.0536  0.3060
  423YOPC   C4B 5210  17.739  14.139   8.899  0.2142 -0.2358  0.0988
  424YOPC   NC3 5211  14.859   7.563   9.263  0.2763  0.0433 -0.0572
  424YOPC   PO4 5212  15.096   7.821   9.088 -0.1553  0.2262  0.4143
  424YOPC   GL1 5213  14.879   7.662   8.738 -0.0787 -0.3665 -0.0536
  424YOPC   GL2 5214  14.976   7.925   8.584  0.0188  0.2470  0.0597
  424YOPC   C1A 5215  14.806   7.661   8.203 -0.3179  0.0748  0.0157
  424YOPC   D2A 5216  14.994   7.694   7.799  0.0882 -0.4359  0.1495
  424YOPC   C3A 5217  15.465   7.767   7.885 -0.0197  0.2912 -0.2243
  424YOPC   C4A 5218  15.752   8.176   7.730  0.0393  0.0246  0.2343
  424YOPC   C1B 5219  15.200   8.028   8.199 -0.1996  0.1178 -0.2895
  424YOPC   C2B 5220  15.289   8.320   7.887 -0.0282 -0.1534  0.1904
  424YOPC   D3B 5221  15.145   8.252   7.464  0.0349  0.0266 -0.0101
  424YOPC   C4B 5222  14.882   7.923   7.373 -0.0933 -0.0921  0.1380
  425YOPC   NC3 5223   8.862   2.675   9.926 -0.0103  0.1985  0.2597
  425YOPC   PO4 5224   9.086   3.124  10.076 -0.3793 -0.1283 -0.1121
  425YOPC   GL1 5225   9.526   3.188   9.883 -0.3667  0.1360  0.0384
  425YOPC   GL2 5226   9.716   2.871   9.903  0.2636 -0.0237  0.1459
  425YOPC   C1A 5227   9.558   3.076   9.446 -0.2131 -0.1806 -0.2827
  425YOPC   D2A 5228   9.909   3.015   9.081  0.2500 -0.2176  0.2604
  425YOPC   C3A 5229   9.804   2.900   8.697  0.0313  0.3319  0.0323
  425YOPC   C4A 5230   9.405   2.889   8.412  0.0420 -0.3352  0.0002
  425YOPC   C1B 5231   9.412   2.648   9.626  0.2297  0.2242  0.1334
  425YOPC   C2B 5232   9.374   2.250   9.664  0.1713  0.3304 -0.0946
  425YOPC   D3B 5233   9.261   1.936   9.282 -0.1819 -0.1045  0.1739
  425YOPC   C4B 5234   8.932   1.807   9.010 -0.2881  0.2836 -0.0249
  426YOPC   NC3 5235   0.081  15.474  11.405 -0.0275 -0.0375  0.0621
  426YOPC   PO4 5236  -0.250  15.438  11.120  0.1483 -0.2746 -0.1442
  426YOPC   GL1 5237  -0.188  15.234  10.769  0.0604  0.0161 -0.0072
  426YOPC   GL2 5238  -0.439  14.863  10.667  0.0094  0.1226  0.0765
  426YOPC   C1A 5239   0.272  15.272  10.600  0.0500  0.2261  0.3794
  426YOPC   D2A 5240   0.615  15.479  10.760  0.3174 -0.1935  0.1307
  426YOPC   C3A 5241   0.821  15.816  10.598 -0.3406 -0.3027  0.2812
  426YOPC   C4A 5242   1.026  16.169  10.401 -0.2038  0.2473  0.0626
  426YOPC   C1B 5243  -0.173  15.032  10.279 -0.1541  0.1518  0.1509
  426YOPC   C2B 5244   0.000  15.232   9.984  0.0304 -0.1423  0.0183
  426YOPC   D3B 5245   0.000  15.236   9.495 -0.3463 -0.2399 -0.0707
  426YOPC   C4B 5246  -0.002  15.177   9.055  0.2320 -0.0966 -0.2425
  427YOPC   NC3 5247  13.344  17.936  10.465  0.1232 -0.0079 -0.2638
  427YOPC   PO4 5248  12.970  17.907  10.238  0.4793 -0.0799 -0.1066
  427YOPC   GL1 5249  13.095  17.776   9.882  0.1839 -0.0777  0.0039
  427YOPC   GL2 5250  12.905  17.517   9.805  0.1109  0.0511  0.2535
  427YOPC   C1A 5251  13.339  17.551   9.573 -0.2280  0.0404  0.0793
  427YOPC   D2A 5252  13.166  17.397   9.151 -0.0779  0.0053  0.1748
  427YOPC   C3A 5253  12.884  17.002   9.009 -0.1693 -0.0510 -0.3794
  427YOPC   C4A 5254  12.620  17.096   8.674  0.1492  0.1927 -0.2174
  427YOPC   C1B 5255  12.822  17.159   9.488  0.1256  0.0907 -0.0319
  427YOPC   C2B 5256  12.795  16.633   9.411 -0.1832 -0.2582 -0.1667
  427YOPC   D3B 5257  13.040  16.529   8.992  0.1390  0.0837 -0.2677
  427YOPC   C4B 5258  13.421  16.245   9.017  0.1658  0.0513  0.0163
  428YOPC   NC3 5259   9.771  13.148  10.642 -0.0663 -0.2392 -0.2880
  428YOPC   PO4 5260   9.582  12.807  10.664 -0.1017  0.3733 -0.2263
  428YOPC   GL1 5261   9.479  13.061  10.261  0.1807  0.0529 -0.1841
  428YOPC   GL2 5262   9.308  12.909  10.075  0.2577  0.1764 -0.1285
  428YOPC   C1A 5263   9.804  12.967   9.888 -0.0163 -0.2076  0.0937
  428YOPC   D2A 5264   9.877  13.104   9.573 -0.1681  0.2416 -0.1926
  428YOPC   C3A 5265   9.846  13.135   9.170  0.0465  0.1208 -0.2068
  428YOPC   C4A 5266  10.026  13.288   8.787  0.0608 -0.1259 -0.2020
  428YOPC   C1B 5267   9.364  13.038   9.655  0.3304 -0.2380  0.0039
  428YOPC   C2B 5268   9.374  13.115   9.231 -0.1238 -0.2222  0.0789
  428YOPC   D3B 5269   9.538  13.008   8.812 -0.1952 -0.0003  0.2592
  428YOPC   C4B 5270   9.605  12.764   8.544  0.1589  0.2345 -0.1850
  429YOPC   NC3 5271   1.695  11.400  10.151  0.0076 -0.0251 -0.0141
  429YOPC   PO4 5272   1.324  11.519  10.075  0.0064 -0.3435  0.2323
  429YOPC   GL1 5273   1.320  11.598   9.615 -0.1360 -0.2898 -0.1560
  429YOPC   GL2 5274   1.017  11.469   9.559  0.1457  0.0235 -0.1682
  429YOPC   C1A 5275   1.543  11.620   9.252  0.3626  0.2938 -0.1227
  429YOPC   D2A 5276   1.716  11.654   8.765 -0.0368 -0.0124 -0.0318
  429YOPC   C3A 5277   1.656  11.285   8.424  0.1265 -0.1774  0.2311
  429YOPC   C4A 5278   1.892  11.226   7.996  0.2925  0.1780 -0.1741
  429YOPC   C1B 5279   1.058  11.467   9.117 -0.0751 -0.1158 -0.2715
  429YOPC   C2B 5280   0.846  11.237   8.724  0.3183  0.0410  0.0330
  429YOPC   D3B 5281   0.968  11.249   8.307 -0.0225  0.1445  0.0683
  429YOPC   C4B 5282   1.284  11.383   8.115 -0.0420  0.0051 -0.0102
  430YOPC   NC3 5283   8.624   9.865  10.554  0.2902 -0.0176  0.0937
  430YOPC   PO4 5284   8.987   9.909  10.236 -0.0134 -0.0165 -0.3363
  430YOPC   GL1 5285   8.812  10.185   9.876 -0.1350  0.0034  0.0581
  430YOPC   GL2 5286   8.464  10.194   9.792  0.1487  0.1833  0.2981
  430YOPC   C1A 5287   8.821  10.203   9.457 -0.0118  0.0868  0.0406
  430YOPC   D2A 5288   9.024  10.092   9.002  0.1498 -0.1632 -0.1123
  430YOPC   C3A 5289   9.052  10.225   8.693  0.1927 -0.2451 -0.1511
  430YOPC   C4A 5290   9.228  10.362   8.386 -0.0711 -0.1335  0.1696
  430YOPC   C1B 5291   8.268  10.245   9.405 -0.0986 -0.3963 -0.0001
  430YOPC   C2B 5292   8.129  10.143   9.011 -0.0210 -0.1478  0.0686
  430YOPC   D3B 5293   7.779  10.128   8.785 -0.0695 -0.0493  0.1115
  430YOPC   C4B 5294   7.570  10.064   8.390  0.4005  0.0782  0.0084
  431YOPC   NC3 5295   2.848  10.281  10.034  0.0683  0.0390  0.2493
  431YOPC   PO4 5296   2.760   9.940   9.820  0.1476  0.0086 -0.1939
  431YOPC   GL1 5297   2.911  10.009   9.370 -0.3197  0.2120  0.0157
  431YOPC   GL2 5298   3.107   9.736   9.258  0.0122  0.2351  0.1379
  431YOPC   C1A 5299   2.890  10.097   8.896 -0.0416 -0.1234 -0.2753
  431YOPC   D2A 5300   3.113  10.209   8.490 -0.0807  0.5302  0.0839
  431YOPC   C3A 5301   3.266  10.448   8.279  0.0330 -0.3284  0.0799
  431YOPC   C4A 5302   3.573  10.495   7.862 -0.1225  0.0258 -0.0111
  431YOPC   C1B 5303   3.311   9.628   8.998  0.1888 -0.0286  0.1409
  431YOPC   C2B 5304   3.360   9.834   8.694  0.1711  0.0921  0.0488
  431YOPC   D3B 5305   3.637   9.906   8.480 -0.0912  0.0099 -0.1152
  431YOPC   C4B 5306   3.804  10.210   8.152 -0.2261 -0.2186  0.0047
  432YOPC   NC3 5307  10.208   0.679  10.323  0.0420  0.0521  0.4859
  432YOPC   PO4 5308  10.613   0.681  10.053  0.0254  0.0532 -0.5231
  432YOPC   GL1 5309  10.524   0.557   9.664 -0.0928  0.0961 -0.1911
  432YOPC   GL2 5310  10.273   0.463   9.752 -0.0342  0.0261  0.1880
  432YOPC   C1A 5311  10.769   0.322   9.251  0.1977 -0.1263 -0.1118
  432YOPC   D2A 5312  10.963   0.251   8.782  0.2779  0.1248 -0.2426
  432YOPC   C3A 5313  10.658   0.059   8.517 -0.0702  0.2147  0.1507
  432YOPC   C4A 5314  10.775  -0.209   8.209  0.0478  0.2816 -0.0915
  432YOPC   C1B 5315  10.223   0.269   9.341 -0.0967 -0.1167  0.1056
  432YOPC   C2B 5316  10.428  -0.008   9.051  0.0368  0.4516  0.4780
  432YOPC   D3B 5317  10.285  -0.206   8.689  0.0151  0.0245 -0.0494
  432YOPC   C4B 5318  10.007  -0.402   8.381 -0.1430 -0.1235 -0.1577
  433YOPC   NC3 5319   4.603  15.584  10.934 -0.3116 -0.1636  0.0565
  433YOPC   PO4 5320   4.822  16.076  10.805  0.2991 -0.1048 -0.0418
  433YOPC   GL1 5321   4.440  16.032  10.474  0.3504 -0.1065 -0.0512
  433YOPC   GL2 5322   4.157  15.981  10.678  0.2636 -0.2190  0.2489
  433YOPC   C1A 5323   4.641  15.982  10.004  0.3191 -0.1081 -0.4160
  433YOPC   D2A 5324   4.776  15.969   9.578  0.1432 -0.0332 -0.0153
  433YOPC   C3A 5325   4.777  15.752   9.196 -0.1039 -0.0301  0.0254
  433YOPC   C4A 5326   4.847  15.491   8.756 -0.0725  0.2923 -0.2824
  433YOPC   C1B 5327   4.018  15.664  10.343  0.3156 -0.0917 -0.3317
  433YOPC   C2B 5328   4.104  15.381  10.045 -0.2266 -0.0633  0.1656
  433YOPC   D3B 5329   4.018  15.355   9.557 -0.2692 -0.1194  0.0725
  433YOPC   C4B 5330   4.027  15.069   9.188  0.1910 -0.0231 -0.0266
  434YOPC   NC3 5331  13.352   6.158   9.542  0.1296 -0.1107  0.3120
  434YOPC   PO4 5332  13.624   6.455   9.296  0.1223  0.1976 -0.3243
  434YOPC   GL1 5333  13.533   6.262   9.035  0.1086  0.1275  0.0984
  434YOPC   GL2 5334  13.649   6.402   8.760 -0.0238 -0.0749  0.1277
  434YOPC   C1A 5335  13.314   5.995   8.774 -0.0419 -0.3516 -0.3854
  434YOPC   D2A 5336  13.425   5.999   8.432 -0.1494 -0.2315 -0.3711
  434YOPC   C3A 5337  13.293   5.907   7.903  0.0554  0.0615 -0.0053
  434YOPC   C4A 5338  13.068   6.132   7.742  0.0728 -0.3412 -0.3308
  434YOPC   C1B 5339  13.524   6.498   8.304 -0.1291 -0.0208  0.2295
  434YOPC   C2B 5340  13.295   6.625   8.021 -0.0890  0.2489 -0.2479
  434YOPC   D3B 5341  12.925   6.627   7.932  0.0574 -0.0582 -0.0483
  434YOPC   C4B 5342  12.475   6.523   7.933 -0.1252  0.1599 -0.1079
  435YOPC   NC3 5343   4.154   0.429  10.537  0.0940  0.1687  0.0502
  435YOPC   PO4 5344   4.010   0.729  10.840 -0.2067 -0.1115  0.1302
  435YOPC   GL1 5345   3.594   0.875  10.695 -0.0928  0.0736 -0.1854
  435YOPC   GL2 5346   3.763   0.734  10.368  0.0626  0.1548  0.3024
  435YOPC   C1A 5347   3.424   1.008  10.166  0.1209  0.3187  0.2804
  435YOPC   D2A 5348   3.314   1.128   9.758  0.1000 -0.2991 -0.1818
  435YOPC   C3A 5349   3.321   0.842   9.425  0.1713  0.0480 -0.0294
  435YOPC   C4A 5350   3.005   0.686   9.161  0.1229 -0.1627  0.0066
  435YOPC   C1B 5351   3.905   0.723   9.976 -0.2058  0.0542 -0.2583
  435YOPC   C2B 5352   3.823   0.625   9.573  0.1053  0.1130 -0.1464
  435YOPC   D3B 5353   3.540   0.335   9.583 -0.0456  0.2300  0.0739
  435YOPC   C4B 5354   3.163   0.238   9.270  0.0273  0.1021  0.2101
  436YOPC   NC3 5355   8.649   4.205   9.561  0.0296 -0.5993  0.2543
  436YOPC   PO4 5356   8.614   4.698   9.538  0.0195 -0.1242 -0.2163
  436YOPC   GL1 5357   8.759   4.894   9.230  0.1003  0.0412 -0.3173
  436YOPC   GL2 5358   8.651   5.197   9.337  0.2242  0.0782  0.4852
  436YOPC   C1A 5359   8.617   5.172   8.829  0.1937 -0.1314 -0.1507
  436YOPC   D2A 5360   8.336   5.162   8.485  0.1772 -0.0978  0.1120
  436YOPC   C3A 5361   8.636   5.198   8.095  0.2715  0.1270 -0.1196
  436YOPC   C4A 5362   8.863   5.323   7.762 -0.1308 -0.0840  0.2372
  436YOPC   C1B 5363   8.873   5.437   9.181 -0.1540  0.0998  0.0025
  436YOPC   C2B 5364   8.896   5.648   8.862  0.4753  0.0184  0.0028
  436YOPC   D3B 5365   8.614   5.619   8.541  0.3737 -0.0527 -0.0863
  436YOPC   C4B 5366   8.485   5.762   8.153 -0.2133 -0.0262 -0.0074
  437YOPC   NC3 5367   5.326   9.768   9.958 -0.2750 -0.1507  0.1257
  437YOPC   PO4 5368   4.979   9.520   9.765  0.1113 -0.0066 -0.1890
  437YOPC   GL1 5369   5.091   9.775   9.440 -0.3580  0.1871 -0.2605
  437YOPC   GL2 5370   4.724   9.777   9.211 -0.0889 -0.2503 -0.0943
  437YOPC   C1A 5371   5.216   9.711   9.034  0.0571 -0.0030  0.1820
  437YOPC   D2A 5372   5.330   9.604   8.665 -0.4084 -0.1494  0.0095
  437YOPC   C3A 5373   5.704   9.472   8.469 -0.2531 -0.1981 -0.0953
  437YOPC   C4A 5374   6.126   9.316   8.174  0.1840  0.0107 -0.2130
  437YOPC   C1B 5375   4.844   9.901   8.754 -0.3414 -0.1852  0.0319
  437YOPC   C2B 5376   5.140   9.965   8.408  0.0333 -0.3383  0.1795
  437YOPC   D3B 5377   5.638  10.024   8.424  0.1629 -0.1357  0.1563
  437YOPC   C4B 5378   5.747  10.194   8.139  0.0947 -0.3734 -0.3709
  438YOPC   NC3 5379  15.491   0.928  10.992 -0.0814 -0.1561 -0.0802
  438YOPC   PO4 5380  15.558   0.480  10.837  0.2831 -0.2153  0.0128
  438YOPC   GL1 5381  15.741   0.668  10.439 -0.3024  0.0907  0.0477
  438YOPC   GL2 5382  15.614   0.701  10.156  0.1162  0.6072 -0.3605
  438YOPC   C1A 5383  16.029   0.540   9.997 -0.1521 -0.1772 -0.2546
  438YOPC   D2A 5384  16.270   0.600   9.740  0.1735  0.0769 -0.2629
  438YOPC   C3A 5385  16.113   0.363   9.363 -0.0437 -0.0589  0.0099
  438YOPC   C4A 5386  16.007  -0.076   9.142 -0.2217  0.1112 -0.2824
  438YOPC   C1B 5387  15.596   0.788   9.759 -0.2455  0.0255 -0.0425
  438YOPC   C2B 5388  15.645   0.551   9.392 -0.0103  0.0712 -0.1326
  438YOPC   D3B 5389  15.609   0.082   9.367 -0.0318  0.2050 -0.3076
  438YOPC   C4B 5390  15.544  -0.323   9.245  0.0691 -0.0619 -0.1347
  439YOPC   NC3 5391   7.080   5.382  10.035  0.2900 -0.0266  0.1684
  439YOPC   PO4 5392   6.677   5.449   9.867 -0.1232  0.0967 -0.0013
  439YOPC   GL1 5393   6.670   5.256   9.475 -0.0932 -0.1586  0.0961
  439YOPC   GL2 5394   6.416   5.083   9.432  0.2732  0.0351  0.1049
  439YOPC   C1A 5395   6.824   5.465   9.166  0.0029 -0.2324 -0.0927
  439YOPC   D2A 5396   7.045   5.421   8.850  0.0917  0.1436  0.0402
  439YOPC   C3A 5397   7.184   5.510   8.486 -0.1299  0.0993  0.0083
  439YOPC   C4A 5398   7.607   5.664   8.461  0.2954  0.1593 -0.0940
  439YOPC   C1B 5399   6.181   5.270   9.076 -0.0073  0.4987 -0.0360
  439YOPC   C2B 5400   6.276   5.542   8.767  0.1847  0.0459  0.0121
  439YOPC   D3B 5401   6.299   5.474   8.278  0.2234  0.0070 -0.3828
  439YOPC   C4B 5402   6.038   5.576   7.871 -0.1247  0.0234  0.0168
  440YOPC   NC3 5403  17.281  15.508  11.056 -0.1100 -0.1936 -0.3107
  440YOPC   PO4 5404  17.452  15.913  10.874 -0.2916  0.1225  0.0590
  440YOPC   GL1 5405  17.576  15.697  10.508 -0.1643  0.0386 -0.0175
  440YOPC   GL2 5406  17.409  15.621  10.253  0.1323  0.1423  0.1491
  440YOPC   C1A 5407  17.960  15.629  10.268 -0.0144  0.0913  0.6276
  440YOPC   D2A 5408  18.406  15.630  10.272  0.0705 -0.0940 -0.1617
  440YOPC   C3A 5409  18.692  15.786  10.429 -0.0345  0.1677 -0.1578
  440YOPC   C4A 5410  18.912  16.218  10.442 -0.1977 -0.1693 -0.3298
  440YOPC   C1B 5411  17.501  15.578   9.789  0.0398 -0.0523 -0.3019
  440YOPC   C2B 5412  17.413  15.663   9.378 -0.1603  0.0520 -0.2834
  440YOPC   D3B 5413  17.189  16.063   9.591  0.5617 -0.0305  0.0785
  440YOPC   C4B 5414  17.138  16.386   9.765 -0.0029  0.1968 -0.1908
  441YOPC   NC3 5415  10.477  15.109  10.646 -0.0006  0.1815  0.0031
  441YOPC   PO4 5416  10.537  15.021  10.180 -0.0408 -0.4968  0.0210
  441YOPC   GL1 5417  10.781  14.948   9.762 -0.2043 -0.1884  0.2735
  441YOPC   GL2 5418  10.565  14.643   9.700 -0.0225 -0.0297 -0.1569
  441YOPC   C1A 5419  10.705  14.986   9.353  0.0948 -0.1944  0.0468
  441YOPC   D2A 5420  10.699  14.870   8.925 -0.0486  0.1496 -0.1435
  441YOPC   C3A 5421  10.734  14.609   8.551  0.4283 -0.1506 -0.0222
  441YOPC   C4A 5422  10.653  14.564   8.127  0.1128  0.1372  0.1503
  441YOPC   C1B 5423  10.511  14.556   9.308  0.3414  0.1497  0.3427
  441YOPC   C2B 5424  10.415  14.399   8.931  0.3106 -0.1158  0.2575
  441YOPC   D3B 5425  10.143  14.412   8.725 -0.0256 -0.4150 -0.1440
  441YOPC   C4B 5426   9.914  14.506   8.393 -0.0276  0.3953  0.0259
  442YOPC   NC3 5427  15.700  17.234  11.022  0.1452  0.1404  0.0637
  442YOPC   PO4 5428  15.307  17.021  11.002  0.0746  0.1797 -0.0507
  442YOPC   GL1 5429  15.430  17.041  10.649 -0.0322  0.0484  0.1486
  442YOPC   GL2 5430  15.180  17.312  10.500  0.0831 -0.1055  0.2111
  442YOPC   C1A 5431  15.173  16.849  10.284 -0.2354 -0.0596  0.1102
  442YOPC   D2A 5432  14.947  16.966   9.952  0.2209 -0.0855 -0.1773
  442YOPC   C3A 5433  15.108  17.288   9.958  0.0405 -0.0822 -0.1835
  442YOPC   C4A 5434  14.913  17.664   9.873 -0.2546 -0.1846  0.1871
  442YOPC   C1B 5435  15.520  17.229  10.197  0.0358 -0.0074  0.0572
  442YOPC   C2B 5436  15.863  17.003  10.103  0.1975  0.0373 -0.0776
  442YOPC   D3B 5437  15.862  16.712   9.716 -0.3863 -0.3497 -0.2039
  442YOPC   C4B 5438  15.701  16.813   9.282  0.0186  0.1210 -0.0411
  443YOPC   NC3 5439  12.185   5.577   9.900  0.1348  0.3629  0.1716
  443YOPC   PO4 5440  12.505   5.931   9.927  0.0862 -0.0507  0.1945
  443YOPC   GL1 5441  12.493   5.958   9.481  0.0486 -0.0143  0.0930
  443YOPC   GL2 5442  12.271   5.724   9.399 -0.1809  0.0216 -0.1923
  443YOPC   C1A 5443  12.845   5.910   9.186  0.1901 -0.2474  0.0764
  443YOPC   D2A 5444  13.221   5.776   9.212 -0.3289 -0.0774  0.0502
  443YOPC   C3A 5445  13.283   5.562   8.927  0.3848  0.3536 -0.1781
  443YOPC   C4A 5446  13.312   5.116   8.941  0.0480  0.0765 -0.1530
  443YOPC   C1B 5447  12.346   5.794   9.001 -0.2108 -0.0155 -0.1019
  443YOPC   C2B 5448  12.393   5.947   8.575  0.0696  0.0555  0.1417
  443YOPC   D3B 5449  12.442   5.585   8.323  0.2628 -0.5901  0.0036
  443YOPC   C4B 5450  12.583   5.140   8.180 -0.2631 -0.2183 -0.0975
  444YOPC   NC3 5451   7.820   4.810   9.883 -0.1924 -0.0888 -0.3510
  444YOPC   PO4 5452   7.830   5.246   9.785 -0.2041  0.3770 -0.1973
  444YOPC   GL1 5453   7.867   5.003   9.383  0.0255 -0.0614 -0.0868
  444YOPC   GL2 5454   8.228   4.878   9.325  0.0676 -0.0703  0.1624
  444YOPC   C1A 5455   7.714   4.849   8.987 -0.0344  0.1703  0.1763
  444YOPC   D2A 5456   7.523   4.564   8.648  0.1725  0.2193 -0.3896
  444YOPC   C3A 5457   7.412   4.418   8.164  0.0594 -0.2109  0.0803
  444YOPC   C4A 5458   7.447   4.565   7.808 -0.1398 -0.0210  0.0673
  444YOPC   C1B 5459   8.216   4.782   8.899 -0.0265 -0.0072  0.2918
  444YOPC   C2B 5460   8.002   4.760   8.504  0.1217  0.1737  0.0391
  444YOPC   D3B 5461   8.198   4.754   8.162 -0.1217 -0.2802  0.2553
  444YOPC   C4B 5462   8.386   4.432   7.871  0.1164 -0.3756  0.0760
  445YOPC   NC3 5463  12.622   2.010  10.348 -0.2223 -0.1656  0.1412
  445YOPC   PO4 5464  12.446   1.853  10.040 -0.1509 -0.2833  0.2499
  445YOPC   GL1 5465  12.661   1.761   9.713 -0.2352  0.1637  0.3560
  445YOPC   GL2 5466  12.479   1.666   9.470 -0.1772 -0.1066  0.2993
  445YOPC   C1A 5467  12.945   1.636   9.392 -0.0448 -0.0434 -0.0459
  445YOPC   D2A 5468  13.076   1.602   8.935  0.0908 -0.0641  0.1034
  445YOPC   C3A 5469  12.895   1.765   8.584  0.4334 -0.1488  0.0854
  445YOPC   C4A 5470  12.580   1.824   8.449  0.1585 -0.0999 -0.0841
  445YOPC   C1B 5471  12.670   1.887   9.086  0.2713 -0.2360 -0.0444
  445YOPC   C2B 5472  12.978   2.141   8.978 -0.0090  0.0133 -0.0751
  445YOPC   D3B 5473  13.248   2.061   8.694 -0.3629 -0.1503  0.1650
  445YOPC   C4B 5474  13.668   2.244   8.478 -0.1490 -0.0297  0.2179
  446YOPC   NC3 5475   1.599   9.946  10.157  0.0939 -0.2415 -0.1374
  446YOPC   PO4 5476   1.820  10.016   9.896 -0.1559 -0.3090  0.3994
  446YOPC   GL1 5477   1.699   9.646   9.738 -0.0666 -0.1658  0.1260
  446YOPC   GL2 5478   1.929   9.679   9.468 -0.1241 -0.4266  0.0085
  446YOPC   C1A 5479   1.389   9.560   9.487 -0.0040  0.1350  0.0154
  446YOPC   D2A 5480   1.130   9.434   9.124  0.1732 -0.0664  0.1242
  446YOPC   C3A 5481   1.224   9.366   8.713  0.1210  0.1318  0.2073
  446YOPC   C4A 5482   0.959   9.327   8.398 -0.1755  0.2376  0.0217
  446YOPC   C1B 5483   1.597   9.748   9.112  0.0106 -0.2010 -0.2988
  446YOPC   C2B 5484   1.326   9.886   8.843  0.0070  0.1393  0.2411
  446YOPC   D3B 5485   1.273   9.802   8.436  0.2445  0.0599  0.0058
  446YOPC   C4B 5486   1.280   9.572   8.078  0.2766  0.0193 -0.2071
  447YOPC   NC3 5487  11.541   9.048  10.270  0.0183  0.2292  0.1111
  447YOPC   PO4 5488  11.418   9.306   9.997  0.0503  0.1225  0.3489
  447YOPC   GL1 5489  11.170   9.467   9.600  0.0250  0.0902 -0.1708
  447YOPC   GL2 5490  10.914   9.497   9.591 -0.2975 -0.3438  0.3278
  447YOPC   C1A 5491  11.207   9.664   9.256  0.1236  0.2254  0.2985
  447YOPC   D2A 5492  11.011   9.642   8.969  0.0001  0.3165 -0.3656
  447YOPC   C3A 5493  11.358   9.369   8.703  0.0861  0.0169  0.1184
  447YOPC   C4A 5494  11.440   9.167   8.289  0.0916  0.1753  0.1420
  447YOPC   C1B 5495  10.647   9.393   9.267 -0.1254  0.0320  0.0425
  447YOPC   C2B 5496  10.531   9.642   8.936  0.0335 -0.1439 -0.3277
  447YOPC   D3B 5497  10.718   9.750   8.585 -0.0284 -0.0638  0.3525
  447YOPC   C4B 5498  10.985   9.534   8.451  0.1497  0.0886  0.2339
  448YOPC   NC3 5499   0.363  17.648  11.268  0.1149  0.1224  0.0332
  448YOPC   PO4 5500   0.295  17.315  10.899  0.0297  0.0368 -0.2761
  448YOPC   GL1 5501   0.333  17.287  10.468  0.1877 -0.2828 -0.0220
  448YOPC   GL2 5502   0.094  17.119  10.455  0.1297  0.0805  0.2040
  448YOPC   C1A 5503   0.443  17.559  10.133 -0.1019 -0.0050  0.0273
  448YOPC   D2A 5504   0.763  17.551   9.731 -0.0826  0.2776 -0.1389
  448YOPC   C3A 5505   0.864  17.963   9.527 -0.1618 -0.2377 -0.2031
  448YOPC   C4A 5506   0.827  18.302   9.260  0.0886 -0.0197  0.3166
  448YOPC   C1B 5507   0.114  17.177  10.017  0.1217 -0.1710 -0.0331
  448YOPC   C2B 5508   0.220  17.320   9.633 -0.0449  0.1623  0.1349
  448YOPC   D3B 5509   0.006  17.133   9.254  0.0879 -0.3271 -0.0453
  448YOPC   C4B 5510  -0.248  16.987   8.956  0.1538 -0.0978 -0.1891
  449YOPC   NC3 5511   2.035  17.624  10.954  0.4165 -0.2506 -0.4133
  449YOPC   PO4 5512   2.490  17.776  10.886 -0.0679  0.0777  0.0147
  449YOPC   GL1 5513   2.425  17.779  10.396 -0.0412  0.0559  0.1077
  449YOPC   GL2 5514   2.613  17.456  10.230 -0.1363  0.0009  0.0437
  449YOPC   C1A 5515   2.341  18.175  10.277  0.0928 -0.1967  0.3238
  449YOPC   D2A 5516   2.150  18.301   9.909 -0.0995  0.1514  0.2580
  449YOPC   C3A 5517   2.138  18.694   9.693  0.2833 -0.0849 -0.0364
  449YOPC   C4A 5518   2.075  18.846   9.282 -0.0128 -0.0875  0.0357
  449YOPC   C1B 5519   2.187  17.249  10.014 -0.1594 -0.1329  0.0484
  449YOPC   C2B 5520   1.978  17.290   9.590  0.1257  0.0887  0.0291
  449YOPC   D3B 5521   1.862  17.347   9.168 -0.0411  0.1487 -0.0833
  449YOPC   C4B 5522   1.588  17.638   8.973 -0.0565 -0.4101 -0.1800
  450YOPC   NC3 5523  15.665  15.787  10.830 -0.0666 -0.0694 -0.0577
  450YOPC   PO4 5524  16.114  15.962  10.815 -0.3277  0.0810  0.1184
  450YOPC   GL1 5525  16.065  15.718  10.508 -0.1620 -0.1507 -0.0621
  450YOPC   GL2 5526  16.078  15.476  10.581 -0.3390 -0.0541 -0.0620
  450YOPC   C1A 5527  15.738  15.629  10.218 -0.0322 -0.1733  0.3072
  450YOPC   D2A 5528  15.671  15.407   9.954  0.1217  0.0878 -0.2547
  450YOPC   C3A 5529  15.756  15.539   9.570  0.0652 -0.2117  0.2184
  450YOPC   C4A 5530  15.728  15.524   9.130 -0.0666  0.1122  0.3427
  450YOPC   C1B 5531  16.078  15.211  10.277 -0.0155  0.0136  0.1237
  450YOPC   C2B 5532  16.066  15.170   9.818  0.2148  0.3784  0.1347
  450YOPC   D3B 5533  16.173  14.873   9.525  0.0607 -0.2476  0.3483
  450YOPC   C4B 5534  16.237  14.786   9.098  0.1932 -0.2173 -0.0218
  451YOPC   NC3 5535   8.413   1.937  10.001  0.0165  0.1034 -0.1306
  451YOPC   PO4 5536   8.501   2.335   9.906 -0.0973  0.2306 -0.3446
  451YOPC   GL1 5537   8.417   2.097   9.414  0.1859  0.0840 -0.1018
  451YOPC   GL2 5538   8.284   1.852   9.411  0.0802 -0.3388 -0.0575
  451YOPC   C1A 5539   8.679   2.172   9.082  0.3925 -0.2193  0.0092
  451YOPC   D2A 5540   8.958   2.328   8.776 -0.0811  0.2591  0.1682
  451YOPC   C3A 5541   8.855   2.574   8.357  0.1355  0.4442  0.2403
  451YOPC   C4A 5542   9.133   2.738   8.012 -0.1319 -0.0509 -0.1846
  451YOPC   C1B 5543   8.307   1.779   8.970  0.3774  0.1961  0.0476
  451YOPC   C2B 5544   8.583   1.997   8.658 -0.1322  0.1070  0.0307
  451YOPC   D3B 5545   8.745   2.074   8.270  0.4175 -0.1068  0.0140
  451YOPC   C4B 5546   8.984   2.123   7.896  0.0594  0.2195 -0.0403
  452YOPC   NC3 5547   2.340  12.981  10.173  0.3786 -0.1419  0.1834
  452YOPC   PO4 5548   1.890  12.837  10.187 -0.1454  0.0815  0.1910
  452YOPC   GL1 5549   1.695  12.621   9.806 -0.0320  0.0422 -0.2054
  452YOPC   GL2 5550   1.888  12.332   9.683  0.0531  0.0621  0.1082
  452YOPC   C1A 5551   1.205  12.683   9.589 -0.1732 -0.0266  0.0410
  452YOPC   D2A 5552   1.070  12.899   9.340 -0.1563  0.2551 -0.1165
  452YOPC   C3A 5553   1.080  12.913   8.939 -0.0625  0.1388 -0.4599
  452YOPC   C4A 5554   0.886  12.962   8.587  0.2387 -0.0427 -0.0968
  452YOPC   C1B 5555   1.872  12.397   9.231  0.1570 -0.3631 -0.1750
  452YOPC   C2B 5556   1.649  12.361   8.857  0.1815 -0.2272 -0.1885
  452YOPC   D3B 5557   1.371  12.545   8.606 -0.0408 -0.1283 -0.2039
  452YOPC   C4B 5558   0.972  12.456   8.645 -0.1088 -0.2799  0.1618
  453YOPC   NC3 5559   2.920  17.031  10.505 -0.2829  0.0372  0.0108
  453YOPC   PO4 5560   3.232  16.790  10.497 -0.0804  0.2273  0.0109
  453YOPC   GL1 5561   3.052  16.619  10.094  0.0519 -0.0146 -0.1646
  453YOPC   GL2 5562   3.001  16.357  10.114  0.0169  0.0616  0.1941
  453YOPC   C1A 5563   3.098  16.805   9.642  0.1106 -0.1915  0.1682
  453YOPC   D2A 5564   2.870  16.935   9.204 -0.3753  0.2738  0.0299
  453YOPC   C3A 5565   3.084  16.839   8.923  0.1323 -0.0840  0.1902
  453YOPC   C4A 5566   3.071  17.094   8.550 -0.0388  0.2524 -0.0679
  453YOPC   C1B 5567   3.262  16.358   9.706  0.0393  0.0284 -0.2261
  453YOPC   C2B 5568   3.369  16.524   9.264  0.2851 -0.1665  0.1248
  453YOPC   D3B 5569   3.390  16.430   8.778 -0.2276 -0.0991  0.1655
  453YOPC   C4B 5570   3.623  16.121   8.448 -0.1114 -0.3349  0.0160
  454YOPC   NC3 5571   1.483  14.957  10.569  0.0265 -0.1339  0.3356
  454YOPC   PO4 5572   1.809  14.579  10.567 -0.3622 -0.0026  0.1371
  454YOPC   GL1 5573   1.817  14.865  10.201  0.0586 -0.0161  0.0839
  454YOPC   GL2 5574   1.635  14.675   9.994  0.2496 -0.1975 -0.1110
  454YOPC   C1A 5575   1.945  14.980   9.784  0.1592 -0.1163  0.0590
  454YOPC   D2A 5576   2.184  14.896   9.537 -0.0098  0.0564 -0.3130
  454YOPC   C3A 5577   2.429  15.163   9.294  0.0805 -0.1985 -0.2235
  454YOPC   C4A 5578   2.684  15.411   8.945  0.1610  0.0325 -0.4356
  454YOPC   C1B 5579   1.666  14.430   9.652  0.1173  0.0294 -0.2235
  454YOPC   C2B 5580   1.489  14.410   9.115  0.0660 -0.0359 -0.3035
  454YOPC   D3B 5581   1.718  14.249   8.862  0.3279  0.1632 -0.0231
  454YOPC   C4B 5582   1.497  13.999   8.580  0.1747 -0.0648 -0.0432
  455YOPC   NC3 5583   3.787  12.161  10.404  0.1891 -0.1668  0.0638
  455YOPC   PO4 5584   3.752  12.609  10.433  0.2516  0.1006  0.1660
  455YOPC   GL1 5585   3.657  12.496  10.009 -0.1271  0.0605  0.0740
  455YOPC   GL2 5586   3.353  12.388   9.938  0.0422 -0.0105 -0.0570
  455YOPC   C1A 5587   3.850  12.500   9.606 -0.1054 -0.0358 -0.4096
  455YOPC   D2A 5588   4.158  12.680   9.374 -0.1084 -0.1301  0.0456
  455YOPC   C3A 5589   4.355  12.929   8.950 -0.2705 -0.1248 -0.1084
  455YOPC   C4A 5590   4.345  12.785   8.519  0.2316  0.2943 -0.3852
  455YOPC   C1B 5591   3.344  12.528   9.608  0.3442  0.0580 -0.1445
  455YOPC   C2B 5592   3.358  12.677   9.353 -0.1830  0.0967 -0.0780
  455YOPC   D3B 5593   3.733  12.618   9.108 -0.2548  0.1343 -0.1606
  455YOPC   C4B 5594   3.899  12.632   8.740 -0.0562 -0.2080  0.1531
  456YOPC   NC3 5595  14.833  11.370  10.673  0.0778  0.1505 -0.0874
  456YOPC   PO4 5596  15.179  11.357  10.510  0.1066  0.2914  0.1988
  456YOPC   GL1 5597  15.267  11.395  10.034 -0.0999 -0.1252 -0.0134
  456YOPC   GL2 5598  15.470  11.069   9.820  0.1714 -0.2747  0.0489
  456YOPC   C1A 5599  15.108  11.693   9.682  0.2617 -0.0137 -0.0701
  456YOPC   D2A 5600  14.830  11.767   9.373  0.2476  0.0155 -0.2019
  456YOPC   C3A 5601  14.762  11.906   8.967 -0.0228 -0.0498 -0.1293
  456YOPC   C4A 5602  14.902  11.843   8.539  0.0208  0.1789 -0.2630
  456YOPC   C1B 5603  15.388  11.256   9.469  0.1358 -0.0701 -0.4058
  456YOPC   C2B 5604  15.386  11.753   9.303 -0.0158 -0.2760  0.0918
  456YOPC   D3B 5605  15.302  12.006   8.957  0.2351 -0.1508 -0.0349
  456YOPC   C4B 5606  15.440  12.383   8.874 -0.0874  0.0090  0.1444
  457YOPC   NC3 5607  18.201  17.304  10.822  0.1173  0.1245 -0.1154
  457YOPC   PO4 5608  17.989  17.678  10.829 -0.2312  0.4496  0.3090
  457YOPC   GL1 5609  18.071  18.059  10.658  0.3597 -0.0568  0.2948
  457YOPC   GL2 5610  17.973  18.349  10.659 -0.2622 -0.0698 -0.4476
  457YOPC   C1A 5611  17.748  18.078  10.273  0.0570  0.0770 -0.2349
  457YOPC   D2A 5612  17.940  18.255   9.845 -0.0251  0.3080 -0.0100
  457YOPC   C3A 5613  17.899  18.203   9.425  0.0174 -0.1769  0.0346
  457YOPC   C4A 5614  17.832  18.032   9.087  0.2126  0.3161 -0.0539
  457YOPC   C1B 5615  17.871  18.601  10.392  0.0455 -0.1311 -0.3627
  457YOPC   C2B 5616  17.567  18.608   9.934  0.0942 -0.0676 -0.1149
  457YOPC   D3B 5617  17.697  18.854   9.570 -0.1387  0.3180 -0.2817
  457YOPC   C4B 5618  17.715  18.600   9.184 -0.1521 -0.0293 -0.1364
  458YOPC   NC3 5619   3.898  17.304  10.620 -0.0502 -0.0305  0.1629
  458YOPC   PO4 5620   4.268  17.528  10.451 -0.2335 -0.1057 -0.0483
  458YOPC   GL1 5621   4.380  17.708  10.060  0.0464 -0.2541 -0.0763
  458YOPC   GL2 5622   4.676  17.599   9.995  0.0790 -0.0765 -0.2465
  458YOPC   C1A 5623   4.098  17.820   9.682 -0.1718 -0.3434  0.2345
  458YOPC   D2A 5624   3.871  17.842   9.276  0.1928 -0.1135  0.0201
  458YOPC   C3A 5625   3.992  17.842   8.851  0.1594  0.2694 -0.0943
  458YOPC   C4A 5626   4.245  17.788   8.456 -0.0826  0.1276  0.2536
  458YOPC   C1B 5627   4.622  17.825   9.595  0.4265 -0.0101 -0.0252
  458YOPC   C2B 5628   4.774  18.097   9.225 -0.0812 -0.2260 -0.0480
  458YOPC   D3B 5629   4.912  17.828   8.907  0.0513  0.1182 -0.1754
  458YOPC   C4B 5630   5.251  17.681   8.680 -0.0439  0.0227  0.0629
  459YOPC   NC3 5631   5.090  18.150  10.511  0.0508 -0.0166  0.5554
  459YOPC   PO4 5632   5.145  17.928  10.203  0.1052 -0.2631  0.3713
  459YOPC   GL1 5633   5.026  18.109   9.831  0.1112 -0.0010  0.0497
  459YOPC   GL2 5634   5.171  17.950   9.570 -0.0557  0.3195  0.1092
  459YOPC   C1A 5635   4.747  18.413   9.626 -0.1210  0.0481  0.1908
  459YOPC   D2A 5636   4.654  18.545   9.118 -0.1806  0.0631  0.0639
  459YOPC   C3A 5637   4.224  18.410   8.949  0.0602 -0.2402  0.1446
  459YOPC   C4A 5638   3.835  18.569   8.760 -0.3523  0.3261  0.3837
  459YOPC   C1B 5639   5.185  18.394   9.403  0.0289 -0.0573 -0.0409
  459YOPC   C2B 5640   5.203  18.597   9.027  0.1989  0.0162 -0.0151
  459YOPC   D3B 5641   4.954  18.336   8.753 -0.1537 -0.0785  0.1334
  459YOPC   C4B 5642   4.474  18.051   8.770  0.2711 -0.1700  0.0558
  460YOPC   NC3 5643   4.802  12.365  10.644 -0.0866  0.0650 -0.1014
  460YOPC   PO4 5644   5.169  12.666  10.836  0.1561  0.0601  0.1398
  460YOPC   GL1 5645   5.326  12.680  10.431  0.1510  0.4024  0.1984
  460YOPC   GL2 5646   5.710  12.616  10.397 -0.0390 -0.0717  0.0452
  460YOPC   C1A 5647   5.089  12.481  10.058 -0.1460  0.2760  0.3208
  460YOPC   D2A 5648   4.875  12.742   9.851 -0.0729 -0.0119 -0.1196
  460YOPC   C3A 5649   5.031  13.049   9.606 -0.0047 -0.0487  0.0047
  460YOPC   C4A 5650   5.241  13.133   9.205 -0.1742  0.0149  0.1434
  460YOPC   C1B 5651   5.487  12.717   9.940  0.4786 -0.1474  0.0665
  460YOPC   C2B 5652   5.310  12.692   9.511  0.3391  0.2432 -0.0925
  460YOPC   D3B 5653   5.384  12.429   9.082 -0.1089  0.2538 -0.0195
  460YOPC   C4B 5654   5.377  12.247   8.667  0.0981  0.1564 -0.3882
  461YOPC   NC3 5655   4.832   7.996   9.744 -0.0175 -0.2861 -0.2634
  461YOPC   PO4 5656   4.434   8.316   9.654 -0.4695 -0.0622 -0.1400
  461YOPC   GL1 5657   4.749   8.349   9.388  0.3528  0.2403 -0.1947
  461YOPC   GL2 5658   4.795   8.669   9.310 -0.3825  0.0213  0.0733
  461YOPC   C1A 5659   4.759   8.263   8.878 -0.0963 -0.1868 -0.0939
  461YOPC   D2A 5660   4.724   8.101   8.398  0.0510 -0.3173  0.0149
  461YOPC   C3A 5661   4.595   7.715   8.098 -0.0077  0.0503 -0.2698
  461YOPC   C4A 5662   4.358   7.671   7.749 -0.1946  0.0673 -0.0016
  461YOPC   C1B 5663   4.776   8.797   8.902 -0.3573 -0.1904 -0.2270
  461YOPC   C2B 5664   4.841   8.905   8.390  0.1508  0.3270  0.1904
  461YOPC   D3B 5665   4.805   9.218   8.194 -0.2014  0.2031 -0.3165
  461YOPC   C4B 5666   5.046   9.461   7.888  0.0955 -0.0688 -0.1077
  462YOPC   NC3 5667  13.922  17.741  11.216 -0.2966 -0.1275  0.1862
  462YOPC   PO4 5668  14.073  18.035  10.880 -0.1490  0.1122 -0.0205
  462YOPC   GL1 5669  14.298  17.888  10.545 -0.0877  0.0780  0.1152
  462YOPC   GL2 5670  14.675  18.068  10.489 -0.3021  0.0098  0.0586
  462YOPC   C1A 5671  14.529  17.634  10.194  0.2184  0.1684 -0.3894
  462YOPC   D2A 5672  14.568  17.332   9.977 -0.0230  0.2206 -0.3176
  462YOPC   C3A 5673  14.804  17.359   9.534  0.1768  0.1842  0.1400
  462YOPC   C4A 5674  14.924  17.302   9.077 -0.1098 -0.0325  0.0028
  462YOPC   C1B 5675  15.007  17.790  10.442 -0.2088  0.2282 -0.2304
  462YOPC   C2B 5676  15.313  17.713  10.191 -0.1041 -0.0049 -0.0693
  462YOPC   D3B 5677  15.364  17.694   9.687 -0.1222 -0.0766 -0.0398
  462YOPC   C4B 5678  15.132  17.734   9.416 -0.0982 -0.0319 -0.4000
  463YOPC   NC3 5679   5.185   4.753  10.023  0.3885 -0.2490 -0.2046
  463YOPC   PO4 5680   4.808   4.630  10.323 -0.0834  0.1254  0.0895
  463YOPC   GL1 5681   4.767   4.495   9.842  0.2863  0.1499  0.2707
  463YOPC   GL2 5682   4.794   4.333   9.596 -0.3761  0.1203 -0.0959
  463YOPC   C1A 5683   4.409   4.636   9.540  0.2080 -0.2276 -0.0202
  463YOPC   D2A 5684   4.414   4.926   9.351 -0.1269 -0.0192 -0.2024
  463YOPC   C3A 5685   4.701   4.906   9.047  0.2881  0.0318  0.1412
  463YOPC   C4A 5686   4.731   4.859   8.679  0.0511  0.0490 -0.1380
  463YOPC   C1B 5687   4.939   4.441   9.202  0.0597 -0.1755 -0.1272
  463YOPC   C2B 5688   4.863   4.376   8.847 -0.0322 -0.2359  0.2385
  463YOPC   D3B 5689   4.710   4.352   8.426  0.2833 -0.1108  0.2730
  463YOPC   C4B 5690   4.364   4.169   8.195 -0.1184 -0.1439  0.2054
  464YOPC   NC3 5691   2.255   1.880  10.426  0.1108  0.0542 -0.2879
  464YOPC   PO4 5692   2.591   1.846  10.659 -0.0247 -0.4247 -0.2054
  464YOPC   GL1 5693   2.761   1.824  10.152 -0.1012  0.1510 -0.0799
  464YOPC   GL2 5694   2.710   2.083  10.007 -0.1072  0.1353  0.1284
  464YOPC   C1A 5695   2.722   1.632   9.771 -0.0606 -0.0883 -0.6703
  464YOPC   D2A 5696   2.953   1.356   9.476 -0.1116 -0.0640 -0.0527
  464YOPC   C3A 5697   3.145   1.230   9.104 -0.1367  0.1083 -0.4278
  464YOPC   C4A 5698   3.163   1.428   8.693 -0.1685 -0.1550  0.0122
  464YOPC   C1B 5699   2.787   2.159   9.660  0.3542  0.0577  0.0155
  464YOPC   C2B 5700   2.625   2.018   9.261 -0.4570  0.2358  0.0773
  464YOPC   D3B 5701   2.481   2.159   8.791  0.0577 -0.0970 -0.3182
  464YOPC   C4B 5702   2.719   2.394   8.610 -0.0356  0.0596  0.1235
  465YOPC   NC3 5703   7.730   1.227   9.962 -0.1309  0.0044  0.1859
  465YOPC   PO4 5704   8.071   1.014   9.694  0.2798  0.1417 -0.1015
  465YOPC   GL1 5705   8.080   1.228   9.348  0.1553 -0.4491 -0.0191
  465YOPC   GL2 5706   7.909   1.536   9.342  0.0738 -0.0563  0.0817
  465YOPC   C1A 5707   8.273   1.305   9.067  0.0604  0.0714 -0.1533
  465YOPC   D2A 5708   8.544   1.489   8.683  0.1726  0.1891 -0.5354
  465YOPC   C3A 5709   8.721   1.477   8.264  0.0047  0.2080 -0.2664
  465YOPC   C4A 5710   8.842   1.412   7.879 -0.0357  0.3368  0.0649
  465YOPC   C1B 5711   7.460   1.643   9.308 -0.1184  0.1421  0.0595
  465YOPC   C2B 5712   7.008   1.696   9.282  0.2189  0.0102 -0.1270
  465YOPC   D3B 5713   6.790   1.705   8.952 -0.2530  0.0347  0.1793
  465YOPC   C4B 5714   6.904   1.697   8.535 -0.0514 -0.0104 -0.0069
  466YOPC   NC3 5715   3.256   8.702  10.202  0.0384  0.1746  0.3529
  466YOPC   PO4 5716   3.034   8.514   9.876  0.1751 -0.3047 -0.1074
  466YOPC   GL1 5717   3.236   8.384   9.589  0.1169  0.3565  0.1389
  466YOPC   GL2 5718   3.529   8.518   9.730  0.2533  0.0597  0.0671
  466YOPC   C1A 5719   3.388   8.148   9.372 -0.1248  0.1362  0.0345
  466YOPC   D2A 5720   3.338   8.034   8.963 -0.0730  0.1814 -0.0222
  466YOPC   C3A 5721   3.360   7.998   8.507 -0.1411  0.1479 -0.1894
  466YOPC   C4A 5722   3.336   7.793   8.087 -0.3211 -0.3081  0.1406
  466YOPC   C1B 5723   3.757   8.759   9.387 -0.0280 -0.3402 -0.0956
  466YOPC   C2B 5724   3.927   8.882   9.008 -0.1541 -0.0619 -0.0144
  466YOPC   D3B 5725   3.797   8.718   8.733 -0.0952  0.1120 -0.0798
  466YOPC   C4B 5726   3.950   8.875   8.350  0.1865 -0.1517 -0.0327
  467YOPC   NC3 5727   5.827  13.806  11.011 -0.1998  0.2047 -0.0490
  467YOPC   PO4 5728   5.521  13.507  11.043 -0.1325  0.1796 -0.0789
  467YOPC   GL1 5729   5.141  13.721  10.755  0.0777 -0.4651 -0.0025
  467YOPC   GL2 5730   5.038  14.022  10.699  0.1158  0.0540 -0.3122
  467YOPC   C1A 5731   4.763  13.599  10.493 -0.2900  0.2246 -0.1058
  467YOPC   D2A 5732   4.667  13.713  10.153  0.1066 -0.2140  0.1633
  467YOPC   C3A 5733   4.948  13.523   9.912  0.0769 -0.0327 -0.0468
  467YOPC   C4A 5734   5.037  13.546   9.488 -0.0325  0.0716 -0.1993
  467YOPC   C1B 5735   5.237  14.178  10.355 -0.1578 -0.0921  0.0578
  467YOPC   C2B 5736   5.400  14.434  10.005  0.2026  0.0063 -0.1280
  467YOPC   D3B 5737   5.135  14.499   9.572 -0.0410  0.3934 -0.2284
  467YOPC   C4B 5738   5.002  14.578   9.098 -0.2351 -0.0866 -0.2089
  468YOPC   NC3 5739  14.845   3.189  10.102 -0.0612  0.2523 -0.2141
  468YOPC   PO4 5740  15.205   3.325   9.889  0.1002 -0.0707  0.2379
  468YOPC   GL1 5741  15.087   3.442   9.596 -0.1677  0.3633 -0.0034
  468YOPC   GL2 5742  14.710   3.680   9.643  0.1510 -0.1640  0.4288
  468YOPC   C1A 5743  15.086   3.641   9.111 -0.0353 -0.1284  0.1201
  468YOPC   D2A 5744  14.859   3.919   9.150 -0.2258  0.2738 -0.0364
  468YOPC   C3A 5745  14.815   4.072   8.789 -0.2675  0.0326 -0.2742
  468YOPC   C4A 5746  14.767   4.064   8.352  0.3157  0.2259  0.2781
  468YOPC   C1B 5747  14.453   3.822   9.365 -0.1553 -0.0416  0.3987
  468YOPC   C2B 5748  14.179   3.811   9.082  0.1472 -0.0324 -0.2507
  468YOPC   D3B 5749  14.377   3.863   8.575 -0.1052 -0.2097 -0.1026
  468YOPC   C4B 5750  14.604   3.631   8.200  0.0443  0.3066 -0.1965
  469YOPC   NC3 5751  12.248   9.567  10.107  0.0921 -0.1166 -0.2820
  469YOPC   PO4 5752  12.002   9.165  10.054  0.0701 -0.3035  0.1180
  469YOPC   GL1 5753  12.097   9.026   9.709  0.0774  0.1194  0.0271
  469YOPC   GL2 5754  12.282   9.308   9.644  0.2419  0.1714  0.1904
  469YOPC   C1A 5755  12.208   8.948   9.273 -0.2366  0.2555  0.0668
  469YOPC   D2A 5756  12.329   8.779   8.935 -0.1283  0.0658  0.1691
  469YOPC   C3A 5757  12.006   8.867   8.563  0.1855  0.5293 -0.1438
  469YOPC   C4A 5758  12.033   9.115   8.194 -0.0955  0.3301 -0.2033
  469YOPC   C1B 5759  12.752   9.143   9.491  0.0324 -0.1687  0.4052
  469YOPC   C2B 5760  13.133   9.160   9.299 -0.3861  0.2926 -0.1064
  469YOPC   D3B 5761  13.200   9.163   8.818 -0.0431 -0.0675  0.3560
  469YOPC   C4B 5762  13.275   9.319   8.360 -0.2100 -0.0220  0.2182
  470ERGO   ROH 5763   7.501  18.395   9.367  0.2672 -0.1702  0.0070
  470ERGO    R1 5764   7.460  18.234   9.138  0.2312 -0.1834  0.0218
  470ERGO    R2 5765   7.435  18.340   8.884  0.0754 -0.1875  0.0297
  470ERGO    R3 5766   7.636  18.166   8.827  0.1231 -0.1034 -0.0562
  470ERGO    R4 5767   7.496  18.203   8.573  0.1076 -0.0367 -0.0305
  470ERGO    R5 5768   7.541  18.013   8.670  0.1668 -0.0628 -0.1176
  470ERGO    C1 5769   7.721  17.960   8.338  0.1712  0.1301 -0.1462
  470ERGO    C2 5770   7.839  17.914   8.000 -0.0398  0.0343  0.0382
  471ERGO   ROH 5771   5.462   5.254   6.274 -0.0634 -0.1479  0.0026
  471ERGO    R1 5772   5.464   5.224   6.556  0.1354  0.0538  0.0254
  471ERGO    R2 5773   5.489   5.439   6.728 -0.1222  0.2238 -0.1420
  471ERGO    R3 5774   5.260   5.338   6.835  0.0924 -0.0784  0.0488
  471ERGO    R4 5775   5.375   5.504   7.047 -0.1055  0.3398 -0.1594
  471ERGO    R5 5776   5.315   5.295   7.064  0.2666  0.2429  0.0727
  471ERGO    C1 5777   5.093   5.448   7.334  0.1058  0.1237  0.0096
  471ERGO    C2 5778   5.054   5.334   7.647 -0.2932  0.2013  0.1263
  472ERGO   ROH 5779  11.488   8.387   9.539  0.1929 -0.2174 -0.1502
  472ERGO    R1 5780  11.311   8.364   9.319  0.2565  0.0326 -0.2284
  472ERGO    R2 5781  11.068   8.493   9.311  0.1669 -0.1405 -0.0441
  472ERGO    R3 5782  11.162   8.589   9.075  0.1309  0.3528  0.1283
  472ERGO    R4 5783  10.871   8.576   9.039  0.1502 -0.2889 -0.0797
  472ERGO    R5 5784  11.022   8.487   8.909  0.4702  0.1972 -0.0872
  472ERGO    C1 5785  10.845   8.715   8.659  0.1065  0.0875  0.0615
  472ERGO    C2 5786  10.679   8.631   8.316 -0.0203 -0.0693 -0.0620
  473ERGO   ROH 5787   7.318   2.991   6.305  0.1945 -0.0126 -0.0937
  473ERGO    R1 5788   7.420   2.978   6.569 -0.0240 -0.2130 -0.0169
  473ERGO    R2 5789   7.458   3.203   6.726  0.2772 -0.2855  0.0116
  473ERGO    R3 5790   7.303   3.066   6.902 -0.1122 -0.0075 -0.0989
  473ERGO    R4 5791   7.471   3.238   7.069 -0.1024 -0.1133  0.0150
  473ERGO    R5 5792   7.448   3.022   7.087 -0.3844 -0.0847  0.1076
  473ERGO    C1 5793   7.334   3.129   7.435 -0.6888  0.2480 -0.0867
  473ERGO    C2 5794   7.414   3.138   7.702 -0.1232 -0.1526  0.5297
  474ERGO   ROH 5795   9.827  10.067   9.564  0.1633 -0.2185 -0.1780
  474ERGO    R1 5796   9.712  10.161   9.323 -0.0200 -0.1384 -0.0623
  474ERGO    R2 5797   9.795  10.074   9.075  0.0622  0.2297 -0.1738
  474ERGO    R3 5798   9.531  10.016   9.042  0.1351 -0.1212 -0.1707
  474ERGO    R4 5799   9.654   9.949   8.785  0.1822  0.2842 -0.2553
  474ERGO    R5 5800   9.484  10.081   8.817 -0.0024  0.0121 -0.1026
  474ERGO    C1 5801   9.325   9.822   8.586  0.3205 -0.0133 -0.2999
  474ERGO    C2 5802   9.403   9.565   8.332  0.2938  0.1657 -0.3388
  475ERGO   ROH 5803   4.860  13.080   6.905 -0.2460 -0.2156  0.1084
  475ERGO    R1 5804   4.760  13.052   7.168 -0.1837 -0.3373  0.1205
  475ERGO    R2 5805   4.825  12.838   7.330  0.0995 -0.2598  0.1176
  475ERGO    R3 5806   4.899  13.034   7.503 -0.1205 -0.1626  0.1042
  475ERGO    R4 5807   4.817  12.810   7.674 -0.1825 -0.1224  0.1243
  475ERGO    R5 5808   4.743  13.015   7.684 -0.2672 -0.1459 -0.0202
  475ERGO    C1 5809   4.882  12.978   8.038 -0.5531  0.0489  0.1157
  475ERGO    C2 5810   4.769  13.083   8.373  0.1276 -0.0166 -0.2383
  476ERGO   ROH 5811  14.894   5.893   6.075  0.1628  0.1316  0.0018
  476ERGO    R1 5812  14.693   5.811   6.256  0.1080 -0.0221 -0.1264
  476ERGO    R2 5813  14.710   5.575   6.400  0.2798  0.0696  0.0086
  476ERGO    R3 5814  14.672   5.740   6.612 -0.1045  0.1375 -0.1059
  476ERGO    R4 5815  14.586   5.477   6.707  0.2677  0.0482 -0.0031
  476ERGO    R5 5816  14.470   5.661   6.713 -0.0371 -0.1294 -0.1738
  476ERGO    C1 5817  14.477   5.574   7.085 -0.0999  0.0995 -0.1175
  476ERGO    C2 5818  14.376   5.378   7.408 -0.1988 -0.4455 -0.1258
  477ERGO   ROH 5819  14.385   7.415   9.037 -0.1033 -0.1281  0.0758
  477ERGO    R1 5820  14.325   7.430   8.761 -0.2315  0.0567  0.1119
  477ERGO    R2 5821  14.171   7.632   8.652  0.0571  0.3605  0.2593
  477ERGO    R3 5822  14.387   7.664   8.489  0.0281  0.0355  0.1485
  477ERGO    R4 5823  14.159   7.755   8.329  0.0594  0.2808  0.2281
  477ERGO    R5 5824  14.307   7.605   8.272 -0.1537  0.0692  0.2014
  477ERGO    C1 5825  14.355   7.856   7.988  0.0336 -0.0707  0.1058
  477ERGO    C2 5826  14.492   7.926   7.653  0.0326 -0.2020 -0.2738
  478ERGO   ROH 5827  13.269   7.707   9.186 -0.0525 -0.0287 -0.0880
  478ERGO    R1 5828  13.140   7.660   8.938  0.0440  0.1114 -0.1686
  478ERGO    R2 5829  13.174   7.826   8.719  0.3913  0.0622 -0.1720
  478ERGO    R3 5830  13.243   7.594   8.595  0.1905 -0.0408 -0.0940
  478ERGO    R4 5831  13.251   7.796   8.383  0.2468 -0.1607 -0.1853
  478ERGO    R5 5832  13.140   7.608   8.380  0.1254 -0.0825 -0.0577
  478ERGO    C1 5833  13.361   7.560   8.072 -0.0258 -0.3872 -0.1198
  478ERGO    C2 5834  13.326   7.524   7.755  0.0029 -0.0837  0.0515
  479ERGO   ROH 5835  11.482   7.955   7.784  0.0620 -0.0037 -0.1160
  479ERGO    R1 5836  11.571   8.133   7.985 -0.0336  0.0072 -0.0824
  479ERGO    R2 5837  11.583   8.062   8.251  0.0721 -0.0626 -0.1043
  479ERGO    R3 5838  11.842   8.143   8.228  0.0087  0.1412 -0.1338
  479ERGO    R4 5839  11.771   8.200   8.507  0.1350 -0.3563  0.0118
  479ERGO    R5 5840  11.855   8.341   8.363 -0.0407 -0.0633  0.1831
  479ERGO    C1 5841  12.123   8.356   8.634  0.1122 -0.3360  0.0518
  479ERGO    C2 5842  12.528   8.360   8.737 -0.1906 -0.1021 -0.2640
  480ERGO   ROH 5843   6.913   3.585   5.924 -0.1476  0.1552 -0.1102
  480ERGO    R1 5844   6.928   3.778   6.131 -0.3316  0.2403 -0.1738
  480ERGO    R2 5845   6.703   3.893   6.245 -0.4622 -0.1580 -0.0080
  480ERGO    R3 5846   6.814   3.804   6.476 -0.0837  0.1054 -0.0795
  480ERGO    R4 5847   6.635   4.020   6.558 -0.3569 -0.1535  0.0134
  480ERGO    R5 5848   6.846   4.002   6.607 -0.2732  0.2086 -0.1872
  480ERGO    C1 5849   6.699   4.011   6.958  0.0597  0.0964 -0.0413
  480ERGO    C2 5850   6.703   3.894   7.295 -0.1614  0.1537  0.3775
  481ERGO   ROH 5851  18.313   2.749   6.456 -0.1039 -0.0582 -0.2524
  481ERGO    R1 5852  18.102   2.639   6.608 -0.0450 -0.0285 -0.1477
  481ERGO    R2 5853  18.110   2.381   6.709  0.0162  0.0074 -0.0548
  481ERGO    R3 5854  18.060   2.507   6.945  0.0737  0.0894 -0.0863
  481ERGO    R4 5855  17.940   2.242   6.976  0.2590  0.0301  0.1148
  481ERGO    R5 5856  17.841   2.433   7.007  0.1565 -0.0188  0.0784
  481ERGO    C1 5857  17.794   2.279   7.352  0.4544  0.1204  0.1841
  481ERGO    C2 5858  17.666   2.006   7.502  0.2336  0.0031  0.0875
  482ERGO   ROH 5859   8.261  14.492   9.643 -0.1413 -0.1629 -0.0181
  482ERGO    R1 5860   8.309  14.344   9.407 -0.1153 -0.0783 -0.0661
  482ERGO    R2 5861   8.241  14.077   9.383 -0.0296 -0.0921 -0.1361
  482ERGO    R3 5862   8.107  14.164   9.163 -0.0797 -0.0736 -0.1003
  482ERGO    R4 5863   8.200  13.895   9.092 -0.1591 -0.1033 -0.1120
  482ERGO    R5 5864   8.234  14.079   8.979 -0.1526 -0.1143 -0.1349
  482ERGO    C1 5865   8.052  13.872   8.716 -0.2814 -0.0925 -0.0644
  482ERGO    C2 5866   8.098  13.734   8.335  0.3162 -0.0241  0.2334
  483ERGO   ROH 5867  16.558   3.068   6.753 -0.1899  0.0196  0.0411
  483ERGO    R1 5868  16.615   3.261   6.952 -0.0156  0.0313 -0.0189
  483ERGO    R2 5869  16.418   3.402   7.085  0.1087  0.2078 -0.0192
  483ERGO    R3 5870  16.542   3.306   7.306  0.0794  0.1765 -0.0164
  483ERGO    R4 5871  16.301   3.438   7.408 -0.0005  0.0558 -0.0407
  483ERGO    R5 5872  16.506   3.474   7.473 -0.0305  0.1081  0.0313
  483ERGO    C1 5873  16.351   3.368   7.804 -0.0916 -0.0621 -0.0506
  483ERGO    C2 5874  16.140   3.310   8.054  0.2093  0.0574 -0.0099
  484ERGO   ROH 5875   7.544  16.562   9.272  0.0122  0.3663 -0.0007
  484ERGO    R1 5876   7.562  16.628   8.998  0.0806  0.0820 -0.0691
  484ERGO    R2 5877   7.703  16.475   8.816 -0.0359 -0.2199  0.0813
  484ERGO    R3 5878   7.467  16.475   8.682 -0.0343 -0.1550  0.0797
  484ERGO    R4 5879   7.671  16.491   8.473 -0.0470 -0.0491  0.0900
  484ERGO    R5 5880   7.502  16.625   8.500 -0.0430 -0.0679  0.1555
  484ERGO    C1 5881   7.430  16.501   8.146 -0.0518  0.1113  0.0937
  484ERGO    C2 5882   7.114  16.270   8.038 -0.2164 -0.0288 -0.1003
  485ERGO   ROH 5883   3.608   0.314  10.221 -0.1403  0.2697  0.1804
  485ERGO    R1 5884   3.347   0.404  10.155 -0.1752  0.0866  0.0613
  485ERGO    R2 5885   3.293   0.546   9.924 -0.1499  0.1358  0.0865
  485ERGO    R3 5886   3.109   0.350   9.886  0.0286  0.0025 -0.1049
  485ERGO    R4 5887   3.050   0.548   9.678 -0.1966  0.1932  0.1326
  485ERGO    R5 5888   2.910   0.466   9.823 -0.0949 -0.1099  0.0683
  485ERGO    C1 5889   2.737   0.364   9.499 -0.0563  0.1015 -0.0206
  485ERGO    C2 5890   2.511   0.246   9.344 -0.0317  0.0413  0.2681
  486ERGO   ROH 5891  10.828  12.650   9.883  0.0047 -0.0565  0.1866
  486ERGO    R1 5892  10.864  12.695   9.606  0.0951 -0.2890  0.1579
  486ERGO    R2 5893  10.879  12.488   9.423 -0.1549 -0.4401  0.2943
  486ERGO    R3 5894  10.678  12.624   9.301  0.0327 -0.2534  0.1892
  486ERGO    R4 5895  10.825  12.498   9.082  0.1015 -0.2705  0.2566
  486ERGO    R5 5896  10.777  12.710   9.100  0.2383 -0.2476  0.2950
  486ERGO    C1 5897  10.605  12.632   8.769  0.4269  0.0036  0.1360
  486ERGO    C2 5898  10.467  12.728   8.396 -0.0770  0.1847 -0.1098
  487ERGO   ROH 5899  15.445   7.818   8.691  0.0548 -0.1037  0.0900
  487ERGO    R1 5900  15.681   7.723   8.566  0.0163 -0.1257  0.0332
  487ERGO    R2 5901  15.762   7.460   8.583  0.0366 -0.1181  0.0778
  487ERGO    R3 5902  15.764   7.477   8.312 -0.0616 -0.1921  0.0723
  487ERGO    R4 5903  16.021   7.354   8.380  0.1041  0.1303  0.0317
  487ERGO    R5 5904  15.990   7.531   8.257 -0.1404  0.0604 -0.0094
  487ERGO    C1 5905  16.173   7.309   8.007  0.0513  0.2055 -0.0002
  487ERGO    C2 5906  16.544   7.268   7.894  0.1400 -0.2683 -0.3248
  488ERGO   ROH 5907  11.918  10.373   9.489  0.0232 -0.0015 -0.0488
  488ERGO    R1 5908  11.786  10.403   9.241 -0.0683 -0.1693 -0.0222
  488ERGO    R2 5909  11.921  10.456   9.006 -0.1870  0.0865 -0.0380
  488ERGO    R3 5910  11.790  10.235   8.918  0.1466 -0.1146 -0.0492
  488ERGO    R4 5911  11.869  10.377   8.674 -0.2162  0.1124 -0.0394
  488ERGO    R5 5912  11.668  10.311   8.726 -0.0821 -0.2543  0.0384
  488ERGO    C1 5913  11.715  10.123   8.398  0.0801 -0.0613 -0.0508
  488ERGO    C2 5914  11.774  10.144   8.037  0.1544  0.2950  0.2295
  489ERGO   ROH 5915   5.210  14.512   7.438  0.3488  0.0764  0.0215
  489ERGO    R1 5916   5.370  14.451   7.664  0.2201  0.1544  0.1357
  489ERGO    R2 5917   5.277  14.475   7.923 -0.0165 -0.0014  0.0712
  489ERGO    R3 5918   5.356  14.216   7.941  0.1983  0.0617  0.0559
  489ERGO    R4 5919   5.239  14.277   8.203 -0.1225 -0.1394 -0.0400
  489ERGO    R5 5920   5.437  14.194   8.166 -0.0094  0.0530  0.1303
  489ERGO    C1 5921   5.291  13.917   8.384  0.0175 -0.1606 -0.1191
  489ERGO    C2 5922   5.260  13.806   8.624 -0.1291  0.0014 -0.0799
  490ERGO   ROH 5923  13.200   4.220   8.737 -0.1328 -0.4135 -0.1908
  490ERGO    R1 5924  13.477   4.184   8.693 -0.0824 -0.3015  0.0250
  490ERGO    R2 5925  13.589   3.938   8.636  0.0261 -0.2175 -0.1348
  490ERGO    R3 5926  13.690   4.070   8.421  0.1953  0.0355  0.0935
  490ERGO    R4 5927  13.855   3.829   8.445 -0.0703 -0.1939 -0.2838
  490ERGO    R5 5928  13.926   4.035   8.435  0.1572 -0.2486  0.0688
  490ERGO    C1 5929  14.105   3.889   8.131  0.0323  0.0574 -0.1563
  490ERGO    C2 5930  14.319   3.765   7.824 -0.0805 -0.0499 -0.2497
  491ERGO   ROH 5931   9.567   4.240   6.282  0.1386 -0.2468  0.0250
  491ERGO    R1 5932   9.513   4.158   6.547 -0.0465 -0.0227  0.0587
  491ERGO    R2 5933   9.676   4.225   6.760 -0.0721 -0.0348  0.0761
  491ERGO    R3 5934   9.444   4.321   6.865 -0.0274  0.2495 -0.0721
  491ERGO    R4 5935   9.628   4.306   7.093 -0.2545 -0.2517  0.1060
  491ERGO    R5 5936   9.429   4.218   7.081 -0.3994  0.0735 -0.1685
  491ERGO    C1 5937   9.382   4.443   7.385 -0.3189 -0.1113 -0.0158
  491ERGO    C2 5938   9.153   4.482   7.641 -0.0615  0.2942 -0.1764
  492ERGO   ROH 5939  17.567  13.318   6.958 -0.2249  0.1108  0.0102
  492ERGO    R1 5940  17.656  13.376   7.220 -0.2910  0.2032  0.0147
  492ERGO    R2 5941  17.506  13.523   7.399 -0.4122  0.1315 -0.0141
  492ERGO    R3 5942  17.544  13.306   7.559 -0.2877  0.1696  0.0064
  492ERGO    R4 5943  17.484  13.526   7.744 -0.0738  0.2100  0.0092
  492ERGO    R5 5944  17.657  13.394   7.751 -0.0910  0.1931 -0.1252
  492ERGO    C1 5945  17.506  13.325   8.095  0.2402  0.2914  0.0421
  492ERGO    C2 5946  17.445  13.270   8.413  0.2633 -0.3739 -0.0247
  493ERGO   ROH 5947   4.390   1.777  10.174  0.1201 -0.1308 -0.0309
  493ERGO    R1 5948   4.329   1.576   9.985 -0.0332 -0.0904 -0.0268
  493ERGO    R2 5949   4.114   1.594   9.813  0.0077  0.0953 -0.0691
  493ERGO    R3 5950   4.304   1.552   9.623  0.0083 -0.0895 -0.0282
  493ERGO    R4 5951   4.049   1.542   9.477  0.0465  0.3752 -0.1216
  493ERGO    R5 5952   4.205   1.390   9.475 -0.1847  0.1393 -0.1505
  493ERGO    C1 5953   4.189   1.472   9.103  0.0697  0.3647 -0.1139
  493ERGO    C2 5954   4.334   1.421   8.843  0.2528  0.0821 -0.0666
  494ERGO   ROH 5955   9.302  15.155   9.820  0.0028 -0.0717 -0.1103
  494ERGO    R1 5956   9.303  15.084   9.546  0.0671  0.0044 -0.1309
  494ERGO    R2 5957   9.379  15.260   9.347  0.1193  0.0603 -0.0669
  494ERGO    R3 5958   9.550  15.060   9.280  0.1315  0.0751 -0.0765
  494ERGO    R4 5959   9.416  15.129   9.029 -0.0057 -0.0558 -0.0342
  494ERGO    R5 5960   9.431  14.931   9.117  0.0840 -0.0156  0.0331
  494ERGO    C1 5961   9.599  14.866   8.781 -0.0670 -0.1096 -0.0242
  494ERGO    C2 5962   9.738  14.974   8.480 -0.0001  0.0041 -0.0829
  495ERGO   ROH 5963   2.270  13.916   9.954  0.0658 -0.0822  0.1129
  495ERGO    R1 5964   2.102  14.031   9.757 -0.0450 -0.0863  0.2032
  495ERGO    R2 5965   2.116  13.960   9.490  0.0823  0.1939  0.1304
  495ERGO    R3 5966   1.851  13.912   9.523  0.1316 -0.1620  0.0497
  495ERGO    R4 5967   1.888  13.925   9.233  0.1600  0.1643  0.0654
  495ERGO    R5 5968   1.745  14.040   9.350  0.0011 -0.1209  0.1591
  495ERGO    C1 5969   1.506  13.859   9.114  0.2516 -0.1872 -0.0480
  495ERGO    C2 5970   1.114  13.811   8.861  0.1483  0.1448 -0.2816
  496ERGO   ROH 5971   3.350   3.357   9.782 -0.1507 -0.3012 -0.0789
  496ERGO    R1 5972   3.219   3.278   9.544 -0.2119 -0.1568 -0.0945
  496ERGO    R2 5973   3.089   3.458   9.380 -0.1876 -0.0437  0.0049
  496ERGO    R3 5974   3.250   3.350   9.189 -0.2472 -0.0053 -0.0669
  496ERGO    R4 5975   3.073   3.532   9.043 -0.2253  0.0965  0.0375
  496ERGO    R5 5976   3.107   3.321   8.999 -0.2847  0.1074 -0.0545
  496ERGO    C1 5977   3.216   3.475   8.667 -0.3032  0.2142 -0.0110
  496ERGO    C2 5978   3.193   3.355   8.329  0.3060  0.1376 -0.1645
  497ERGO   ROH 5979  18.213   4.140   6.807  0.2775 -0.2486 -0.0211
  497ERGO    R1 5980  18.274   4.174   7.082  0.1461 -0.1715 -0.0002
  497ERGO    R2 5981  18.138   4.041   7.282  0.0065 -0.0679 -0.0221
  497ERGO    R3 5982  18.388   3.963   7.355 -0.0501 -0.1104  0.1300
  497ERGO    R4 5983  18.253   4.028   7.608 -0.1717 -0.0429  0.0430
  497ERGO    R5 5984  18.444   4.107   7.538 -0.1177 -0.0964  0.1371
  497ERGO    C1 5985  18.555   3.947   7.866 -0.3285 -0.0683  0.2237
  497ERGO    C2 5986  18.422   3.869   8.199  0.1562  0.0717 -0.0216
  498ERGO   ROH 5987  18.106   0.036   7.004 -0.3993  0.0653 -0.0202
  498ERGO    R1 5988  18.035   0.248   7.178 -0.2136  0.1136 -0.0011
  498ERGO    R2 5989  18.095   0.246   7.447 -0.2470  0.0178  0.0043
  498ERGO    R3 5990  18.209   0.486   7.390 -0.0047 -0.0822  0.0521
  498ERGO    R4 5991  18.185   0.481   7.683 -0.1308 -0.0664  0.0453
  498ERGO    R5 5992  18.111   0.637   7.549  0.0638  0.0055  0.0144
  498ERGO    C1 5993  18.344   0.844   7.768  0.1644 -0.2093  0.1141
  498ERGO    C2 5994  18.409   0.948   8.210 -0.0411 -0.1876  0.0058
  499ERGO   ROH 5995  10.639  16.712   9.348  0.0337  0.2041 -0.0424
  499ERGO    R1 5996  10.530  16.856   9.131  0.0615  0.0990 -0.1266
  499ERGO    R2 5997  10.562  16.777   8.868 -0.0881 -0.1491 -0.0722
  499ERGO    R3 5998  10.291  16.792   8.864 -0.0810  0.0431  0.0119
  499ERGO    R4 5999  10.368  16.762   8.582 -0.1915 -0.1400 -0.0032
  499ERGO    R5 6000  10.241  16.918   8.666 -0.0536 -0.0090 -0.0300
  499ERGO    C1 6001  10.000  16.767   8.412 -0.2450  0.0458  0.1159
  499ERGO    C2 6002   9.741  16.532   8.324  0.0239  0.1411 -0.1969
  500ERGO   ROH 6003  16.577  16.761   7.618  0.1214 -0.0756  0.0402
  500ERGO    R1 6004  16.395  16.905   7.780  0.1756  0.0103  0.0239
  500ERGO    R2 6005  16.271  16.793   8.001  0.0993  0.0661  0.0060
  500ERGO    R3 6006  16.376  17.009   8.128  0.1895  0.0134  0.0242
  500ERGO    R4 6007  16.208  16.878   8.329  0.2378 -0.0072  0.0539
  500ERGO    R5 6008  16.199  17.087   8.268  0.2551  0.0122  0.1114
  500ERGO    C1 6009  16.269  17.131   8.641  0.4031 -0.0992  0.0988
  500ERGO    C2 6010  16.326  17.213   8.944  0.2274 -0.2584  0.3508
  501ERGO   ROH 6011   4.146   2.365   6.708 -0.1933  0.3130  0.0658
  501ERGO    R1 6012   4.084   2.278   6.970 -0.0453  0.0896  0.0311
  501ERGO    R2 6013   4.278   2.192   7.147  0.0961  0.2034 -0.0494
  501ERGO    R3 6014   4.168   2.381   7.309 -0.0926 -0.0046  0.0679
  501ERGO    R4 6015   4.311   2.201   7.491  0.3165  0.2019 -0.0699
  501ERGO    R5 6016   4.101   2.260   7.505  0.2378 -0.1382  0.0926
  501ERGO    C1 6017   4.226   2.383   7.843  0.2677  0.0058  0.0282
  501ERGO    C2 6018   4.220   2.421   8.232  0.0324 -0.0723  0.1557
  502ERGO   ROH 6019   3.750  17.506  10.155 -0.1251  0.0827  0.0076
  502ERGO    R1 6020   3.905  17.479   9.920 -0.0388  0.2011  0.0496
  502ERGO    R2 6021   3.925  17.240   9.781  0.2307  0.1989  0.0881
  502ERGO    R3 6022   3.844  17.393   9.571  0.1313  0.0895  0.0463
  502ERGO    R4 6023   4.023  17.193   9.453  0.1698  0.1024  0.0833
  502ERGO    R5 6024   4.037  17.410   9.432  0.0933  0.0991 -0.0054
  502ERGO    C1 6025   4.004  17.309   9.065  0.0411 -0.0562  0.0413
  502ERGO    C2 6026   3.983  17.186   8.826 -0.0715  0.0414  0.1654
  503ERGO   ROH 6027   0.275   3.994   6.396 -0.0706  0.0417 -0.0132
  503ERGO    R1 6028   0.387   4.015   6.655  0.0054 -0.0267 -0.0401
  503ERGO    R2 6029   0.271   4.165   6.856  0.1032 -0.0190  0.0125
  503ERGO    R3 6030   0.286   3.931   6.995  0.0713 -0.0431 -0.0246
  503ERGO    R4 6031   0.406   4.132   7.173  0.3008 -0.1302 -0.0813
  503ERGO    R5 6032   0.496   3.944   7.109  0.1559 -0.1716 -0.1649
  503ERGO    C1 6033   0.498   3.894   7.487  0.3860 -0.2176 -0.1707
  503ERGO    C2 6034   0.589   3.704   7.777  0.0362  0.0421 -0.1175
  504ERGO   ROH 6035  16.231  11.638   9.810  0.2192  0.0646  0.0407
  504ERGO    R1 6036  16.214  11.673   9.530  0.1377  0.1781  0.0594
  504ERGO    R2 6037  16.333  11.885   9.399  0.4504  0.0099  0.0650
  504ERGO    R3 6038  16.446  11.687   9.250  0.0276 -0.1537 -0.0543
  504ERGO    R4 6039  16.345  11.880   9.054  0.6634  0.3376  0.0631
  504ERGO    R5 6040  16.302  11.666   9.060  0.0833  0.4264 -0.1806
  504ERGO    C1 6041  16.458  11.692   8.713  0.3905  0.3748 -0.0501
  504ERGO    C2 6042  16.276  11.565   8.352  0.0067 -0.0491  0.2143
  505ERGO   ROH 6043  11.306   2.057   9.491 -0.0311  0.0312  0.1534
  505ERGO    R1 6044  11.220   1.995   9.229  0.0192  0.2174  0.0935
  505ERGO    R2 6045  10.986   1.858   9.177  0.2348 -0.1031 -0.0234
  505ERGO    R3 6046  10.932   2.074   9.020 -0.1543  0.0106  0.2462
  505ERGO    R4 6047  10.770   1.858   8.907  0.2263 -0.1664 -0.0179
  505ERGO    R5 6048  10.912   1.983   8.799  0.0115  0.2353  0.1277
  505ERGO    C1 6049  10.595   2.060   8.602 -0.1440 -0.0966  0.2383
  505ERGO    C2 6050  10.399   2.073   8.251  0.4359  0.3138  0.1069
  506ERGO   ROH 6051  13.803   0.620   9.758  0.0581 -0.0380  0.1339
  506ERGO    R1 6052  13.877   0.473   9.528  0.0892 -0.1062  0.1871
  506ERGO    R2 6053  13.982   0.593   9.302 -0.1755 -0.1333  0.0462
  506ERGO    R3 6054  14.183   0.414   9.339  0.0497  0.1144  0.0503
  506ERGO    R4 6055  14.175   0.459   9.049 -0.1310 -0.0364  0.0289
  506ERGO    R5 6056  14.166   0.266   9.150  0.1357 -0.0001  0.1307
  506ERGO    C1 6057  14.477   0.214   8.936  0.1064  0.2526  0.0227
  506ERGO    C2 6058  14.581   0.079   8.612 -0.6322  0.0014  0.0859
  507ERGO   ROH 6059  17.946   8.915   9.527 -0.1025  0.0183 -0.1171
  507ERGO    R1 6060  18.074   8.797   9.304  0.0348  0.0559 -0.0581
  507ERGO    R2 6061  17.967   8.808   9.049  0.0986 -0.0643 -0.0855
  507ERGO    R3 6062  18.210   8.913   8.986  0.0496  0.0780 -0.0452
  507ERGO    R4 6063  18.073   8.881   8.728  0.0657  0.0866 -0.0635
  507ERGO    R5 6064  18.270   8.804   8.782  0.1075  0.1668 -0.0803
  507ERGO    C1 6065  18.363   9.022   8.483  0.0004  0.3080 -0.0129
  507ERGO    C2 6066  18.256   9.235   8.294 -0.1379 -0.2801  0.1037
  508ERGO   ROH 6067   9.839  18.128   6.540 -0.0218  0.0606  0.0254
  508ERGO    R1 6068   9.936  18.268   6.766  0.0896 -0.1262  0.0957
  508ERGO    R2 6069   9.804  18.485   6.875  0.4016  0.1026  0.0282
  508ERGO    R3 6070   9.819  18.339   7.104  0.0039  0.0527  0.0301
  508ERGO    R4 6071   9.804  18.617   7.194  0.3570  0.0779  0.0386
  508ERGO    R5 6072   9.956  18.471   7.249  0.0978 -0.1634  0.1450
  508ERGO    C1 6073   9.819  18.557   7.595 -0.0423  0.0166  0.0465
  508ERGO    C2 6074   9.837  18.581   7.956 -0.1269 -0.0393 -0.0070
  509ERGO   ROH 6075   5.877  13.097   7.157 -0.2065  0.2468  0.1960
  509ERGO    R1 6076   5.922  12.882   7.334 -0.3282  0.0226 -0.0392
  509ERGO    R2 6077   6.052  12.913   7.577 -0.0278 -0.3742 -0.1408
  509ERGO    R3 6078   5.827  12.796   7.675 -0.0976 -0.1380 -0.0124
  509ERGO    R4 6079   6.009  12.811   7.904  0.0300 -0.2698 -0.1001
  509ERGO    R5 6080   5.907  12.633   7.831 -0.1799 -0.1883 -0.0202
  509ERGO    C1 6081   5.772  12.643   8.187 -0.0018  0.0129  0.0442
  509ERGO    C2 6082   5.647  12.590   8.493  0.2058  0.1433  0.2914
  510ERGO   ROH 6083  13.485   6.867   9.018 -0.1075 -0.2700 -0.0933
  510ERGO    R1 6084  13.293   6.890   8.811 -0.1236 -0.0079 -0.0521
  510ERGO    R2 6085  13.266   7.118   8.658  0.1672  0.0241 -0.0545
  510ERGO    R3 6086  13.296   6.943   8.451 -0.1278 -0.0321 -0.0567
  510ERGO    R4 6087  13.185   7.185   8.329 -0.0962  0.0211  0.0065
  510ERGO    R5 6088  13.106   6.983   8.312 -0.2379  0.0620  0.1116
  510ERGO    C1 6089  13.167   7.061   7.943 -0.5265 -0.0334  0.0398
  510ERGO    C2 6090  13.424   7.011   7.696 -0.1691 -0.1847  0.2121
  511ERGO   ROH 6091   0.575   3.544   9.695 -0.4532  0.0913 -0.0009
  511ERGO    R1 6092   0.548   3.587   9.416 -0.2797  0.1084 -0.0153
  511ERGO    R2 6093   0.609   3.829   9.296 -0.1489  0.0968  0.0296
  511ERGO    R3 6094   0.769   3.674   9.140 -0.0960  0.0633  0.1151
  511ERGO    R4 6095   0.742   3.926   8.992  0.2409  0.1621  0.2148
  511ERGO    R5 6096   0.702   3.726   8.916  0.1740  0.2300  0.0679
  511ERGO    C1 6097   0.970   3.837   8.669  0.5176  0.1686  0.4030
  511ERGO    C2 6098   1.019   3.982   8.402 -0.2810  0.0770 -0.2047
  512ERGO   ROH 6099   0.390  12.516   6.347 -0.1026 -0.0177 -0.2019
  512ERGO    R1 6100   0.412  12.359   6.581 -0.0348  0.0301 -0.1752
  512ERGO    R2 6101   0.577  12.428   6.792 -0.1125  0.1729 -0.1558
  512ERGO    R3 6102   0.348  12.405   6.937 -0.1232  0.0419 -0.1932
  512ERGO    R4 6103   0.563  12.360   7.131 -0.1375  0.1103 -0.1695
  512ERGO    R5 6104   0.394  12.229   7.093 -0.0683  0.0393 -0.2157
  512ERGO    C1 6105   0.340  12.299   7.464 -0.1620 -0.0489 -0.2125
  512ERGO    C2 6106   0.460  12.437   7.762 -0.1651  0.1117  0.2576
  513ERGO   ROH 6107   8.247  15.229   9.532  0.1858  0.1926  0.1475
  513ERGO    R1 6108   8.343  15.292   9.274  0.2297 -0.0183  0.1110
  513ERGO    R2 6109   8.475  15.108   9.115 -0.0695 -0.2577  0.1343
  513ERGO    R3 6110   8.284  15.176   8.934 -0.0075 -0.0259  0.1530
  513ERGO    R4 6111   8.447  14.975   8.797 -0.2880 -0.2628  0.1535
  513ERGO    R5 6112   8.398  15.174   8.724 -0.0360 -0.2023  0.1369
  513ERGO    C1 6113   8.252  14.961   8.442 -0.3571 -0.0482  0.1823
  513ERGO    C2 6114   8.194  14.745   8.248  0.1656  0.0307 -0.3115
  514ERGO   ROH 6115  10.213   1.017   6.536  0.1571  0.0210 -0.1280
  514ERGO    R1 6116  10.451   1.087   6.673  0.1306  0.1198 -0.1308
  514ERGO    R2 6117  10.564   1.338   6.657 -0.0682  0.2210  0.0069
  514ERGO    R3 6118  10.549   1.327   6.928 -0.0085  0.0356  0.0036
  514ERGO    R4 6119  10.805   1.457   6.873 -0.1153  0.2622  0.0369
  514ERGO    R5 6120  10.773   1.282   6.998  0.0391  0.1569 -0.0689
  514ERGO    C1 6121  10.932   1.516   7.254 -0.0865  0.1122  0.0514
  514ERGO    C2 6122  10.992   1.588   7.571 -0.3908  0.1837  0.0174
  515ERGO   ROH 6123   5.841  15.294   6.654 -0.2010 -0.0512  0.1358
  515ERGO    R1 6124   5.880  15.361   6.926  0.1324 -0.2028  0.1319
  515ERGO    R2 6125   6.132  15.379   7.040  0.3038  0.0284 -0.2366
  515ERGO    R3 6126   6.046  15.627   7.111  0.0854 -0.1274  0.0591
  515ERGO    R4 6127   6.283  15.581   7.277  0.3167  0.0359 -0.2531
  515ERGO    R5 6128   6.085  15.639   7.347  0.3338 -0.2579  0.0177
  515ERGO    C1 6129   6.291  15.932   7.481  0.1191 -0.1061  0.0149
  515ERGO    C2 6130   6.262  16.280   7.701 -0.2716 -0.0981 -0.0172
  516ERGO   ROH 6131  17.803   8.882   6.475 -0.0263  0.0569  0.0231
  516ERGO    R1 6132  17.838   9.052   6.698 -0.0801 -0.0022  0.0771
  516ERGO    R2 6133  17.625   9.158   6.839 -0.1154  0.0604 -0.0215
  516ERGO    R3 6134  17.751   9.045   7.052 -0.2834 -0.0361  0.0278
  516ERGO    R4 6135  17.621   9.284   7.161 -0.1674  0.0516 -0.0192
  516ERGO    R5 6136  17.832   9.231   7.179 -0.2095 -0.0948  0.0689
  516ERGO    C1 6137  17.737   9.251   7.548 -0.3555 -0.0439  0.0285
  516ERGO    C2 6138  17.886   9.313   8.003  0.2570  0.1695 -0.1845
  517ERGO   ROH 6139  10.200   4.992   6.478 -0.2445 -0.1067 -0.0914
  517ERGO    R1 6140  10.125   5.172   6.683 -0.2970 -0.0480 -0.1636
  517ERGO    R2 6141   9.869   5.181   6.786 -0.2063 -0.3460  0.0901
  517ERGO    R3 6142   9.997   5.148   7.023  0.0920  0.0421 -0.0044
  517ERGO    R4 6143   9.769   5.321   7.085 -0.2882 -0.4688  0.1225
  517ERGO    R5 6144   9.978   5.361   7.131 -0.3245  0.0525 -0.0730
  517ERGO    C1 6145   9.831   5.372   7.483 -0.0558 -0.1760  0.0525
  517ERGO    C2 6146   9.696   5.409   7.850  0.1341 -0.1793  0.1230
  518ERGO   ROH 6147   8.718   6.533   6.490  0.0659 -0.1035 -0.0636
  518ERGO    R1 6148   8.772   6.388   6.727  0.0416 -0.0373 -0.0169
  518ERGO    R2 6149   8.896   6.501   6.946  0.1569 -0.0162 -0.0919
  518ERGO    R3 6150   8.677   6.409   7.078  0.1362  0.1586 -0.0020
  518ERGO    R4 6151   8.847   6.523   7.288  0.2425  0.1625 -0.0903
  518ERGO    R5 6152   8.764   6.322   7.284  0.1346  0.2046  0.0179
  518ERGO    C1 6153   8.613   6.450   7.610  0.2729  0.4306 -0.0051
  518ERGO    C2 6154   8.401   6.642   7.801 -0.1193  0.0075 -0.1078
  519ERGO   ROH 6155  18.036   2.415  10.030  0.0011  0.2479  0.0474
  519ERGO    R1 6156  18.148   2.356   9.777 -0.1092  0.1936  0.0107
  519ERGO    R2 6157  17.993   2.298   9.555 -0.2113  0.3020  0.0524
  519ERGO    R3 6158  18.137   2.499   9.442 -0.1193  0.2211  0.0231
  519ERGO    R4 6159  17.993   2.376   9.218 -0.1643  0.2496  0.0397
  519ERGO    R5 6160  18.208   2.410   9.231 -0.1507  0.1574  0.0401
  519ERGO    C1 6161  18.129   2.610   8.916 -0.0508  0.1431  0.0049
  519ERGO    C2 6162  18.053   2.582   8.558  0.3019  0.2462 -0.1197
  520ERGO   ROH 6163  17.855   1.516  10.101 -0.2938 -0.4267  0.1182
  520ERGO    R1 6164  17.763   1.384   9.868 -0.2833 -0.2512  0.0127
  520ERGO    R2 6165  17.570   1.491   9.703 -0.0985 -0.0111 -0.0542
  520ERGO    R3 6166  17.757   1.452   9.511 -0.0247 -0.0992  0.0351
  520ERGO    R4 6167  17.501   1.445   9.368  0.0346 -0.0790 -0.0722
  520ERGO    R5 6168  17.657   1.292   9.362  0.0043 -0.1140  0.0318
  520ERGO    C1 6169  17.638   1.380   8.991  0.1812 -0.2013  0.0011
  520ERGO    C2 6170  17.699   1.360   8.650  0.2691  0.1933 -0.0207
  521ERGO   ROH 6171   4.409   6.448   9.601 -0.2567  0.1928  0.0648
  521ERGO    R1 6172   4.342   6.348   9.345 -0.4553  0.3058  0.0703
  521ERGO    R2 6173   4.251   6.511   9.141  0.0223  0.5137  0.0075
  521ERGO    R3 6174   4.457   6.399   9.003 -0.2203 -0.0681  0.0880
  521ERGO    R4 6175   4.259   6.474   8.798  0.0725  0.5349  0.0064
  521ERGO    R5 6176   4.349   6.277   8.827 -0.5020  0.2569  0.0248
  521ERGO    C1 6177   4.457   6.348   8.467 -0.1262  0.0011  0.0816
  521ERGO    C2 6178   4.427   6.187   8.215 -0.0318  0.1239  0.2940
  522ERGO   ROH 6179   4.786   6.521   9.312 -0.2017  0.0467 -0.0600
  522ERGO    R1 6180   4.830   6.625   9.052 -0.2399  0.1650 -0.0202
  522ERGO    R2 6181   4.970   6.487   8.857  0.0934  0.4224  0.0224
  522ERGO    R3 6182   4.745   6.530   8.711  0.0873  0.0758 -0.0791
  522ERGO    R4 6183   4.964   6.562   8.520  0.1047  0.1875 -0.0313
  522ERGO    R5 6184   4.805   6.705   8.559 -0.0643  0.0386 -0.1789
  522ERGO    C1 6185   4.750   6.646   8.187  0.1055 -0.2747 -0.1579
  522ERGO    C2 6186   4.702   6.581   7.932  0.0168 -0.0007  0.4039
  523ERGO   ROH 6187  11.044  16.369   9.488 -0.0736 -0.2890 -0.1252
  523ERGO    R1 6188  11.085  16.512   9.247 -0.1813  0.1216  0.0871
  523ERGO    R2 6189  11.131  16.386   9.004  0.4262  0.5157 -0.0346
  523ERGO    R3 6190  10.920  16.536   8.923  0.0914  0.0616 -0.0607
  523ERGO    R4 6191  11.067  16.477   8.678  0.3228  0.4454 -0.0308
  523ERGO    R5 6192  11.007  16.674   8.749 -0.1566  0.3110  0.0016
  523ERGO    C1 6193  10.830  16.672   8.411 -0.0517 -0.0219 -0.0531
  523ERGO    C2 6194  10.908  16.679   8.100  0.2848 -0.2560 -0.0635
  524ERGO   ROH 6195   9.341   7.643   6.714 -0.0646 -0.1695 -0.0782
  524ERGO    R1 6196   9.295   7.599   6.990 -0.1995 -0.0013 -0.0720
  524ERGO    R2 6197   9.489   7.642   7.182 -0.1976 -0.1632 -0.0365
  524ERGO    R3 6198   9.297   7.799   7.294 -0.0389  0.1233 -0.1533
  524ERGO    R4 6199   9.500   7.769   7.504 -0.2222 -0.2105 -0.0167
  524ERGO    R5 6200   9.287   7.726   7.522 -0.3054  0.1132 -0.1654
  524ERGO    C1 6201   9.326   7.989   7.796 -0.0874  0.0309 -0.1148
  524ERGO    C2 6202   9.373   8.103   8.112  0.0402 -0.4153  0.3761
  525ERGO   ROH 6203   1.252  18.110   7.439  0.0556  0.1357  0.0934
  525ERGO    R1 6204   1.112  18.173   7.677 -0.0492 -0.0488  0.0829
  525ERGO    R2 6205   0.975  17.983   7.824  0.1346 -0.2214  0.0381
  525ERGO    R3 6206   1.129  18.076   8.028  0.0069 -0.0797  0.0714
  525ERGO    R4 6207   0.904  17.942   8.160 -0.1115  0.0736  0.0267
  525ERGO    R5 6208   0.972  18.146   8.194 -0.0989  0.0901 -0.0971
  525ERGO    C1 6209   1.008  18.005   8.546 -0.3747  0.3785  0.0514
  525ERGO    C2 6210   1.172  17.998   8.861 -0.2439  0.0748  0.2897
  526ERGO   ROH 6211  17.613   3.182   9.955 -0.0272  0.0131  0.1543
  526ERGO    R1 6212  17.507   3.254   9.702 -0.1238 -0.0182  0.1861
  526ERGO    R2 6213  17.665   3.284   9.478 -0.1663  0.2592  0.1928
  526ERGO    R3 6214  17.491   3.105   9.370  0.0442  0.0866  0.1292
  526ERGO    R4 6215  17.594   3.256   9.141 -0.0686  0.2352  0.1732
  526ERGO    R5 6216  17.384   3.226   9.193 -0.0504  0.0024  0.1266
  526ERGO    C1 6217  17.389   3.073   8.844  0.1858  0.0591  0.1021
  526ERGO    C2 6218  17.463   2.845   8.576 -0.0899  0.0741  0.0245
  527ERGO   ROH 6219  10.506  11.526   6.538 -0.0369 -0.1339  0.0974
  527ERGO    R1 6220  10.657  11.525   6.777 -0.0494 -0.1245  0.1055
  527ERGO    R2 6221  10.859  11.707   6.827 -0.0947 -0.0809  0.1369
  527ERGO    R3 6222  10.716  11.755   7.053 -0.1198 -0.1405  0.1337
  527ERGO    R4 6223  10.995  11.800   7.131 -0.1337 -0.1336  0.1706
  527ERGO    R5 6224  10.853  11.668   7.230 -0.1312 -0.1654  0.1287
  527ERGO    C1 6225  10.940  11.899   7.520 -0.1801 -0.2203  0.1872
  527ERGO    C2 6226  11.168  12.010   7.752  0.4221  0.1877 -0.0255
  528ERGO   ROH 6227  12.493  13.812   9.991  0.2478 -0.3719  0.2503
  528ERGO    R1 6228  12.678  13.647   9.855  0.2633 -0.2117  0.0683
  528ERGO    R2 6229  12.628  13.543   9.604  0.1760 -0.1326  0.0395
  528ERGO    R3 6230  12.865  13.661   9.542  0.0712  0.0367 -0.0353
  528ERGO    R4 6231  12.858  13.417   9.378  0.2609 -0.0193  0.0656
  528ERGO    R5 6232  13.017  13.478   9.515  0.2219  0.1626  0.0160
  528ERGO    C1 6233  13.214  13.455   9.190  0.2119  0.2057  0.0105
  528ERGO    C2 6234  13.127  13.427   8.773  0.0169  0.1817 -0.3098
  529ERGO   ROH 6235   6.336   0.700   9.444  0.1214  0.0030  0.0087
  529ERGO    R1 6236   6.474   0.763   9.205  0.0499 -0.1522 -0.0748
  529ERGO    R2 6237   6.556   0.570   9.024 -0.1039 -0.2603 -0.0293
  529ERGO    R3 6238   6.417   0.722   8.848 -0.1130 -0.2759 -0.0360
  529ERGO    R4 6239   6.572   0.538   8.681 -0.1310 -0.3016 -0.0269
  529ERGO    R5 6240   6.568   0.755   8.665 -0.1251 -0.3023 -0.0517
  529ERGO    C1 6241   6.450   0.663   8.315 -0.1553 -0.3403 -0.0318
  529ERGO    C2 6242   6.456   0.698   8.040  0.1236 -0.0746  0.1800
  530ERGO   ROH 6243   9.003  13.917  10.052 -0.0038  0.1913  0.1024
  530ERGO    R1 6244   9.110  13.752   9.849  0.0589  0.2433  0.0926
  530ERGO    R2 6245   8.966  13.548   9.731  0.1395  0.1874  0.0902
  530ERGO    R3 6246   9.033  13.677   9.501  0.0786  0.2242  0.0914
  530ERGO    R4 6247   8.997  13.398   9.421  0.2800  0.1861  0.1051
  530ERGO    R5 6248   9.172  13.522   9.384  0.2030  0.3089  0.1192
  530ERGO    C1 6249   9.078  13.432   9.025  0.3046  0.2199  0.1149
  530ERGO    C2 6250   9.114  13.189   8.730  0.1212 -0.0184  0.5278
  531ERGO   ROH 6251   7.635  14.949   6.373  0.1211 -0.1901  0.0155
  531ERGO    R1 6252   7.506  15.000   6.620  0.0625 -0.0828 -0.0366
  531ERGO    R2 6253   7.519  14.825   6.834  0.0523  0.0322  0.0589
  531ERGO    R3 6254   7.608  15.045   6.966 -0.0147  0.1189 -0.0383
  531ERGO    R4 6255   7.559  14.847   7.176  0.0703  0.1858  0.0475
  531ERGO    R5 6256   7.480  15.050   7.168 -0.0019  0.1558 -0.0303
  531ERGO    C1 6257   7.666  15.066   7.500  0.0179  0.3567 -0.0505
  531ERGO    C2 6258   7.940  14.998   7.777  0.1617 -0.0246 -0.4137
  532ERGO   ROH 6259   7.464  15.882   6.017  0.1279  0.0004  0.0694
  532ERGO    R1 6260   7.581  15.947   6.266  0.1108 -0.0329  0.0865
  532ERGO    R2 6261   7.466  16.126   6.442  0.1798  0.0680  0.0324
  532ERGO    R3 6262   7.488  15.919   6.617  0.0101  0.0793  0.0686
  532ERGO    R4 6263   7.549  16.158   6.776  0.1194  0.0615  0.0480
  532ERGO    R5 6264   7.672  15.980   6.757  0.0130 -0.0168  0.1043
  532ERGO    C1 6265   7.618  15.983   7.135 -0.0751  0.0681  0.0912
  532ERGO    C2 6266   7.647  15.988   7.382  0.4174  0.1003  0.3879
  533ERGO   ROH 6267   3.155   4.288   6.743  0.0311 -0.1029 -0.0384
  533ERGO    R1 6268   3.304   4.410   6.950 -0.0232 -0.0318 -0.0406
  533ERGO    R2 6269   3.443   4.264   7.140 -0.0415  0.0332  0.0237
  533ERGO    R3 6270   3.652   4.416   7.057 -0.0442  0.0371  0.0247
  533ERGO    R4 6271   3.712   4.353   7.337 -0.1008  0.1344  0.0599
  533ERGO    R5 6272   3.706   4.551   7.248 -0.1086  0.1054 -0.0047
  533ERGO    C1 6273   4.066   4.547   7.374 -0.1378  0.1971  0.0820
  533ERGO    C2 6274   4.330   4.664   7.321 -0.1795 -0.1497 -0.1129
  534ERGO   ROH 6275  11.196  18.023   6.344  0.1287  0.2495  0.0728
  534ERGO    R1 6276  11.056  17.936   6.574  0.1963  0.0317  0.0347
  534ERGO    R2 6277  11.173  17.922   6.823  0.1344  0.2915  0.0838
  534ERGO    R3 6278  10.963  18.078   6.897 -0.1853 -0.0737 -0.0240
  534ERGO    R4 6279  11.034  17.928   7.140  0.2009  0.3151  0.1125
  534ERGO    R5 6280  10.837  17.940   7.047  0.1433 -0.1975  0.1473
  534ERGO    C1 6281  10.755  18.078   7.393 -0.0607 -0.0141  0.0281
  534ERGO    C2 6282  10.694  17.959   7.783 -0.0903 -0.0851 -0.0801
  535ERGO   ROH 6283  17.724   4.503   9.639  0.0919  0.2805  0.0817
  535ERGO    R1 6284  17.868   4.303   9.499 -0.0264  0.1390  0.1584
  535ERGO    R2 6285  17.795   4.216   9.247 -0.1046  0.0513  0.2089
  535ERGO    R3 6286  18.052   4.280   9.185 -0.0807 -0.1047  0.1433
  535ERGO    R4 6287  17.953   4.133   8.951 -0.2275 -0.0356  0.1669
  535ERGO    R5 6288  18.133   4.089   9.066 -0.2262 -0.1490  0.1169
  535ERGO    C1 6289  18.286   4.145   8.720 -0.2764 -0.2327  0.0810
  535ERGO    C2 6290  18.406   4.345   8.441 -0.1859 -0.2570  0.1721
  536ERGO   ROH 6291   7.880   0.767   9.294  0.0190  0.1760  0.1493
  536ERGO    R1 6292   8.024   0.816   9.056  0.0717  0.0972  0.1642
  536ERGO    R2 6293   7.916   0.772   8.805  0.1359 -0.0119  0.1540
  536ERGO    R3 6294   7.988   1.032   8.765  0.1189 -0.0197  0.0707
  536ERGO    R4 6295   8.075   0.891   8.522  0.2742 -0.1237  0.1837
  536ERGO    R5 6296   8.198   1.018   8.650  0.1850 -0.0439  0.1928
  536ERGO    C1 6297   8.234   1.204   8.319  0.3389 -0.1961  0.1229
  536ERGO    C2 6298   8.264   1.205   7.975  0.2752  0.2857  0.1059
  537ERGO   ROH 6299   7.111  12.229   6.843 -0.1596  0.2745  0.0470
  537ERGO    R1 6300   7.270  12.321   7.059 -0.1318  0.2416  0.0413
  537ERGO    R2 6301   7.402  12.564   7.055 -0.1120  0.2327  0.0534
  537ERGO    R3 6302   7.268  12.603   7.288 -0.0879  0.2201  0.0683
  537ERGO    R4 6303   7.525  12.736   7.328 -0.0588  0.1672  0.0698
  537ERGO    R5 6304   7.436  12.586   7.457 -0.0774  0.1627  0.0525
  537ERGO    C1 6305   7.472  12.873   7.705 -0.0051  0.1172  0.0933
  537ERGO    C2 6306   7.778  13.044   7.876  0.3588  0.2050  0.1356
  538ERGO   ROH 6307  12.827   5.803   8.707  0.0101 -0.2169  0.0891
  538ERGO    R1 6308  12.964   5.737   8.468  0.0823 -0.0842  0.0898
  538ERGO    R2 6309  13.156   5.538   8.457  0.1389 -0.0415  0.0480
  538ERGO    R3 6310  12.999   5.442   8.257  0.1969  0.0107 -0.0204
  538ERGO    R4 6311  13.262   5.325   8.206  0.1911  0.0216  0.0185
  538ERGO    R5 6312  13.141   5.438   8.065  0.2386  0.0526  0.0192
  538ERGO    C1 6313  13.175   5.111   7.873  0.2759  0.1073 -0.0632
  538ERGO    C2 6314  13.297   4.936   7.614  0.0282  0.0912  0.0612
  539ERGO   ROH 6315   2.118  15.298   7.114 -0.1608 -0.2356 -0.0753
  539ERGO    R1 6316   2.098  15.428   7.364  0.2458 -0.1606 -0.0761
  539ERGO    R2 6317   1.900  15.369   7.547  0.0917  0.4055 -0.0479
  539ERGO    R3 6318   2.111  15.331   7.715  0.0216 -0.1897 -0.0727
  539ERGO    R4 6319   1.874  15.327   7.889  0.0013  0.7057 -0.0147
  539ERGO    R5 6320   2.052  15.452   7.913  0.4477  0.1523 -0.1342
  539ERGO    C1 6321   2.057  15.267   8.246 -0.1171  0.3217 -0.0186
  539ERGO    C2 6322   2.237  15.294   8.615  0.0343  0.1667 -0.0458
  540ERGO   ROH 6323  18.242   6.259   9.420 -0.0854 -0.1909 -0.0669
  540ERGO    R1 6324  18.088   6.327   9.193 -0.2220 -0.4128 -0.0443
  540ERGO    R2 6325  18.189   6.477   8.984 -0.5499 -0.0011  0.0764
  540ERGO    R3 6326  18.104   6.266   8.834  0.0020 -0.1240 -0.0861
  540ERGO    R4 6327  18.170   6.474   8.639 -0.3899  0.1501  0.0649
  540ERGO    R5 6328  17.982   6.366   8.654 -0.1552 -0.3028 -0.0792
  540ERGO    C1 6329  18.080   6.274   8.297  0.2215  0.1228 -0.0941
  540ERGO    C2 6330  18.299   6.110   8.076  0.1881  0.3730 -0.1830
  541ERGO   ROH 6331  16.473   0.248  10.417 -0.1323  0.1492 -0.1282
  541ERGO    R1 6332  16.498   0.317  10.143  0.0115  0.0443 -0.1426
  541ERGO    R2 6333  16.673   0.189   9.973 -0.0866 -0.2003 -0.0635
  541ERGO    R3 6334  16.449   0.152   9.823 -0.0943  0.0041 -0.1064
  541ERGO    R4 6335  16.667   0.034   9.664 -0.2016 -0.4157  0.0441
  541ERGO    R5 6336  16.523   0.185   9.597  0.0270 -0.2592 -0.1093
  541ERGO    C1 6337  16.453  -0.091   9.343 -0.2759 -0.3493  0.0665
  541ERGO    C2 6338  16.486  -0.108   9.022 -0.1930 -0.0631  0.0864
  542ERGO   ROH 6339   1.666   9.135   9.349  0.2594 -0.1287  0.1308
  542ERGO    R1 6340   1.739   9.272   9.112  0.2810 -0.1307  0.1369
  542ERGO    R2 6341   1.864   9.146   8.900  0.2191 -0.1513  0.1149
  542ERGO    R3 6342   1.657   9.250   8.758  0.2403 -0.0702  0.1418
  542ERGO    R4 6343   1.893   9.299   8.592  0.2494 -0.1103  0.1375
  542ERGO    R5 6344   1.747   9.447   8.657  0.2930 -0.0782  0.1692
  542ERGO    C1 6345   1.715   9.485   8.279  0.2869 -0.0102  0.1759
  542ERGO    C2 6346   1.912   9.592   7.953 -0.0322  0.0393  0.1935
  543ERGO   ROH 6347  13.568   1.355   6.356 -0.0404 -0.3055  0.0079
  543ERGO    R1 6348  13.543   1.266   6.623 -0.0135 -0.1066  0.0774
  543ERGO    R2 6349  13.761   1.221   6.787 -0.0003  0.0661  0.1057
  543ERGO    R3 6350  13.631   1.392   6.953 -0.0322  0.1651 -0.0183
  543ERGO    R4 6351  13.851   1.285   7.114 -0.0813  0.2324  0.0973
  543ERGO    R5 6352  13.640   1.285   7.167 -0.0966  0.2764  0.0419
  543ERGO    C1 6353  13.781   1.482   7.461 -0.1583  0.4223 -0.0240
  543ERGO    C2 6354  13.848   1.476   7.754  0.0655 -0.0302  0.2444
  544ERGO   ROH 6355   3.653  14.409   6.823 -0.0119 -0.3837 -0.1232
  544ERGO    R1 6356   3.717  14.186   6.985  0.0636 -0.2403  0.0490
  544ERGO    R2 6357   3.883  14.205   7.204 -0.0232  0.0041  0.1010
  544ERGO    R3 6358   3.672  14.092   7.334 -0.0047 -0.0327  0.0975
  544ERGO    R4 6359   3.887  14.103   7.535  0.0569 -0.1958  0.0396
  544ERGO    R5 6360   3.772  13.927   7.476  0.0057 -0.1376 -0.0317
  544ERGO    C1 6361   3.691  13.938   7.849  0.1209 -0.3468  0.0006
  544ERGO    C2 6362   3.868  13.965   8.163  0.4107 -0.1550  0.4334
  545ERGO   ROH 6363   6.639  10.597   6.787 -0.0880 -0.1392 -0.0648
  545ERGO    R1 6364   6.706  10.490   7.041 -0.0346 -0.0242 -0.0286
  545ERGO    R2 6365   6.571  10.559   7.272 -0.0004  0.0653 -0.0303
  545ERGO    R3 6366   6.540  10.290   7.295  0.0246  0.0738  0.0870
  545ERGO    R4 6367   6.479  10.395   7.562 -0.0593  0.1910  0.0214
  545ERGO    R5 6368   6.623  10.239   7.514 -0.0295  0.1857  0.1329
  545ERGO    C1 6369   6.397  10.046   7.752 -0.0700  0.2721  0.1616
  545ERGO    C2 6370   6.294   9.940   8.021  0.1283 -0.1505 -0.5076
  546ERGO   ROH 6371   8.760   8.402   6.658  0.0212 -0.1377 -0.1074
  546ERGO    R1 6372   8.598   8.418   6.889  0.0213 -0.0105 -0.1171
  546ERGO    R2 6373   8.677   8.319   7.134 -0.0583 -0.0439 -0.1103
  546ERGO    R3 6374   8.621   8.571   7.219  0.1050 -0.0009 -0.1256
  546ERGO    R4 6375   8.650   8.414   7.465 -0.3545 -0.1001 -0.1150
  546ERGO    R5 6376   8.480   8.539   7.410 -0.1643  0.0961 -0.2970
  546ERGO    C1 6377   8.582   8.706   7.738 -0.3737 -0.0924 -0.1320
  546ERGO    C2 6378   8.775   8.827   7.998  0.1098  0.0101  0.1224
  547ERGO   ROH 6379  17.432  17.056   7.673  0.0062 -0.1669  0.0128
  547ERGO    R1 6380  17.477  17.020   7.950  0.0927 -0.2019 -0.0052
  547ERGO    R2 6381  17.283  16.921   8.121  0.0512  0.0338  0.0912
  547ERGO    R3 6382  17.477  16.741   8.184 -0.1263 -0.1909  0.0088
  547ERGO    R4 6383  17.254  16.674   8.361 -0.0461  0.2167  0.2696
  547ERGO    R5 6384  17.459  16.715   8.421  0.0696 -0.0217  0.0433
  547ERGO    C1 6385  17.418  16.362   8.561 -0.2695  0.1124  0.2961
  547ERGO    C2 6386  17.373  16.047   8.649 -0.1728 -0.1084  0.3979
  548ERGO   ROH 6387  10.597   7.115   6.538 -0.2239  0.1387  0.1817
  548ERGO    R1 6388  10.703   6.947   6.739 -0.3506  0.0806  0.2014
  548ERGO    R2 6389  10.893   7.034   6.920 -0.1310 -0.0953  0.0638
  548ERGO    R3 6390  10.713   6.943   7.103 -0.1680  0.2370  0.1995
  548ERGO    R4 6391  10.965   6.971   7.253 -0.0491 -0.0594  0.0532
  548ERGO    R5 6392  10.839   6.792   7.240 -0.3123  0.1124  0.1947
  548ERGO    C1 6393  10.838   6.849   7.617 -0.0360  0.2733  0.1743
  548ERGO    C2 6394  10.788   7.020   7.866 -0.1081 -0.3360 -0.3873
  549ERGO   ROH 6395   9.644  14.289   6.958 -0.4346 -0.1438  0.0055
  549ERGO    R1 6396   9.674  14.417   7.209 -0.1915 -0.1562 -0.0151
  549ERGO    R2 6397   9.476  14.575   7.320 -0.0287 -0.0450  0.1188
  549ERGO    R3 6398   9.506  14.408   7.532  0.0242 -0.0580  0.1020
  549ERGO    R4 6399   9.448  14.670   7.651  0.0852 -0.0585  0.1334
  549ERGO    R5 6400   9.617  14.542   7.697  0.0890 -0.0758  0.0732
  549ERGO    C1 6401   9.459  14.569   8.043  0.2012 -0.0785  0.1262
  549ERGO    C2 6402   9.413  14.628   8.368  0.1464  0.0079  0.1131
  550ERGO   ROH 6403   6.838   0.715   6.643  0.0213 -0.0538 -0.0113
  550ERGO    R1 6404   6.847   0.772   6.920  0.0928  0.0584 -0.0361
  550ERGO    R2 6405   6.974   0.608   7.102  0.0322  0.0661  0.0138
  550ERGO    R3 6406   7.105   0.837   7.169  0.1649  0.0260 -0.1022
  550ERGO    R4 6407   7.139   0.661   7.401 -0.0448  0.1687  0.0384
  550ERGO    R5 6408   7.060   0.864   7.402  0.0942  0.2257 -0.1379
  550ERGO    C1 6409   7.357   0.907   7.638  0.0348  0.1909 -0.0561
  550ERGO    C2 6410   7.654   0.977   7.901 -0.1075 -0.0716  0.1554
  551ERGO   ROH 6411  14.382   0.929   6.684  0.1708 -0.0470 -0.0773
  551ERGO    R1 6412  14.236   1.018   6.910  0.2239 -0.0669 -0.0346
  551ERGO    R2 6413  14.245   0.888   7.153  0.1951 -0.1541 -0.0758
  551ERGO    R3 6414  14.315   1.134   7.246  0.2998 -0.2106 -0.0034
  551ERGO    R4 6415  14.239   0.982   7.486 -0.2727 -0.0813 -0.0995
  551ERGO    R5 6416  14.160   1.176   7.423  0.0386 -0.0096 -0.2743
  551ERGO    C1 6417  14.300   1.268   7.766 -0.4466 -0.0921 -0.0453
  551ERGO    C2 6418  14.388   1.201   8.014 -0.1194 -0.1073 -0.3268
  552ERGO   ROH 6419  10.111   7.260   6.482 -0.1835  0.2644  0.1497
  552ERGO    R1 6420  10.117   7.201   6.759 -0.1088  0.1416  0.1216
  552ERGO    R2 6421  10.070   6.948   6.859 -0.0676  0.0992  0.0183
  552ERGO    R3 6422  10.310   6.986   6.980 -0.0399  0.0548 -0.0191
  552ERGO    R4 6423  10.173   6.786   7.146 -0.0847  0.1227  0.0391
  552ERGO    R5 6424  10.260   6.974   7.215 -0.0200  0.1159 -0.0077
  552ERGO    C1 6425  10.458   6.728   7.428 -0.0687  0.0948  0.0162
  552ERGO    C2 6426  10.547   6.525   7.762 -0.1803  0.0832 -0.0507
  553ERGO   ROH 6427   9.551   6.769   8.802  0.1992 -0.1775  0.1410
  553ERGO    R1 6428   9.816   6.826   8.720  0.1363 -0.0975 -0.0134
  553ERGO    R2 6429   9.873   6.965   8.488 -0.0429  0.0431  0.0186
  553ERGO    R3 6430  10.014   7.124   8.656  0.0493 -0.0349  0.0147
  553ERGO    R4 6431  10.022   7.264   8.399 -0.1365  0.1129  0.0964
  553ERGO    R5 6432  10.193   7.209   8.522 -0.0513  0.0651 -0.0505
  553ERGO    C1 6433  10.242   7.587   8.505 -0.1047  0.0804  0.1380
  553ERGO    C2 6434  10.438   7.889   8.715  0.4250 -0.0737  0.1975
  554ERGO   ROH 6435  16.005  15.179   7.289  0.0848 -0.1770  0.0725
  554ERGO    R1 6436  15.908  15.219   7.552  0.0312 -0.0324  0.0313
  554ERGO    R2 6437  16.076  15.239   7.770 -0.0170  0.0559  0.0554
  554ERGO    R3 6438  15.942  15.472   7.811  0.0028  0.0937 -0.0856
  554ERGO    R4 6439  16.045  15.397   8.076 -0.4689 -0.0535  0.0731
  554ERGO    R5 6440  15.837  15.443   8.024 -0.3740  0.0478 -0.2646
  554ERGO    C1 6441  15.901  15.708   8.293 -0.7134 -0.0817 -0.0488
  554ERGO    C2 6442  15.792  15.820   8.684  0.3443  0.0542 -0.1503
  555ERGO   ROH 6443   4.119  14.713  10.566  0.1803 -0.0627 -0.1598
  555ERGO    R1 6444   4.246  14.590  10.345  0.0821 -0.1511 -0.1687
  555ERGO    R2 6445   4.119  14.406  10.184 -0.0623 -0.0526 -0.1726
  555ERGO    R3 6446   4.195  14.575   9.985  0.0575 -0.0999 -0.1670
  555ERGO    R4 6447   4.096  14.336   9.846 -0.2421  0.0298 -0.1777
  555ERGO    R5 6448   4.290  14.431   9.819 -0.1480 -0.1739 -0.2215
  555ERGO    C1 6449   4.154  14.454   9.463 -0.2344  0.0332 -0.1755
  555ERGO    C2 6450   3.879  14.579   9.239  0.0751 -0.1836 -0.2449
  556ERGO   ROH 6451   6.376  18.011   6.780 -0.1131  0.6147  0.0163
  556ERGO    R1 6452   6.532  18.072   7.008 -0.1675  0.3572  0.1262
  556ERGO    R2 6453   6.429  18.073   7.264 -0.2043 -0.0339  0.1167
  556ERGO    R3 6454   6.634  17.902   7.313 -0.1497 -0.0311 -0.0896
  556ERGO    R4 6455   6.565  18.012   7.575 -0.0570 -0.2166  0.0188
  556ERGO    R5 6456   6.763  18.010   7.483 -0.0948 -0.1188 -0.0725
  556ERGO    C1 6457   6.837  17.815   7.803  0.0801 -0.3202 -0.2320
  556ERGO    C2 6458   6.918  17.509   8.090  0.0148  0.2333 -0.0760
  557ERGO   ROH 6459   8.513   4.418   9.109  0.0462 -0.0291  0.0651
  557ERGO    R1 6460   8.632   4.457   8.855 -0.0143 -0.0406  0.0348
  557ERGO    R2 6461   8.890   4.550   8.824 -0.0142 -0.0607 -0.0308
  557ERGO    R3 6462   8.918   4.325   8.674 -0.0697 -0.0646 -0.0354
  557ERGO    R4 6463   9.102   4.519   8.553 -0.0869 -0.0812 -0.0854
  557ERGO    R5 6464   8.946   4.406   8.450 -0.1213 -0.0705 -0.0436
  557ERGO    C1 6465   9.251   4.289   8.253 -0.1812 -0.0967 -0.1217
  557ERGO    C2 6466   9.513   4.327   7.997  0.2087 -0.0531 -0.0977
  558ERGO   ROH 6467   4.345   2.988   9.897 -0.0539 -0.0515  0.0432
  558ERGO    R1 6468   4.264   2.877   9.649 -0.0796 -0.0870  0.0668
  558ERGO    R2 6469   4.126   3.023   9.459  0.0216 -0.0725  0.0010
  558ERGO    R3 6470   4.328   2.942   9.297  0.0023 -0.2306  0.0551
  558ERGO    R4 6471   4.105   2.998   9.115  0.1635  0.1748 -0.0272
  558ERGO    R5 6472   4.220   2.813   9.126 -0.0799  0.0163 -0.0838
  558ERGO    C1 6473   4.284   2.907   8.762  0.2279  0.1704  0.0070
  558ERGO    C2 6474   4.275   2.794   8.529 -0.0679  0.0622  0.0779
  559ERGO   ROH 6475   8.216   2.541   6.199  0.0495  0.0500 -0.0907
  559ERGO    R1 6476   8.341   2.727   6.372  0.0467 -0.0413  0.0087
  559ERGO    R2 6477   8.203   2.932   6.494  0.0939  0.0381 -0.0826
  559ERGO    R3 6478   8.310   2.826   6.721 -0.1365 -0.0375 -0.0060
  559ERGO    R4 6479   8.296   3.115   6.772  0.4858  0.0557 -0.2176
  559ERGO    R5 6480   8.472   2.988   6.791  0.2225 -0.3250 -0.1271
  559ERGO    C1 6481   8.450   3.123   7.147  0.4977 -0.0051 -0.2244
  559ERGO    C2 6482   8.293   3.136   7.548  0.0593 -0.2040 -0.4408
  560ERGO   ROH 6483   2.870   7.048   9.956  0.1078 -0.0543 -0.2011
  560ERGO    R1 6484   2.864   6.903   9.713  0.1281  0.0162 -0.2440
  560ERGO    R2 6485   2.638   6.772   9.623  0.1647 -0.0437 -0.2499
  560ERGO    R3 6486   2.680   6.920   9.399  0.0755  0.0405 -0.2121
  560ERGO    R4 6487   2.581   6.662   9.300  0.0038  0.0872 -0.2675
  560ERGO    R5 6488   2.765   6.763   9.239 -0.0134  0.0933 -0.3132
  560ERGO    C1 6489   2.588   6.738   8.902 -0.1736  0.2424 -0.2422
  560ERGO    C2 6490   2.501   6.608   8.531  0.3484  0.3847 -0.0809
  561ERGO   ROH 6491  13.186   2.506   9.545  0.0321 -0.0941 -0.0388
  561ERGO    R1 6492  13.133   2.554   9.271 -0.0416 -0.2591 -0.0547
  561ERGO    R2 6493  13.263   2.751   9.127 -0.3591 -0.0811 -0.1052
  561ERGO    R3 6494  13.321   2.545   8.960 -0.0120 -0.0387 -0.0456
  561ERGO    R4 6495  13.215   2.754   8.785 -0.5563 -0.3279 -0.0823
  561ERGO    R5 6496  13.145   2.548   8.798 -0.1173 -0.4797  0.0462
  561ERGO    C1 6497  13.240   2.562   8.429 -0.3454 -0.4318 -0.0130
  561ERGO    C2 6498  13.168   2.558   8.255  0.1219 -0.1875  0.1267
  562ERGO   ROH 6499   6.508   1.674   9.707 -0.2002  0.1463  0.1874
  562ERGO    R1 6500   6.488   1.777   9.444 -0.1036  0.2594  0.2231
  562ERGO    R2 6501   6.392   1.627   9.232  0.1939  0.2699  0.0727
  562ERGO    R3 6502   6.222   1.837   9.204  0.0128  0.1238  0.0587
  562ERGO    R4 6503   6.190   1.683   8.958  0.0694  0.0327  0.1129
  562ERGO    R5 6504   6.236   1.895   8.972 -0.1003  0.0736  0.0403
  562ERGO    C1 6505   5.913   1.913   8.771 -0.1731 -0.2427  0.1230
  562ERGO    C2 6506   5.754   2.176   8.692  0.1936  0.0997  0.1161
  563ERGO   ROH 6507   4.744   5.477   9.644  0.1581  0.0682  0.0687
  563ERGO    R1 6508   4.815   5.543   9.378  0.1817 -0.1057  0.0303
  563ERGO    R2 6509   4.871   5.351   9.187 -0.1697 -0.2422  0.0579
  563ERGO    R3 6510   4.680   5.484   9.045 -0.0124  0.0192  0.0851
  563ERGO    R4 6511   4.837   5.340   8.843 -0.0388  0.0567  0.0326
  563ERGO    R5 6512   4.793   5.553   8.845  0.1245  0.0932  0.1851
  563ERGO    C1 6513   4.639   5.457   8.510  0.1851  0.4762  0.0436
  563ERGO    C2 6514   4.570   5.211   8.337 -0.0309  0.2525  0.1848
  564ERGO   ROH 6515   0.567   5.038   6.440 -0.0543  0.1794 -0.0192
  564ERGO    R1 6516   0.499   4.971   6.707  0.0098  0.0891 -0.0249
  564ERGO    R2 6517   0.595   5.111   6.924 -0.0019  0.0647 -0.0054
  564ERGO    R3 6518   0.331   5.134   6.985  0.0004 -0.0370  0.0448
  564ERGO    R4 6519   0.472   5.195   7.236  0.0306  0.0306  0.0165
  564ERGO    R5 6520   0.314   5.046   7.207  0.0818 -0.0349  0.0539
  564ERGO    C1 6521   0.152   5.265   7.475  0.0517 -0.0849  0.0764
  564ERGO    C2 6522   0.123   5.496   7.634  0.2531  0.0909 -0.3209
  565ERGO   ROH 6523   3.376  11.141   6.349 -0.3018 -0.1277 -0.0325
  565ERGO    R1 6524   3.464  11.144   6.618 -0.2593 -0.0003 -0.0476
  565ERGO    R2 6525   3.364  11.322   6.805 -0.3554 -0.0263 -0.0744
  565ERGO    R3 6526   3.314  11.095   6.946 -0.1700 -0.0293 -0.0105
  565ERGO    R4 6527   3.302  11.310   7.144 -0.2336  0.0073 -0.0503
  565ERGO    R5 6528   3.424  11.130   7.155 -0.1189  0.0822 -0.0537
  565ERGO    C1 6529   3.219  11.090   7.474  0.0114  0.0242  0.0236
  565ERGO    C2 6530   3.064  10.832   7.670  0.0643 -0.0075  0.1670
  566ERGO   ROH 6531   6.910   4.829   9.328 -0.1669 -0.1305  0.0115
  566ERGO    R1 6532   6.770   4.823   9.083  0.0154 -0.2190 -0.0926
  566ERGO    R2 6533   6.641   5.045   8.979 -0.1063 -0.3151 -0.1510
  566ERGO    R3 6534   6.794   4.990   8.760  0.1031 -0.1496 -0.0503
  566ERGO    R4 6535   6.594   5.181   8.665 -0.0463 -0.3706 -0.1845
  566ERGO    R5 6536   6.638   4.987   8.578  0.2276 -0.3239 -0.1554
  566ERGO    C1 6537   6.709   5.209   8.277  0.1853 -0.2474 -0.1095
  566ERGO    C2 6538   6.975   5.326   8.070 -0.2047 -0.4404  0.0133
  567ERGO   ROH 6539  17.894   4.860   6.250  0.0954  0.0032 -0.0390
  567ERGO    R1 6540  17.822   5.123   6.326  0.0660 -0.0612  0.1612
  567ERGO    R2 6541  17.864   5.221   6.581  0.4432 -0.1145  0.1247
  567ERGO    R3 6542  17.994   5.419   6.449  0.1033  0.0039 -0.0443
  567ERGO    R4 6543  17.981   5.511   6.727  0.3757 -0.0124 -0.0223
  567ERGO    R5 6544  17.914   5.621   6.550  0.0530 -0.0664  0.0590
  567ERGO    C1 6545  18.172   5.867   6.687  0.0175  0.1582 -0.2665
  567ERGO    C2 6546  18.202   6.074   6.932  0.0020  0.2156 -0.0425
  568ERGO   ROH 6547  14.112   6.245   9.070  0.0340 -0.1779 -0.0828
  568ERGO    R1 6548  14.149   6.051   8.867  0.1212 -0.1101 -0.1327
  568ERGO    R2 6549  13.970   6.017   8.660  0.0662 -0.2262 -0.0690
  568ERGO    R3 6550  14.192   6.051   8.506 -0.0218 -0.0057 -0.1497
  568ERGO    R4 6551  13.967   6.101   8.324 -0.1305 -0.0699 -0.0296
  568ERGO    R5 6552  14.131   5.961   8.293 -0.0504  0.0548 -0.1660
  568ERGO    C1 6553  14.172   6.182   7.985 -0.3277  0.2283 -0.0824
  568ERGO    C2 6554  14.328   6.484   7.761  0.1586  0.2558 -0.0183
  569ERGO   ROH 6555  10.509   3.383   9.991  0.1088  0.0667 -0.0319
  569ERGO    R1 6556  10.636   3.441   9.745 -0.0329 -0.0175 -0.1268
  569ERGO    R2 6557  10.495   3.481   9.510 -0.1769  0.0018 -0.0406
  569ERGO    R3 6558  10.635   3.714   9.504 -0.0909 -0.0511 -0.1643
  569ERGO    R4 6559  10.515   3.692   9.237 -0.1097 -0.1392 -0.1461
  569ERGO    R5 6560  10.726   3.723   9.283 -0.0972 -0.1938 -0.1725
  569ERGO    C1 6561  10.657   4.034   9.073  0.0101 -0.2710 -0.3237
  569ERGO    C2 6562  10.789   4.098   8.800  0.2198  0.1808 -0.1599
  570ERGO   ROH 6563   3.470   4.710   6.555  0.0038 -0.0081  0.0849
  570ERGO    R1 6564   3.507   4.807   6.819 -0.0384 -0.1180  0.1315
  570ERGO    R2 6565   3.365   5.023   6.919  0.0950 -0.0317  0.1267
  570ERGO    R3 6566   3.302   4.848   7.117 -0.1452 -0.0364  0.0493
  570ERGO    R4 6567   3.338   5.104   7.253  0.0447 -0.1014  0.1403
  570ERGO    R5 6568   3.437   4.916   7.302 -0.1466 -0.2142  0.1223
  570ERGO    C1 6569   3.263   4.987   7.634 -0.2101 -0.1463  0.0754
  570ERGO    C2 6570   2.938   5.109   7.700  0.2889  0.0648  0.2038
  571ERGO   ROH 6571   2.204  11.974   9.808  0.2282  0.0006 -0.0821
  571ERGO    R1 6572   2.190  11.890   9.537  0.0036 -0.0088 -0.0707
  571ERGO    R2 6573   1.966  11.930   9.380 -0.0294  0.2399  0.0279
  571ERGO    R3 6574   2.145  12.049   9.213  0.0369  0.0193 -0.0601
  571ERGO    R4 6575   1.920  11.977   9.041 -0.0548  0.1383  0.0181
  571ERGO    R5 6576   2.129  11.924   9.010 -0.1077 -0.0501 -0.0039
  571ERGO    C1 6577   2.060  12.115   8.687 -0.0075 -0.1277 -0.0704
  571ERGO    C2 6578   2.203  12.167   8.355 -0.1400 -0.1035  0.0204
  572ERGO   ROH 6579   2.531  15.740   7.005 -0.2693  0.0481  0.0168
  572ERGO    R1 6580   2.461  15.630   7.257 -0.2333  0.0403  0.0243
  572ERGO    R2 6581   2.641  15.494   7.416 -0.2428 -0.0870 -0.0657
  572ERGO    R3 6582   2.563  15.675   7.603 -0.0760 -0.0746 -0.0076
  572ERGO    R4 6583   2.738  15.489   7.747 -0.2314 -0.2617 -0.0712
  572ERGO    R5 6584   2.535  15.546   7.802 -0.1764 -0.1038 -0.0444
  572ERGO    C1 6585   2.721  15.656   8.116 -0.0681 -0.3519 -0.0199
  572ERGO    C2 6586   2.769  15.550   8.443  0.0344  0.1347  0.0649
  573ERGO   ROH 6587   2.530   3.080  10.174  0.2157 -0.0954 -0.2330
  573ERGO    R1 6588   2.339   3.072   9.966  0.3336 -0.1075 -0.3404
  573ERGO    R2 6589   2.180   3.289   9.900 -0.0023 -0.2742 -0.0827
  573ERGO    R3 6590   2.283   3.247   9.652  0.1931  0.2779 -0.1092
  573ERGO    R4 6591   2.049   3.418   9.607 -0.3387 -0.3523  0.0281
  573ERGO    R5 6592   2.091   3.228   9.510  0.2591 -0.1556 -0.1618
  573ERGO    C1 6593   2.070   3.454   9.204 -0.3511  0.1206  0.0678
  573ERGO    C2 6594   1.973   3.451   8.933 -0.1142  0.0154  0.2080
  574ERGO   ROH 6595   4.113   9.426   6.388 -0.1028 -0.0081  0.0171
  574ERGO    R1 6596   3.950   9.389   6.616 -0.0527 -0.1532  0.0290
  574ERGO    R2 6597   3.900   9.139   6.724  0.2357 -0.1901  0.0725
  574ERGO    R3 6598   3.992   9.255   6.952  0.1103 -0.0469  0.0536
  574ERGO    R4 6599   3.834   9.026   7.044  0.3551 -0.2168  0.0892
  574ERGO    R5 6600   3.811   9.234   7.107  0.1255 -0.2229  0.0552
  574ERGO    C1 6601   3.882   9.069   7.444  0.3069 -0.0980  0.0813
  574ERGO    C2 6602   3.913   9.067   7.817  0.3368  0.0061  0.3322
  575ERGO   ROH 6603   7.545   2.382   9.387  0.0781  0.0925 -0.1084
  575ERGO    R1 6604   7.494   2.206   9.171  0.0879  0.0270 -0.0586
  575ERGO    R2 6605   7.238   2.147   9.085  0.0824 -0.1148  0.0398
  575ERGO    R3 6606   7.335   2.228   8.844 -0.0377 -0.1078 -0.0061
  575ERGO    R4 6607   7.088   2.084   8.780 -0.1666  0.0674  0.1223
  575ERGO    R5 6608   7.285   2.047   8.696 -0.2520 -0.0308 -0.0263
  575ERGO    C1 6609   7.091   2.124   8.377 -0.4244  0.1801  0.1271
  575ERGO    C2 6610   6.866   2.072   8.172 -0.1815 -0.3451 -0.0704
  576ERGO   ROH 6611   8.985  14.897   6.590  0.1854  0.1150  0.1281
  576ERGO    R1 6612   8.886  14.928   6.854  0.0497  0.1134  0.0783
  576ERGO    R2 6613   9.029  15.056   7.053 -0.0004  0.0081  0.1856
  576ERGO    R3 6614   8.804  15.206   7.074  0.0587  0.1126  0.0816
  576ERGO    R4 6615   8.962  15.276   7.311  0.0136  0.1012  0.1100
  576ERGO    R5 6616   8.755  15.208   7.308 -0.0138  0.1924  0.0645
  576ERGO    C1 6617   8.711  15.545   7.480  0.0773  0.2537 -0.0317
  576ERGO    C2 6618   8.882  15.762   7.562 -0.2909  0.0173 -0.0029
  577ERGO   ROH 6619  16.678   9.723   9.345  0.0516 -0.0519  0.0475
  577ERGO    R1 6620  16.595   9.954   9.204 -0.1666 -0.1022  0.0936
  577ERGO    R2 6621  16.673  10.006   8.944 -0.0045  0.1430  0.1968
  577ERGO    R3 6622  16.406  10.025   8.901 -0.0039 -0.2292 -0.0428
  577ERGO    R4 6623  16.528  10.138   8.660  0.0801  0.2228  0.1876
  577ERGO    R5 6624  16.379  10.234   8.787 -0.2047 -0.1366  0.1540
  577ERGO    C1 6625  16.191  10.234   8.455  0.1301 -0.0800 -0.0428
  577ERGO    C2 6626  16.085  10.069   8.262  0.0132  0.1933  0.3305
  578ERGO   ROH 6627  12.664   1.195   7.292 -0.0167 -0.1343 -0.0187
  578ERGO    R1 6628  12.644   1.113   7.563 -0.0095  0.0181  0.0298
  578ERGO    R2 6629  12.839   0.961   7.687 -0.0996 -0.0893  0.0519
  578ERGO    R3 6630  12.836   1.163   7.868  0.1240  0.0116 -0.0537
  578ERGO    R4 6631  12.904   0.925   8.024 -0.3372 -0.0153  0.1071
  578ERGO    R5 6632  12.743   1.065   8.066 -0.1378  0.2631 -0.0499
  578ERGO    C1 6633  12.939   1.094   8.391 -0.2655  0.1224  0.0402
  578ERGO    C2 6634  13.127   1.258   8.588  0.0439  0.1745  0.1076
  579ERGO   ROH 6635   9.392   8.635   6.284  0.4246  0.1024  0.0306
  579ERGO    R1 6636   9.346   8.811   6.501  0.1984  0.0192  0.0525
  579ERGO    R2 6637   9.189   8.743   6.718  0.2194 -0.1776  0.0028
  579ERGO    R3 6638   9.411   8.812   6.859  0.1178  0.0237  0.0685
  579ERGO    R4 6639   9.222   8.716   7.061  0.1544 -0.2069  0.0073
  579ERGO    R5 6640   9.326   8.908   7.061 -0.0357 -0.0956  0.0660
  579ERGO    C1 6641   9.449   8.766   7.393  0.0214 -0.0351  0.0715
  579ERGO    C2 6642   9.636   8.733   7.764 -0.1592  0.0509 -0.0142
  580ERGO   ROH 6643  11.402   8.212   6.606  0.3005  0.1571 -0.0310
  580ERGO    R1 6644  11.375   8.372   6.838  0.3726  0.0951  0.0201
  580ERGO    R2 6645  11.216   8.299   7.051  0.2270  0.1646 -0.0658
  580ERGO    R3 6646  11.445   8.337   7.193  0.2146 -0.1071  0.0333
  580ERGO    R4 6647  11.229   8.364   7.390  0.1272  0.5126 -0.1244
  580ERGO    R5 6648  11.389   8.508   7.351  0.4261  0.1791 -0.1883
  580ERGO    C1 6649  11.451   8.438   7.721  0.0573  0.4600 -0.0655
  580ERGO    C2 6650  11.678   8.652   7.970 -0.1287 -0.1541 -0.0222
  581ERGO   ROH 6651   1.933  12.944   6.869 -0.3011  0.2659  0.0732
  581ERGO    R1 6652   1.970  12.835   7.128 -0.1449  0.0400 -0.0401
  581ERGO    R2 6653   2.029  12.991   7.348 -0.0662 -0.1407  0.0782
  581ERGO    R3 6654   1.812  12.867   7.454  0.0112 -0.2833  0.0690
  581ERGO    R4 6655   1.933  13.011   7.679 -0.2459 -0.0068  0.0188
  581ERGO    R5 6656   1.883  12.798   7.672 -0.0267 -0.0564  0.1482
  581ERGO    C1 6657   1.673  12.906   7.972 -0.2780 -0.0628 -0.0244
  581ERGO    C2 6658   1.690  13.059   8.313 -0.1150 -0.0643  0.2178
  582ERGO   ROH 6659  14.388   8.728   9.680  0.1253  0.2666  0.0920
  582ERGO    R1 6660  14.433   8.814   9.414  0.0535  0.0991  0.0246
  582ERGO    R2 6661  14.235   8.813   9.221 -0.0500  0.1574  0.1285
  582ERGO    R3 6662  14.306   9.074   9.194  0.1414  0.0911 -0.0357
  582ERGO    R4 6663  14.142   9.015   8.957 -0.1958  0.1556  0.1773
  582ERGO    R5 6664  14.343   9.101   8.958 -0.1178 -0.0141 -0.0912
  582ERGO    C1 6665  14.154   9.378   8.777 -0.1011  0.0924  0.0515
  582ERGO    C2 6666  14.170   9.385   8.389 -0.0896  0.0547 -0.0027
  583ERGO   ROH 6667  11.500  14.492   6.636  0.2250  0.0396  0.0524
  583ERGO    R1 6668  11.358  14.553   6.873  0.0785  0.1594 -0.0638
  583ERGO    R2 6669  11.393  14.410   7.108 -0.1599  0.1948 -0.0053
  583ERGO    R3 6670  11.442  14.656   7.212 -0.1206  0.1954 -0.0242
  583ERGO    R4 6671  11.310  14.510   7.428  0.2480  0.0918  0.1385
  583ERGO    R5 6672  11.250  14.703   7.348  0.0466  0.0833  0.2592
  583ERGO    C1 6673  11.308  14.799   7.713  0.5222  0.0324  0.2046
  583ERGO    C2 6674  11.210  14.680   8.076 -0.0264 -0.2534  0.3796
  584ERGO   ROH 6675   6.383  16.585  10.027 -0.0911 -0.1709 -0.0731
  584ERGO    R1 6676   6.248  16.466   9.809 -0.0451 -0.1454 -0.1176
  584ERGO    R2 6677   6.118  16.614   9.615 -0.1844 -0.1232 -0.0200
  584ERGO    R3 6678   6.276  16.470   9.447 -0.1044  0.0792 -0.1189
  584ERGO    R4 6679   6.043  16.541   9.285 -0.1876 -0.0472 -0.0349
  584ERGO    R5 6680   6.123  16.341   9.316 -0.0191  0.0103 -0.1417
  584ERGO    C1 6681   6.147  16.364   8.936 -0.1143  0.1872 -0.1366
  584ERGO    C2 6682   6.182  16.420   8.601 -0.0476 -0.1256 -0.0693
  585ERGO   ROH 6683   3.533  15.155   7.141 -0.1029  0.0847  0.1256
  585ERGO    R1 6684   3.512  15.147   7.423 -0.2158  0.0783  0.1189
  585ERGO    R2 6685   3.733  15.121   7.588 -0.2972 -0.1739  0.2031
  585ERGO    R3 6686   3.634  15.347   7.703 -0.1028 -0.0752  0.1781
  585ERGO    R4 6687   3.707  15.174   7.928 -0.4076 -0.1708  0.1937
  585ERGO    R5 6688   3.513  15.268   7.894 -0.2833  0.0465  0.1104
  585ERGO    C1 6689   3.599  15.417   8.234 -0.2894 -0.0762  0.1648
  585ERGO    C2 6690   3.626  15.604   8.579 -0.1131 -0.2231  0.0332
  586ERGO   ROH 6691  14.976   9.173   6.418  0.0432 -0.0077 -0.0361
  586ERGO    R1 6692  15.146   9.096   6.630 -0.0374  0.0611  0.0563
  586ERGO    R2 6693  15.058   8.942   6.843 -0.1018  0.0614  0.0411
  586ERGO    R3 6694  15.267   8.783   6.772 -0.0311  0.1083  0.1488
  586ERGO    R4 6695  15.127   8.632   6.980 -0.2316 -0.0309 -0.1029
  586ERGO    R5 6696  15.339   8.683   6.977 -0.2358 -0.0313  0.1463
  586ERGO    C1 6697  15.363   8.302   6.992 -0.2408 -0.0406 -0.0857
  586ERGO    C2 6698  15.278   7.829   6.929  0.1512 -0.1087  0.2217
  587ERGO   ROH 6699   5.785  14.105   7.828 -0.0664  0.0860 -0.1897
  587ERGO    R1 6700   6.067  14.082   7.848 -0.0782  0.0342 -0.0737
  587ERGO    R2 6701   6.226  14.286   7.944 -0.0760  0.0225 -0.0523
  587ERGO    R3 6702   6.315  14.093   8.114 -0.1813  0.0391  0.0227
  587ERGO    R4 6703   6.557  14.232   8.026 -0.0970 -0.1806 -0.0972
  587ERGO    R5 6704   6.520  14.017   8.015 -0.2561 -0.1592  0.0151
  587ERGO    C1 6705   6.834  14.019   8.232 -0.2081 -0.2833 -0.0530
  587ERGO    C2 6706   7.138  14.087   8.272  0.0978  0.0723 -0.1669
  588ERGO   ROH 6707   2.259   5.426  10.075 -0.0408 -0.1978  0.0512
  588ERGO    R1 6708   2.359   5.432   9.810 -0.0479 -0.0701  0.0502
  588ERGO    R2 6709   2.348   5.658   9.652 -0.1146 -0.0117  0.1340
  588ERGO    R3 6710   2.616   5.615   9.629 -0.1033  0.0710  0.1140
  588ERGO    R4 6711   2.553   5.810   9.418 -0.1869  0.0075  0.0830
  588ERGO    R5 6712   2.657   5.620   9.393 -0.1285  0.0373  0.1103
  588ERGO    C1 6713   2.924   5.857   9.261 -0.2184  0.0963  0.0345
  588ERGO    C2 6714   3.025   5.898   8.925 -0.3289 -0.1357  0.0660
  589ERGO   ROH 6715   0.917   1.835   6.591 -0.1422  0.0894 -0.0801
  589ERGO    R1 6716   0.819   1.880   6.852 -0.0184  0.1402 -0.0418
  589ERGO    R2 6717   0.702   1.681   7.004 -0.1994  0.2345 -0.0549
  589ERGO    R3 6718   0.890   1.754   7.186 -0.0634 -0.0159 -0.0904
  589ERGO    R4 6719   0.666   1.652   7.346 -0.1982  0.3334 -0.0463
  589ERGO    R5 6720   0.764   1.846   7.368  0.0930  0.1972 -0.0856
  589ERGO    C1 6721   0.822   1.704   7.717 -0.0698  0.1559 -0.0746
  589ERGO    C2 6722   0.835   1.605   8.006  0.3049  0.2257  0.1069
  590ERGO   ROH 6723   8.096   1.688   6.220  0.0450 -0.0768  0.0542
  590ERGO    R1 6724   8.271   1.871   6.347  0.1010 -0.0722 -0.0296
  590ERGO    R2 6725   8.202   2.134   6.394  0.1099 -0.0788  0.0165
  590ERGO    R3 6726   8.268   2.072   6.650  0.2479 -0.0846 -0.0193
  590ERGO    R4 6727   8.327   2.359   6.625 -0.1609  0.0128  0.0779
  590ERGO    R5 6728   8.463   2.204   6.694  0.0745  0.1770 -0.0081
  590ERGO    C1 6729   8.461   2.431   7.001 -0.1892  0.0606  0.0802
  590ERGO    C2 6730   8.539   2.532   7.230  0.0634  0.2681 -0.2239
  591ERGO   ROH 6731  10.156   8.427   6.603  0.0315 -0.1773 -0.0514
  591ERGO    R1 6732  10.113   8.353   6.872  0.1226 -0.2592 -0.0578
  591ERGO    R2 6733  10.319   8.282   7.042  0.2252  0.0524 -0.0401
  591ERGO    R3 6734  10.213   8.476   7.200 -0.0951 -0.1144 -0.0449
  591ERGO    R4 6735  10.282   8.260   7.385  0.2100 -0.0175 -0.0472
  591ERGO    R5 6736  10.088   8.356   7.365  0.0633 -0.3126 -0.0684
  591ERGO    C1 6737  10.161   8.429   7.733 -0.0995 -0.2148 -0.0558
  591ERGO    C2 6738  10.281   8.559   8.015  0.2497  0.0281 -0.1622
  592ERGO   ROH 6739   1.382  14.225   6.956  0.1748 -0.1146 -0.0385
  592ERGO    R1 6740   1.427  14.223   7.235  0.0998 -0.2303 -0.0271
  592ERGO    R2 6741   1.320  14.413   7.405  0.3049 -0.1219 -0.0213
  592ERGO    R3 6742   1.224  14.195   7.536 -0.0177 -0.0240 -0.0840
  592ERGO    R4 6743   1.221  14.409   7.736  0.3384 -0.0741 -0.0102
  592ERGO    R5 6744   1.315  14.213   7.757  0.0433 -0.2338 -0.0862
  592ERGO    C1 6745   1.074  14.202   8.052  0.0551  0.0458 -0.0626
  592ERGO    C2 6746   1.026  14.099   8.395  0.0259  0.1218 -0.1686
  593ERGO   ROH 6747  12.471   5.223   9.436  0.2204 -0.1529 -0.1052
  593ERGO    R1 6748  12.264   5.278   9.251  0.0499 -0.1635  0.0774
  593ERGO    R2 6749  12.313   5.326   8.983 -0.1569  0.1835  0.0923
  593ERGO    R3 6750  12.133   5.125   8.948  0.0335  0.0288 -0.0132
  593ERGO    R4 6751  12.154   5.254   8.684 -0.1578  0.2503  0.0779
  593ERGO    R5 6752  11.971   5.217   8.797 -0.0953 -0.0179  0.0967
  593ERGO    C1 6753  11.893   5.024   8.477  0.0204  0.1439 -0.0297
  593ERGO    C2 6754  12.043   5.030   8.089 -0.0466 -0.0505 -0.1637
  594ERGO   ROH 6755   6.860   9.468   6.791 -0.0844  0.2681 -0.1755
  594ERGO    R1 6756   6.638   9.379   6.942 -0.0032  0.2127 -0.0884
  594ERGO    R2 6757   6.626   9.126   7.054  0.0674  0.1798 -0.1566
  594ERGO    R3 6758   6.578   9.265   7.283  0.1753  0.1097 -0.0901
  594ERGO    R4 6759   6.491   8.993   7.343 -0.0509  0.1511 -0.2238
  594ERGO    R5 6760   6.374   9.174   7.367  0.0969  0.2372 -0.1400
  594ERGO    C1 6761   6.368   9.045   7.726 -0.0186  0.0685 -0.2004
  594ERGO    C2 6762   6.229   8.852   8.003  0.1649 -0.1542 -0.1955
  595ERGO   ROH 6763   2.388   4.472   6.902 -0.0236 -0.0337  0.0302
  595ERGO    R1 6764   2.377   4.698   7.072 -0.1139 -0.0255  0.0121
  595ERGO    R2 6765   2.223   4.704   7.301 -0.0047 -0.1227  0.0839
  595ERGO    R3 6766   2.458   4.773   7.419  0.0004  0.0744 -0.0343
  595ERGO    R4 6767   2.250   4.860   7.608  0.0147 -0.2915  0.1704
  595ERGO    R5 6768   2.411   4.983   7.525 -0.1795 -0.0439  0.1350
  595ERGO    C1 6769   2.487   5.016   7.897  0.0309 -0.2048  0.1098
  595ERGO    C2 6770   2.563   4.942   8.180 -0.0000 -0.2590  0.2866
  596ERGO   ROH 6771   4.007   3.456   6.760 -0.0284 -0.0066 -0.0328
  596ERGO    R1 6772   4.031   3.363   7.027 -0.0870 -0.1422 -0.0737
  596ERGO    R2 6773   3.951   3.513   7.244  0.1828 -0.1062  0.0040
  596ERGO    R3 6774   3.806   3.291   7.303 -0.1190  0.0728 -0.0417
  596ERGO    R4 6775   3.847   3.424   7.562  0.2973 -0.1666  0.0248
  596ERGO    R5 6776   3.894   3.216   7.513 -0.0621 -0.2131 -0.1623
  596ERGO    C1 6777   3.651   3.163   7.802  0.0806 -0.0338 -0.0061
  596ERGO    C2 6778   3.631   3.256   8.130  0.1561 -0.2240  0.3391
  597ERGO   ROH 6779  17.713  10.182   6.434 -0.1496  0.1304  0.1588
  597ERGO    R1 6780  17.659  10.141   6.709 -0.1059  0.1031  0.1653
  597ERGO    R2 6781  17.859  10.125   6.900 -0.0706  0.0700  0.1363
  597ERGO    R3 6782  17.716  10.323   7.019 -0.0400  0.0675  0.1720
  597ERGO    R4 6783  17.785  10.140   7.237 -0.1164 -0.0005  0.1276
  597ERGO    R5 6784  17.585  10.211   7.185 -0.0873  0.0580  0.1218
  597ERGO    C1 6785  17.608  10.335   7.545 -0.1147 -0.0440  0.1562
  597ERGO    C2 6786  17.722  10.432   7.745  0.1182  0.1410  0.1459
  598ERGO   ROH 6787   4.213   8.605   9.312 -0.0530  0.1846  0.0859
  598ERGO    R1 6788   4.335   8.553   9.061  0.0376  0.1436  0.1369
  598ERGO    R2 6789   4.191   8.469   8.841  0.1397 -0.0641  0.1409
  598ERGO    R3 6790   4.309   8.684   8.723  0.0189 -0.0379  0.0693
  598ERGO    R4 6791   4.245   8.503   8.501 -0.0302 -0.0579  0.1144
  598ERGO    R5 6792   4.440   8.590   8.545 -0.0400 -0.0005  0.0124
  598ERGO    C1 6793   4.386   8.725   8.192 -0.2425 -0.0294  0.0318
  598ERGO    C2 6794   4.306   8.731   7.750  0.0359  0.0467 -0.0418
  599ERGO   ROH 6795  11.046  14.752   6.472  0.1715 -0.0386  0.1489
  599ERGO    R1 6796  11.049  14.966   6.658  0.1728 -0.0259  0.1344
  599ERGO    R2 6797  11.246  14.995   6.849  0.1868 -0.0003  0.1166
  599ERGO    R3 6798  11.271  15.242   6.739  0.1617 -0.0061  0.0977
  599ERGO    R4 6799  11.384  15.268   7.009  0.1131  0.0389  0.1137
  599ERGO    R5 6800  11.228  15.392   6.921  0.1060  0.0035  0.0765
  599ERGO    C1 6801  11.489  15.660   6.999  0.0469  0.0561  0.0944
  599ERGO    C2 6802  11.815  15.831   6.963  0.2014 -0.2114  0.2291
  600ERGO   ROH 6803  12.602   9.952   6.585  0.3065 -0.0360 -0.0079
  600ERGO    R1 6804  12.713  10.026   6.834  0.3021  0.0377 -0.0271
  600ERGO    R2 6805  12.570  10.013   7.071  0.2905  0.1264 -0.0259
  600ERGO    R3 6806  12.782   9.863   7.152  0.2752  0.1359  0.0287
  600ERGO    R4 6807  12.675   9.981   7.398  0.2263  0.1519 -0.0032
  600ERGO    R5 6808  12.881   9.991   7.328  0.2385  0.1485  0.0382
  600ERGO    C1 6809  12.936   9.822   7.666  0.1747  0.1756  0.0613
  600ERGO    C2 6810  13.129   9.526   7.924  0.2805  0.1498  0.0291
  601ERGO   ROH 6811  11.146  11.191   9.500 -0.2508 -0.2407 -0.1915
  601ERGO    R1 6812  11.140  11.126   9.224 -0.1888 -0.1554 -0.2137
  601ERGO    R2 6813  10.932  11.201   9.058 -0.1470 -0.0933 -0.2414
  601ERGO    R3 6814  11.132  11.309   8.910 -0.1054 -0.0567 -0.1582
  601ERGO    R4 6815  10.914  11.269   8.719 -0.0477 -0.0125 -0.2306
  601ERGO    R5 6816  11.119  11.197   8.699 -0.0427 -0.0054 -0.1886
  601ERGO    C1 6817  11.092  11.410   8.383  0.0491  0.0689 -0.1463
  601ERGO    C2 6818  11.011  11.646   8.069  0.1442  0.1098 -0.1713
  602ERGO   ROH 6819  12.262  11.172   9.680  0.1264  0.0349 -0.0114
  602ERGO    R1 6820  12.268  11.314   9.435  0.0268  0.0642  0.0023
  602ERGO    R2 6821  12.410  11.225   9.215  0.0526  0.1621 -0.0229
  602ERGO    R3 6822  12.170  11.250   9.090  0.0257  0.0475  0.0059
  602ERGO    R4 6823  12.366  11.354   8.897 -0.0356  0.0338 -0.0627
  602ERGO    R5 6824  12.187  11.456   8.969 -0.0531  0.0082 -0.0720
  602ERGO    C1 6825  12.114  11.452   8.595 -0.1121 -0.1485 -0.0588
  602ERGO    C2 6826  12.004  11.592   8.426  0.0085  0.0205  0.0121
  603ERGO   ROH 6827  15.150   5.333   9.563 -0.1945 -0.0954 -0.0467
  603ERGO    R1 6828  15.249   5.283   9.303 -0.1678 -0.0151 -0.0515
  603ERGO    R2 6829  15.248   5.032   9.189 -0.0798  0.0072 -0.0962
  603ERGO    R3 6830  15.116   5.159   8.988 -0.1126 -0.0021 -0.0811
  603ERGO    R4 6831  15.236   4.924   8.861 -0.0147  0.0605 -0.1167
  603ERGO    R5 6832  15.257   5.131   8.797 -0.0853  0.0838 -0.0766
  603ERGO    C1 6833  15.105   4.981   8.481 -0.0076  0.0829 -0.1145
  603ERGO    C2 6834  15.050   4.891   8.163  0.0949  0.1301  0.0167
  604ERGO   ROH 6835  14.607  18.211   6.982  0.2660  0.1764  0.2450
  604ERGO    R1 6836  14.502  18.315   7.224  0.0997 -0.0203  0.2602
  604ERGO    R2 6837  14.232  18.316   7.281  0.0704 -0.1511  0.1140
  604ERGO    R3 6838  14.313  18.187   7.507 -0.0127 -0.2730  0.0761
  604ERGO    R4 6839  14.056  18.309   7.578  0.0922 -0.0628  0.1298
  604ERGO    R5 6840  14.245  18.332   7.685  0.1293 -0.2484  0.1158
  604ERGO    C1 6841  14.030  18.184   7.963  0.0266 -0.1259  0.1035
  604ERGO    C2 6842  13.853  18.067   8.249 -0.2847 -0.1687 -0.4302
  605ERGO   ROH 6843   0.168  13.168   9.872  0.1377  0.0601 -0.0103
  605ERGO    R1 6844   0.282  13.198   9.615  0.0903 -0.0513 -0.0453
  605ERGO    R2 6845   0.137  13.163   9.382 -0.0009  0.0301 -0.0024
  605ERGO    R3 6846   0.229  13.412   9.325  0.1674 -0.0416 -0.0524
  605ERGO    R4 6847   0.153  13.300   9.065 -0.0671  0.0182 -0.0110
  605ERGO    R5 6848   0.346  13.387   9.118  0.0328 -0.1349 -0.1182
  605ERGO    C1 6849   0.249  13.615   8.828  0.0525 -0.0560 -0.0630
  605ERGO    C2 6850   0.414  13.746   8.684 -0.1096  0.1190  0.1233
  606ERGO   ROH 6851  13.098   6.366   9.164  0.0578  0.2718 -0.0379
  606ERGO    R1 6852  12.961   6.440   8.928 -0.3861 -0.1045  0.0885
  606ERGO    R2 6853  13.078   6.426   8.678 -0.4302  0.5584  0.0209
  606ERGO    R3 6854  12.859   6.276   8.620  0.1181 -0.3262  0.0252
  606ERGO    R4 6855  12.990   6.320   8.361 -0.2272  0.5923 -0.0493
  606ERGO    R5 6856  12.782   6.362   8.410 -0.4224 -0.3450  0.1910
  606ERGO    C1 6857  12.734   6.117   8.121  0.4056 -0.2185 -0.0860
  606ERGO    C2 6858  12.672   5.823   7.926 -0.0699  0.0083 -0.1534
  607ERGO   ROH 6859  12.883   4.469   6.592 -0.0617  0.0065 -0.1198
  607ERGO    R1 6860  12.786   4.327   6.817 -0.1630  0.0163 -0.1580
  607ERGO    R2 6861  12.915   4.328   7.061 -0.0468 -0.3112 -0.2193
  607ERGO    R3 6862  12.673   4.410   7.154  0.1099 -0.0139 -0.0553
  607ERGO    R4 6863  12.785   4.247   7.371  0.0190 -0.2569 -0.1763
  607ERGO    R5 6864  12.590   4.221   7.276 -0.0764  0.0436 -0.0832
  607ERGO    C1 6865  12.481   4.276   7.638  0.2043  0.0538  0.0026
  607ERGO    C2 6866  12.397   4.258   8.008  0.0925  0.1347  0.0225
  608ERGO   ROH 6867  14.836  15.874  10.280  0.2009  0.1174 -0.0487
  608ERGO    R1 6868  14.770  15.872  10.005  0.0923  0.0094 -0.0228
  608ERGO    R2 6869  14.726  16.104   9.861 -0.0151 -0.0480 -0.0854
  608ERGO    R3 6870  14.916  15.999   9.697 -0.0564 -0.0626 -0.1240
  608ERGO    R4 6871  14.789  16.211   9.539  0.0089  0.0247 -0.0567
  608ERGO    R5 6872  14.815  16.003   9.480 -0.0626  0.0341 -0.1191
  608ERGO    C1 6873  15.004  16.176   9.197 -0.0158  0.0533 -0.0763
  608ERGO    C2 6874  15.012  16.357   8.849 -0.1306  0.0648  0.0779
  609ERGO   ROH 6875   4.119   9.686   9.546 -0.1551  0.0922  0.1547
  609ERGO    R1 6876   4.100   9.685   9.264 -0.0310  0.1354  0.1454
  609ERGO    R2 6877   4.096   9.452   9.116 -0.0307  0.1561  0.1123
  609ERGO    R3 6878   3.867   9.558   9.015  0.0426  0.2331  0.0253
  609ERGO    R4 6879   3.940   9.345   8.827 -0.0485  0.0928  0.1450
  609ERGO    R5 6880   3.899   9.554   8.778  0.0753  0.0920  0.0310
  609ERGO    C1 6881   3.635   9.383   8.563  0.0100  0.1284  0.0823
  609ERGO    C2 6882   3.637   9.228   8.247 -0.0094  0.0433  0.0434
  610ERGO   ROH 6883   6.191  12.592  10.228  0.0325  0.2393 -0.1179
  610ERGO    R1 6884   5.993  12.613  10.027 -0.0467  0.0132 -0.0675
  610ERGO    R2 6885   6.047  12.715   9.775 -0.2119  0.0094 -0.1058
  610ERGO    R3 6886   5.941  12.479   9.692 -0.0188 -0.1089 -0.0233
  610ERGO    R4 6887   5.999  12.625   9.445 -0.2209 -0.1085 -0.0728
  610ERGO    R5 6888   5.808  12.538   9.502 -0.1262 -0.2727 -0.0007
  610ERGO    C1 6889   5.871  12.352   9.175 -0.0449 -0.2882  0.0238
  610ERGO    C2 6890   5.814  12.305   8.870 -0.2088 -0.2007  0.1250
  611ERGO   ROH 6891   5.158   0.220   9.881  0.0915  0.0114 -0.2010
  611ERGO    R1 6892   5.031   0.432   9.743  0.0430  0.0199 -0.1438
  611ERGO    R2 6893   5.093   0.499   9.482 -0.0457  0.0379 -0.1609
  611ERGO    R3 6894   4.826   0.467   9.444 -0.0586  0.0387 -0.0726
  611ERGO    R4 6895   4.919   0.608   9.204 -0.1397  0.0530 -0.0964
  611ERGO    R5 6896   4.757   0.670   9.336 -0.0959  0.0447 -0.0381
  611ERGO    C1 6897   4.567   0.642   9.007 -0.2067  0.0625  0.0239
  611ERGO    C2 6898   4.380   0.456   8.780 -0.1914 -0.0650  0.2087
  612ERGO   ROH 6899   8.173   6.712   9.674 -0.2529 -0.0638 -0.0614
  612ERGO    R1 6900   8.099   6.557   9.449 -0.1538 -0.0378 -0.1127
  612ERGO    R2 6901   7.967   6.665   9.231 -0.0445 -0.0090 -0.1665
  612ERGO    R3 6902   8.174   6.555   9.093  0.0168 -0.0060 -0.0773
  612ERGO    R4 6903   8.001   6.671   8.887  0.1648  0.0925 -0.1461
  612ERGO    R5 6904   8.073   6.465   8.896  0.1184  0.0764 -0.1671
  612ERGO    C1 6905   8.214   6.571   8.557  0.3443  0.1544 -0.0505
  612ERGO    C2 6906   8.102   6.542   8.257  0.1295  0.0738  0.5019
  613ERGO   ROH 6907  16.943   2.153   6.912 -0.1827 -0.0133  0.0960
  613ERGO    R1 6908  16.987   2.411   7.019 -0.0877  0.0225 -0.0239
  613ERGO    R2 6909  16.796   2.612   7.009 -0.1109  0.0144  0.1021
  613ERGO    R3 6910  16.836   2.619   7.277  0.1528  0.0912  0.0622
  613ERGO    R4 6911  16.787   2.897   7.203 -0.0158  0.0536  0.0478
  613ERGO    R5 6912  16.957   2.822   7.315  0.1194  0.1398 -0.1031
  613ERGO    C1 6913  16.819   3.070   7.569  0.2869  0.1485 -0.0213
  613ERGO    C2 6914  16.827   3.121   7.944  0.0628 -0.0585  0.1437
  614ERGO   ROH 6915  16.156   6.824   6.162 -0.2665 -0.1610  0.1004
  614ERGO    R1 6916  16.183   6.729   6.427 -0.0725 -0.0978  0.1047
  614ERGO    R2 6917  16.421   6.745   6.568 -0.0224  0.1227  0.0004
  614ERGO    R3 6918  16.266   6.872   6.752 -0.0505  0.0236  0.0458
  614ERGO    R4 6919  16.513   6.806   6.895  0.0454  0.2069 -0.0340
  614ERGO    R5 6920  16.310   6.757   6.956  0.1011  0.0661  0.0381
  614ERGO    C1 6921  16.421   6.961   7.258  0.0583  0.1629 -0.0114
  614ERGO    C2 6922  16.388   7.199   7.477  0.1866 -0.1656  0.0591
  615ERGO   ROH 6923  15.928   4.503   6.310  0.3189  0.3273  0.0660
  615ERGO    R1 6924  15.849   4.670   6.525 -0.0667  0.2225  0.0144
  615ERGO    R2 6925  15.626   4.619   6.679  0.0883 -0.2990  0.0900
  615ERGO    R3 6926  15.803   4.635   6.884  0.1122  0.2471  0.0395
  615ERGO    R4 6927  15.543   4.688   7.007  0.0184 -0.2426  0.0603
  615ERGO    R5 6928  15.720   4.814   7.020 -0.2512  0.1684 -0.0718
  615ERGO    C1 6929  15.661   4.744   7.391  0.0001  0.3027 -0.0044
  615ERGO    C2 6930  15.811   4.787   7.730  0.2116  0.0533 -0.0120
  616ERGO   ROH 6931   8.540  18.312   9.303 -0.1212 -0.2414  0.1015
  616ERGO    R1 6932   8.460  18.247   9.039 -0.0649  0.1384 -0.0160
  616ERGO    R2 6933   8.544  18.391   8.819  0.3550  0.1908  0.1626
  616ERGO    R3 6934   8.625  18.147   8.731 -0.0309  0.1107  0.0129
  616ERGO    R4 6935   8.546  18.290   8.488  0.2593  0.4052  0.0957
  616ERGO    R5 6936   8.475  18.095   8.552 -0.0789  0.4781 -0.0561
  616ERGO    C1 6937   8.623  18.002   8.213 -0.1586  0.4551 -0.0839
  616ERGO    C2 6938   8.694  17.730   7.830 -0.6832  0.2242 -0.1777
  617ERGO   ROH 6939  14.032  14.493  10.494 -0.0392 -0.0351 -0.1389
  617ERGO    R1 6940  14.060  14.589  10.229 -0.0579 -0.0956 -0.1630
  617ERGO    R2 6941  14.306  14.646  10.117 -0.0755  0.0262 -0.1401
  617ERGO    R3 6942  14.220  14.477   9.922  0.0621 -0.0858 -0.1045
  617ERGO    R4 6943  14.479  14.577   9.826  0.0710 -0.0428 -0.0379
  617ERGO    R5 6944  14.289  14.581   9.718  0.1144 -0.1508 -0.1207
  617ERGO    C1 6945  14.499  14.377   9.474  0.2856 -0.1881  0.0552
  617ERGO    C2 6946  14.551  14.407   9.156  0.1327 -0.1159  0.1629
  618ERGO   ROH 6947   0.480   6.884   9.454  0.0577  0.1636  0.0177
  618ERGO    R1 6948   0.659   6.872   9.235  0.0354  0.0245  0.0052
  618ERGO    R2 6949   0.702   6.641   9.088 -0.0682 -0.0399  0.0708
  618ERGO    R3 6950   0.637   6.801   8.879 -0.0243 -0.0769  0.0299
  618ERGO    R4 6951   0.726   6.552   8.756  0.0190 -0.0853  0.0894
  618ERGO    R5 6952   0.800   6.751   8.712  0.0173 -0.0909  0.0780
  618ERGO    C1 6953   0.678   6.650   8.365  0.1110 -0.1465  0.0618
  618ERGO    C2 6954   0.727   6.553   8.047 -0.2259  0.1182 -0.1162
  619ERGO   ROH 6955   2.442   7.872   9.363  0.0070 -0.3795  0.0180
  619ERGO    R1 6956   2.378   7.952   9.100 -0.0277 -0.2841  0.0559
  619ERGO    R2 6957   2.469   7.817   8.877 -0.1390 -0.2602 -0.0003
  619ERGO    R3 6958   2.205   7.808   8.814 -0.1587 -0.1370  0.0588
  619ERGO    R4 6959   2.344   7.747   8.562 -0.2393 -0.3878  0.0662
  619ERGO    R5 6960   2.194   7.902   8.594 -0.1393 -0.2703 -0.0031
  619ERGO    C1 6961   2.023   7.699   8.320 -0.3160 -0.3464  0.1603
  619ERGO    C2 6962   1.983   7.621   7.915 -0.1361 -0.0542  0.2683
  620ERGO   ROH 6963   0.228  17.177   7.414  0.0606 -0.0865 -0.0323
  620ERGO    R1 6964   0.076  17.189   7.653  0.0599 -0.0108 -0.0381
  620ERGO    R2 6965  -0.031  16.964   7.773  0.0982  0.0288  0.0515
  620ERGO    R3 6966   0.104  17.057   7.991  0.0761  0.1363  0.0222
  620ERGO    R4 6967  -0.088  16.865   8.099  0.2851 -0.0872  0.0519
  620ERGO    R5 6968  -0.062  17.071   8.162  0.0984 -0.0568  0.0737
  620ERGO    C1 6969   0.004  16.894   8.493  0.3731 -0.0538  0.0246
  620ERGO    C2 6970   0.266  16.735   8.733  0.0325  0.4007  0.3633
  621ERGO   ROH 6971  16.713  17.796   7.385  0.0387 -0.3071  0.2905
  621ERGO    R1 6972  16.519  17.905   7.560  0.0608 -0.2700  0.2918
  621ERGO    R2 6973  16.268  17.981   7.474  0.1657  0.0269  0.2398
  621ERGO    R3 6974  16.185  17.815   7.673 -0.0737 -0.0591  0.0734
  621ERGO    R4 6975  15.944  17.964   7.595  0.0572  0.1079 -0.0309
  621ERGO    R5 6976  16.026  17.945   7.797 -0.1106 -0.0572  0.0269
  621ERGO    C1 6977  15.678  17.798   7.852 -0.2309  0.0743 -0.3447
  621ERGO    C2 6978  15.314  17.804   7.803 -0.2452 -0.2262 -0.1135
  622ERGO   ROH 6979  16.318   4.033   9.601  0.0761  0.1969 -0.0069
  622ERGO    R1 6980  16.398   4.165   9.364  0.0480  0.0778 -0.0834
  622ERGO    R2 6981  16.457   4.029   9.131 -0.1026 -0.0310 -0.0596
  622ERGO    R3 6982  16.273   4.198   9.024 -0.0660  0.0175 -0.0474
  622ERGO    R4 6983  16.365   4.036   8.798 -0.1684 -0.0460 -0.0421
  622ERGO    R5 6984  16.361   4.253   8.808 -0.0909 -0.0437 -0.0729
  622ERGO    C1 6985  16.138   4.198   8.504 -0.1723 -0.0093 -0.0205
  622ERGO    C2 6986  15.850   4.303   8.206  0.0579  0.1860  0.0769
  623ERGO   ROH 6987   3.813   2.444   9.978 -0.3341 -0.1026 -0.0421
  623ERGO    R1 6988   3.944   2.395   9.733 -0.0320  0.0640  0.0821
  623ERGO    R2 6989   3.809   2.317   9.505  0.2795 -0.0539 -0.0612
  623ERGO    R3 6990   3.934   2.533   9.396  0.1654  0.0910  0.0844
  623ERGO    R4 6991   3.785   2.412   9.173  0.4408 -0.0087 -0.0623
  623ERGO    R5 6992   3.998   2.459   9.176  0.4032  0.1918  0.1119
  623ERGO    C1 6993   3.888   2.670   8.878  0.4274  0.1535  0.0737
  623ERGO    C2 6994   3.778   2.606   8.556 -0.0068 -0.0595 -0.2696
  624ERGO   ROH 6995  13.530   9.421   9.601  0.2505 -0.0640  0.1023
  624ERGO    R1 6996  13.553   9.606   9.388  0.2394  0.0257  0.1758
  624ERGO    R2 6997  13.747   9.584   9.193  0.1746  0.0492  0.0950
  624ERGO    R3 6998  13.534   9.593   9.025  0.1150  0.1869  0.1784
  624ERGO    R4 6999  13.768   9.617   8.849  0.0368  0.1140  0.0934
  624ERGO    R5 7000  13.596   9.752   8.857  0.1117  0.1863  0.1885
  624ERGO    C1 7001  13.579   9.645   8.491 -0.0994  0.2810  0.1707
  624ERGO    C2 7002  13.673   9.509   8.198  0.1180  0.0657  0.1729
  625ERGO   ROH 7003   4.563  15.481   6.879 -0.1013  0.1154 -0.0240
  625ERGO    R1 7004   4.525  15.497   7.159 -0.1496 -0.0227 -0.0235
  625ERGO    R2 7005   4.492  15.272   7.317  0.1641 -0.1192 -0.0972
  625ERGO    R3 7006   4.700  15.379   7.456 -0.0028  0.1441 -0.0407
  625ERGO    R4 7007   4.530  15.260   7.661 -0.0004  0.0744 -0.0693
  625ERGO    R5 7008   4.601  15.465   7.656 -0.1904  0.1466 -0.1278
  625ERGO    C1 7009   4.747  15.353   7.990 -0.2529  0.4342 -0.0001
  625ERGO    C2 7010   4.824  15.151   8.366 -0.1087 -0.1326  0.2331
  626ERGO   ROH 7011   1.584   0.782   7.298  0.3243 -0.2114 -0.1129
  626ERGO    R1 7012   1.571   0.843   7.575  0.1587 -0.1167 -0.1396
  626ERGO    R2 7013   1.332   0.890   7.706  0.0653 -0.1943 -0.2693
  626ERGO    R3 7014   1.423   0.694   7.871  0.0935 -0.0894 -0.1606
  626ERGO    R4 7015   1.256   0.865   8.042  0.0912 -0.0213 -0.2500
  626ERGO    R5 7016   1.463   0.806   8.079  0.0925  0.0243 -0.2266
  626ERGO    C1 7017   1.297   0.667   8.393  0.1327  0.1779 -0.1368
  626ERGO    C2 7018   1.169   0.589   8.595 -0.1060  0.0995  0.2281
  627ERGO   ROH 7019  11.857   7.280   9.541 -0.3052  0.0525  0.3064
  627ERGO    R1 7020  11.624   7.250   9.382 -0.1542 -0.1274  0.1136
  627ERGO    R2 7021  11.528   7.453   9.220 -0.2145 -0.1790  0.0916
  627ERGO    R3 7022  11.543   7.262   9.028  0.1134 -0.1170  0.0492
  627ERGO    R4 7023  11.356   7.459   8.921 -0.1793 -0.3691  0.0656
  627ERGO    R5 7024  11.321   7.245   8.942  0.1439 -0.4371  0.0106
  627ERGO    C1 7025  11.270   7.283   8.566  0.1489 -0.4217  0.0106
  627ERGO    C2 7026  11.154   7.217   8.263  0.0146  0.0581  0.2038
  628ERGO   ROH 7027   6.292   5.688   9.521  0.0561  0.0513 -0.0651
  628ERGO    R1 7028   6.074   5.800   9.379 -0.1238 -0.2126 -0.0041
  628ERGO    R2 7029   6.108   5.947   9.146 -0.3268  0.1387  0.1824
  628ERGO    R3 7030   5.930   5.767   9.046  0.0636 -0.1084 -0.0974
  628ERGO    R4 7031   5.954   5.973   8.838 -0.2236  0.1635  0.1314
  628ERGO    R5 7032   5.770   5.901   8.930 -0.1414 -0.2924 -0.0334
  628ERGO    C1 7033   5.698   5.819   8.564  0.2028 -0.0540 -0.1610
  628ERGO    C2 7034   5.695   5.623   8.280 -0.1181 -0.1818  0.2622
  629ERGO   ROH 7035  13.180  14.833  10.181  0.1684  0.1272  0.0454
  629ERGO    R1 7036  13.304  14.690   9.970  0.1719  0.2455 -0.0325
  629ERGO    R2 7037  13.177  14.486   9.834  0.3199  0.0461  0.1336
  629ERGO    R3 7038  13.243  14.635   9.616 -0.0730  0.0821  0.0305
  629ERGO    R4 7039  13.181  14.369   9.509  0.4842 -0.1441  0.2014
  629ERGO    R5 7040  13.363  14.484   9.475  0.2336  0.2570  0.0871
  629ERGO    C1 7041  13.245  14.441   9.115  0.2111 -0.2209  0.1443
  629ERGO    C2 7042  13.235  14.401   8.793  0.0800 -0.1525  0.0854
  630ERGO   ROH 7043  11.434  18.348   9.460 -0.0927  0.0565  0.1143
  630ERGO    R1 7044  11.492  18.255   9.199 -0.2147  0.0177  0.0998
  630ERGO    R2 7045  11.385  18.370   8.972 -0.1270  0.1438  0.1200
  630ERGO    R3 7046  11.646  18.390   8.899 -0.1129 -0.1097  0.0945
  630ERGO    R4 7047  11.499  18.530   8.688  0.0214  0.2624  0.2443
  630ERGO    R5 7048  11.643  18.369   8.660 -0.1805  0.1087  0.0754
  630ERGO    C1 7049  11.810  18.642   8.453  0.1211  0.0934  0.2926
  630ERGO    C2 7050  11.794  18.983   8.388 -0.0930  0.1497 -0.0248
  631ERGO   ROH 7051  12.363   3.459   9.705 -0.0884 -0.0021 -0.1372
  631ERGO    R1 7052  12.345   3.394   9.430 -0.0577 -0.0456 -0.1290
  631ERGO    R2 7053  12.369   3.584   9.231 -0.0963 -0.0676 -0.1547
  631ERGO    R3 7054  12.563   3.416   9.139 -0.0485 -0.0308 -0.1210
  631ERGO    R4 7055  12.492   3.582   8.908 -0.0535 -0.0568 -0.1384
  631ERGO    R5 7056  12.495   3.364   8.916 -0.0081 -0.0560 -0.1275
  631ERGO    C1 7057  12.746   3.423   8.634  0.0166 -0.0160 -0.0974
  631ERGO    C2 7058  12.822   3.544   8.347 -0.2491  0.1621 -0.2398
  632ERGO   ROH 7059   2.253   8.898   6.487 -0.1377  0.0866  0.1111
  632ERGO    R1 7060   2.477   8.884   6.659  0.0523  0.2655 -0.1160
  632ERGO    R2 7061   2.612   9.108   6.746 -0.3355  0.4153  0.1076
  632ERGO    R3 7062   2.563   9.003   6.992  0.0991 -0.0877  0.0062
  632ERGO    R4 7063   2.765   9.213   7.038 -0.5033  0.4950  0.1699
  632ERGO    R5 7064   2.777   9.003   7.100  0.1752  0.4211 -0.1127
  632ERGO    C1 7065   2.807   9.175   7.439 -0.1931  0.0693  0.1110
  632ERGO    C2 7066   2.819   9.201   7.661  0.1479 -0.1031 -0.0774
  633ERGO   ROH 7067   0.656   2.721   9.754  0.0574  0.3684 -0.1629
  633ERGO    R1 7068   0.748   2.788   9.495  0.0664  0.2517 -0.1901
  633ERGO    R2 7069   0.870   2.604   9.328  0.0742  0.1773 -0.1021
  633ERGO    R3 7070   0.677   2.682   9.154  0.0804  0.0962 -0.1458
  633ERGO    R4 7071   0.861   2.522   8.993  0.2827  0.3190 -0.1439
  633ERGO    R5 7072   0.794   2.724   8.950  0.1326  0.2853 -0.0793
  633ERGO    C1 7073   0.675   2.548   8.633  0.4099  0.3254 -0.2092
  633ERGO    C2 7074   0.611   2.302   8.360 -0.0732 -0.2416  0.3304
  634ERGO   ROH 7075  10.389   1.032   9.448 -0.0535 -0.1074 -0.0163
  634ERGO    R1 7076  10.437   0.913   9.196 -0.1307 -0.0166 -0.0762
  634ERGO    R2 7077  10.451   0.641   9.160  0.1097 -0.0062 -0.1353
  634ERGO    R3 7078  10.261   0.687   8.972 -0.0862 -0.1501  0.0257
  634ERGO    R4 7079  10.439   0.486   8.851  0.1633  0.2475 -0.2648
  634ERGO    R5 7080  10.380   0.678   8.764 -0.2052  0.2283 -0.0603
  634ERGO    C1 7081  10.254   0.440   8.494  0.0107  0.2602 -0.1890
  634ERGO    C2 7082  10.168   0.078   8.337 -0.0320 -0.3934  0.2280
  635ERGO   ROH 7083   1.642  18.185   7.632 -0.0850 -0.0114 -0.0396
  635ERGO    R1 7084   1.649  18.106   7.903 -0.1336  0.0145 -0.0308
  635ERGO    R2 7085   1.861  17.965   8.011 -0.1792 -0.0239  0.0063
  635ERGO    R3 7086   1.862  18.168   8.192 -0.1508 -0.0066 -0.0131
  635ERGO    R4 7087   2.025  17.957   8.315 -0.0508  0.0400 -0.0608
  635ERGO    R5 7088   1.853  18.058   8.405 -0.0379  0.0096  0.0012
  635ERGO    C1 7089   2.122  18.144   8.662  0.0506  0.0934 -0.1181
  635ERGO    C2 7090   2.429  18.022   8.872 -0.0955 -0.0566  0.0607
  636ERGO   ROH 7091   6.959  13.097   9.796 -0.1430  0.4319  0.1026
  636ERGO    R1 7092   6.789  13.027   9.581  0.0303  0.0237  0.0910
  636ERGO    R2 7093   6.781  13.169   9.345 -0.3772  0.0887  0.1417
  636ERGO    R3 7094   6.829  12.926   9.234  0.2947  0.2413  0.0538
  636ERGO    R4 7095   6.808  13.109   9.005 -0.5360  0.2521  0.0978
  636ERGO    R5 7096   6.696  12.924   9.034  0.0726 -0.1371  0.1899
  636ERGO    C1 7097   6.869  12.846   8.703  0.0023  0.4905 -0.0104
  636ERGO    C2 7098   6.754  12.746   8.369 -0.2262  0.2327  0.2448
  637ERGO   ROH 7099  14.770   6.848   5.892  0.0108  0.1689 -0.0513
  637ERGO    R1 7100  14.683   6.857   6.161  0.0143 -0.1840 -0.0335
  637ERGO    R2 7101  14.722   6.648   6.337  0.5258 -0.2037 -0.1555
  637ERGO    R3 7102  14.839   6.840   6.489  0.0990 -0.0049 -0.0625
  637ERGO    R4 7103  14.770   6.627   6.679  0.5767 -0.2713 -0.1664
  637ERGO    R5 7104  14.715   6.837   6.694  0.0981 -0.3900 -0.0592
  637ERGO    C1 7105  14.908   6.795   7.021  0.2057 -0.1241 -0.0854
  637ERGO    C2 7106  14.927   6.927   7.369 -0.0427  0.1617  0.1560
  638ERGO   ROH 7107   0.851  15.092  10.397 -0.1901  0.0136 -0.1575
  638ERGO    R1 7108   0.995  15.127  10.156 -0.0613 -0.1382 -0.1018
  638ERGO    R2 7109   1.271  15.135  10.148 -0.0694 -0.1354  0.0451
  638ERGO    R3 7110   1.239  14.938   9.964  0.0530 -0.2517  0.1426
  638ERGO    R4 7111   1.462  15.099   9.863 -0.2067  0.0261 -0.0718
  638ERGO    R5 7112   1.281  15.046   9.754 -0.2308 -0.2542  0.0682
  638ERGO    C1 7113   1.544  14.893   9.523 -0.1718  0.0111 -0.0482
  638ERGO    C2 7114   1.683  14.852   9.311 -0.4070  0.1023  0.2930
  639ERGO   ROH 7115   0.094  17.772  10.660  0.0284  0.0422  0.0737
  639ERGO    R1 7116   0.061  17.697  10.389  0.1020  0.1060  0.0470
  639ERGO    R2 7117  -0.177  17.730  10.254  0.0950 -0.0002  0.0350
  639ERGO    R3 7118  -0.021  17.865  10.076  0.0289  0.1532  0.0908
  639ERGO    R4 7119  -0.233  17.744   9.913  0.2070 -0.0657  0.0133
  639ERGO    R5 7120  -0.018  17.724   9.882  0.2420  0.1485  0.0941
  639ERGO    C1 7121  -0.119  17.878   9.548  0.2104  0.0399  0.0528
  639ERGO    C2 7122  -0.079  17.872   9.131 -0.4141 -0.2654 -0.3005
  640ERGO   ROH 7123  15.482  16.315   7.686 -0.0532  0.1008 -0.1261
  640ERGO    R1 7124  15.420  16.304   7.963  0.1503  0.1623 -0.0769
  640ERGO    R2 7125  15.440  16.525   8.128 -0.0308  0.2809 -0.2111
  640ERGO    R3 7126  15.182  16.465   8.186  0.0839 -0.0388 -0.0005
  640ERGO    R4 7127  15.245  16.694   8.357 -0.1251  0.1977 -0.2285
  640ERGO    R5 7128  15.163  16.503   8.422  0.1822  0.1287 -0.0170
  640ERGO    C1 7129  14.888  16.737   8.545 -0.0723 -0.1513 -0.0410
  640ERGO    C2 7130  14.659  16.860   8.914 -0.0358  0.1059  0.1034
  641ERGO   ROH 7131   9.215   9.899   8.079  0.1116 -0.0850 -0.0297
  641ERGO    R1 7132   9.474  10.013   8.098  0.1472 -0.1504 -0.1081
  641ERGO    R2 7133   9.610  10.033   8.338  0.0926  0.1066 -0.0928
  641ERGO    R3 7134   9.805   9.901   8.201  0.0802 -0.1407  0.1210
  641ERGO    R4 7135   9.950  10.085   8.377  0.1075 -0.0714  0.0215
  641ERGO    R5 7136   9.973  10.067   8.162  0.2035 -0.2826  0.0489
  641ERGO    C1 7137  10.330   9.992   8.272  0.1046 -0.4073  0.2887
  641ERGO    C2 7138  10.664   9.964   8.136  0.3104 -0.1389 -0.2663
  642ERGO   ROH 7139  15.321   5.478   6.188  0.0427  0.1751  0.1251
  642ERGO    R1 7140  15.321   5.578   6.453  0.1338  0.0777  0.1624
  642ERGO    R2 7141  15.132   5.758   6.544  0.2192  0.1135  0.2670
  642ERGO    R3 7142  15.095   5.571   6.738  0.1899  0.0566  0.2071
  642ERGO    R4 7143  15.027   5.826   6.866  0.5788  0.0749  0.3972
  642ERGO    R5 7144  15.169   5.678   6.939  0.4874 -0.1195  0.1972
  642ERGO    C1 7145  14.930   5.691   7.236  0.7605 -0.0011  0.4168
  642ERGO    C2 7146  14.831   5.580   7.512  0.1039 -0.0785  0.0963
  643ERGO   ROH 7147  12.631  18.001   6.743 -0.2826 -0.0383 -0.0066
  643ERGO    R1 7148  12.605  18.116   7.000 -0.2571  0.1452 -0.0841
  643ERGO    R2 7149  12.386  18.268   7.074 -0.3846 -0.0314 -0.0822
  643ERGO    R3 7150  12.372  18.091   7.279 -0.0688  0.1160  0.0716
  643ERGO    R4 7151  12.253  18.336   7.385 -0.2502  0.0781 -0.0488
  643ERGO    R5 7152  12.416  18.222   7.474 -0.0749  0.3158 -0.0609
  643ERGO    C1 7153  12.163  18.209   7.760  0.1245  0.2802  0.1152
  643ERGO    C2 7154  12.047  18.208   8.135  0.2094  0.1771 -0.1630
  644ERGO   ROH 7155   6.826  12.180   9.699  0.0268  0.1322 -0.0079
  644ERGO    R1 7156   6.813  12.115   9.424 -0.0208  0.0231  0.0205
  644ERGO    R2 7157   6.905  11.874   9.324  0.0491  0.0260  0.0886
  644ERGO    R3 7158   6.654  11.858   9.221  0.0289 -0.1188  0.1562
  644ERGO    R4 7159   6.819  11.695   9.041  0.1476  0.2303 -0.0738
  644ERGO    R5 7160   6.687  11.859   8.983 -0.0417  0.1649  0.1406
  644ERGO    C1 7161   6.534  11.576   8.779  0.1859  0.2135 -0.1049
  644ERGO    C2 7162   6.303  11.323   8.765 -0.2576 -0.0245 -0.0631
  645ERGO   ROH 7163  12.526  14.538   7.283 -0.4987 -0.0661 -0.1011
  645ERGO    R1 7164  12.424  14.520   7.547 -0.2198 -0.0391  0.0114
  645ERGO    R2 7165  12.588  14.512   7.769  0.0140  0.2026 -0.1465
  645ERGO    R3 7166  12.436  14.723   7.849 -0.0917  0.1067 -0.0898
  645ERGO    R4 7167  12.536  14.604   8.098  0.0990  0.1855 -0.1275
  645ERGO    R5 7168  12.327  14.646   8.048  0.0476  0.0445 -0.0365
  645ERGO    C1 7169  12.362  14.856   8.365  0.0492  0.0856 -0.0633
  645ERGO    C2 7170  12.469  15.085   8.685  0.0398  0.1235 -0.0472
  646ERGO   ROH 7171   2.928  16.534   7.328 -0.2690  0.0487 -0.2703
  646ERGO    R1 7172   2.892  16.508   7.607 -0.2752 -0.0793 -0.2819
  646ERGO    R2 7173   2.959  16.708   7.785  0.0394 -0.2870 -0.1558
  646ERGO    R3 7174   2.701  16.679   7.866  0.0009  0.0366 -0.1523
  646ERGO    R4 7175   2.842  16.781   8.102  0.1708 -0.3097 -0.1019
  646ERGO    R5 7176   2.718  16.602   8.092 -0.0904 -0.1265 -0.2011
  646ERGO    C1 7177   2.532  16.796   8.362  0.2110 -0.0190 -0.0671
  646ERGO    C2 7178   2.648  16.811   8.683  0.0625 -0.0258 -0.1891
  647ERGO   ROH 7179  16.620   8.458   9.054 -0.1699  0.0740 -0.2915
  647ERGO    R1 7180  16.834   8.386   8.883 -0.0596  0.0807 -0.1597
  647ERGO    R2 7181  16.975   8.149   8.912  0.0047  0.1300 -0.0052
  647ERGO    R3 7182  16.907   8.116   8.650  0.1400  0.0194 -0.0271
  647ERGO    R4 7183  17.025   7.860   8.729  0.2933  0.1262  0.0767
  647ERGO    R5 7184  17.084   7.982   8.559  0.2747  0.1288  0.0762
  647ERGO    C1 7185  16.990   7.660   8.378  0.5883  0.0202  0.1039
  647ERGO    C2 7186  16.971   7.397   8.110  0.1949 -0.0502  0.0444
  648ERGO   ROH 7187  14.836   1.249   6.882  0.0132 -0.0436  0.3405
  648ERGO    R1 7188  14.722   1.353   7.119 -0.0797 -0.0592  0.3030
  648ERGO    R2 7189  14.749   1.229   7.365  0.0049  0.0355  0.3416
  648ERGO    R3 7190  14.844   1.473   7.441 -0.1866  0.1335  0.2738
  648ERGO    R4 7191  14.778   1.338   7.692  0.0872  0.0791  0.3204
  648ERGO    R5 7192  14.709   1.534   7.628 -0.1409  0.0109  0.3485
  648ERGO    C1 7193  14.884   1.629   7.953 -0.0446  0.1965  0.2444
  648ERGO    C2 7194  14.842   1.846   8.258  0.0381 -0.1842  0.2444
  649ERGO   ROH 7195   3.759  11.996   9.913 -0.1911  0.1919  0.1672
  649ERGO    R1 7196   3.655  11.930   9.658  0.0151  0.0545  0.1154
  649ERGO    R2 7197   3.481  12.097   9.521  0.0051 -0.0876 -0.0486
  649ERGO    R3 7198   3.666  12.073   9.324  0.1511 -0.0371  0.0804
  649ERGO    R4 7199   3.439  12.208   9.197  0.2179 -0.0606 -0.0680
  649ERGO    R5 7200   3.538  12.026   9.127  0.2978 -0.0375 -0.0173
  649ERGO    C1 7201   3.588  12.250   8.822  0.4789  0.0028  0.0417
  649ERGO    C2 7202   3.492  12.376   8.528  0.0112 -0.0905  0.0591
  650ERGO   ROH 7203  10.748  17.064   6.558  0.0273 -0.0068 -0.0269
  650ERGO    R1 7204  10.520  17.114   6.718  0.0236 -0.0608 -0.0148
  650ERGO    R2 7205  10.348  16.913   6.798  0.0851 -0.1062  0.0115
  650ERGO    R3 7206  10.400  17.011   7.046  0.0765 -0.0734  0.0001
  650ERGO    R4 7207  10.207  16.796   7.090  0.1401 -0.1184  0.0331
  650ERGO    R5 7208  10.190  17.002   7.159  0.0900 -0.1202  0.0177
  650ERGO    C1 7209  10.173  16.820   7.494  0.1641 -0.0950  0.0350
  650ERGO    C2 7210  10.026  16.675   7.847  0.0770 -0.0836 -0.1127
  651ERGO   ROH 7211   3.817   7.146   6.341 -0.0245  0.3804  0.0625
  651ERGO    R1 7212   3.984   7.099   6.565  0.0255  0.3748  0.0246
  651ERGO    R2 7213   4.010   7.280   6.772 -0.2169  0.2121  0.2033
  651ERGO    R3 7214   3.941   7.067   6.925  0.0454 -0.0303 -0.0044
  651ERGO    R4 7215   4.145   7.207   7.082 -0.2003  0.1400  0.1787
  651ERGO    R5 7216   4.146   6.996   7.026  0.1243  0.1824 -0.0084
  651ERGO    C1 7217   4.158   6.964   7.406  0.0556 -0.1294 -0.0305
  651ERGO    C2 7218   4.364   6.895   7.696  0.0688  0.3906 -0.1559
  652ERGO   ROH 7219   5.670   2.742   9.730 -0.0896  0.1458 -0.0189
  652ERGO    R1 7220   5.676   2.735   9.447 -0.0575  0.2164 -0.0203
  652ERGO    R2 7221   5.662   2.499   9.304  0.1880  0.2337 -0.0768
  652ERGO    R3 7222   5.454   2.623   9.181  0.0744  0.0575 -0.0650
  652ERGO    R4 7223   5.634   2.547   8.963  0.0920  0.1477 -0.0814
  652ERGO    R5 7224   5.554   2.746   9.002 -0.0474  0.0978 -0.1065
  652ERGO    C1 7225   5.421   2.691   8.649 -0.0704 -0.0677 -0.0729
  652ERGO    C2 7226   5.417   2.733   8.300  0.2337 -0.1060 -0.1920
  653ERGO   ROH 7227  13.777   9.387   6.218 -0.1287  0.2499  0.1419
  653ERGO    R1 7228  13.752   9.501   6.476 -0.1013  0.2484  0.1443
  653ERGO    R2 7229  13.522   9.480   6.627 -0.0065  0.0577  0.2579
  653ERGO    R3 7230  13.692   9.381   6.814  0.1721  0.2229  0.1876
  653ERGO    R4 7231  13.458   9.470   6.966 -0.0208 -0.3241  0.2492
  653ERGO    R5 7232  13.665   9.527   7.002 -0.1168  0.0375  0.3026
  653ERGO    C1 7233  13.581   9.371   7.340  0.1386 -0.3912  0.1782
  653ERGO    C2 7234  13.608   9.278   7.700 -0.1164 -0.1601 -0.0532
  654ERGO   ROH 7235   2.110   2.054  10.006  0.2087  0.0548  0.0426
  654ERGO    R1 7236   2.078   1.888   9.780  0.0516  0.1096  0.0233
  654ERGO    R2 7237   2.257   1.888   9.569  0.0388 -0.0148  0.0131
  654ERGO    R3 7238   2.267   1.621   9.619 -0.1849 -0.0330 -0.0231
  654ERGO    R4 7239   2.326   1.645   9.333 -0.0557 -0.0298  0.0001
  654ERGO    R5 7240   2.172   1.520   9.424 -0.1891  0.0710 -0.0775
  654ERGO    C1 7241   2.376   1.252   9.244 -0.3206 -0.0556 -0.0412
  654ERGO    C2 7242   2.645   1.157   8.964 -0.0599 -0.2124  0.0993
  655ERGO   ROH 7243   9.375  13.135   6.854  0.1308  0.0931 -0.1533
  655ERGO    R1 7244   9.412  12.930   7.046  0.0247  0.0222 -0.2077
  655ERGO    R2 7245   9.512  12.979   7.299  0.0069 -0.0902 -0.1778
  655ERGO    R3 7246   9.285  12.853   7.378 -0.0534 -0.0269 -0.2490
  655ERGO    R4 7247   9.425  12.917   7.627 -0.0687 -0.1513 -0.2092
  655ERGO    R5 7248   9.352  12.721   7.566 -0.1335 -0.1061 -0.2759
  655ERGO    C1 7249   9.160  12.762   7.893 -0.1693 -0.1276 -0.2944
  655ERGO    C2 7250   8.908  12.836   8.041 -0.2027  0.0004 -0.1949
  656ERGO   ROH 7251  12.016  17.276   6.666 -0.3255  0.0518 -0.0494
  656ERGO    R1 7252  12.029  17.289   6.949 -0.1602 -0.1812 -0.0415
  656ERGO    R2 7253  11.939  17.507   7.093  0.3263 -0.0920  0.1745
  656ERGO    R3 7254  11.793  17.320   7.223  0.0212  0.0804  0.0841
  656ERGO    R4 7255  11.785  17.554   7.398  0.3478 -0.0010  0.1697
  656ERGO    R5 7256  11.846  17.353   7.454  0.0289 -0.1038  0.0976
  656ERGO    C1 7257  11.558  17.406   7.699  0.0737  0.2138  0.0819
  656ERGO    C2 7258  11.312  17.559   7.910  0.0549 -0.2922  0.1158
  657ERGO   ROH 7259   4.681  16.922  10.237 -0.2491  0.0344 -0.1410
  657ERGO    R1 7260   4.670  16.952   9.956 -0.1162  0.0366 -0.1472
  657ERGO    R2 7261   4.881  17.054   9.809 -0.0093 -0.0468 -0.0604
  657ERGO    R3 7262   4.852  16.823   9.669 -0.0423 -0.0385 -0.0655
  657ERGO    R4 7263   4.883  17.030   9.464 -0.1433 -0.0282 -0.0624
  657ERGO    R5 7264   4.721  16.885   9.478 -0.1213 -0.0420 -0.0094
  657ERGO    C1 7265   4.858  16.800   9.132 -0.2522 -0.0097 -0.0684
  657ERGO    C2 7266   4.920  16.847   8.779 -0.1664  0.1633  0.1310
  658ERGO   ROH 7267  18.111  14.555   7.978 -0.0906  0.1756 -0.0326
  658ERGO    R1 7268  18.099  14.511   8.257  0.0043  0.0911 -0.0415
  658ERGO    R2 7269  18.213  14.683   8.440 -0.0352  0.0975 -0.0239
  658ERGO    R3 7270  17.963  14.684   8.547 -0.0086 -0.0584  0.0431
  658ERGO    R4 7271  18.139  14.609   8.770  0.1323  0.2989  0.0618
  658ERGO    R5 7272  17.963  14.500   8.700  0.2162  0.0659  0.1999
  658ERGO    C1 7273  17.861  14.566   9.062  0.2547  0.2700  0.1747
  658ERGO    C2 7274  17.867  14.344   9.440  0.0122 -0.0305  0.0160
  659ERGO   ROH 7275   1.386   4.377   6.530  0.1538  0.0291 -0.0614
  659ERGO    R1 7276   1.261   4.378   6.784  0.1005  0.0159 -0.0880
  659ERGO    R2 7277   1.401   4.336   7.018  0.0665  0.1022 -0.0559
  659ERGO    R3 7278   1.287   4.572   7.090 -0.0404  0.0675 -0.1071
  659ERGO    R4 7279   1.435   4.485   7.328  0.0054  0.1816 -0.0864
  659ERGO    R5 7280   1.224   4.539   7.319 -0.0234  0.0849 -0.0972
  659ERGO    C1 7281   1.346   4.792   7.577 -0.1305  0.1953 -0.1522
  659ERGO    C2 7282   1.354   4.823   8.043  0.0770  0.0473  0.0442
  660ERGO   ROH 7283  18.082  13.118  10.019 -0.0463  0.2934 -0.1933
  660ERGO    R1 7284  18.023  13.268   9.787 -0.0464  0.1647 -0.2765
  660ERGO    R2 7285  18.216  13.407   9.647 -0.0774  0.2215 -0.2525
  660ERGO    R3 7286  18.120  13.263   9.437  0.0914  0.0846 -0.2394
  660ERGO    R4 7287  18.213  13.515   9.319 -0.2931  0.2390 -0.2475
  660ERGO    R5 7288  18.015  13.427   9.296 -0.1765 -0.0541 -0.2136
  660ERGO    C1 7289  18.122  13.444   8.930 -0.2603  0.1206 -0.2322
  660ERGO    C2 7290  18.052  13.668   8.698  0.0739 -0.2153  0.1302
  661ERGO   ROH 7291  15.285  10.984   8.999  0.1558  0.1642 -0.0614
  661ERGO    R1 7292  15.127  11.009   8.765 -0.0323  0.0339  0.0502
  661ERGO    R2 7293  14.872  11.114   8.770  0.0707  0.2813  0.1602
  661ERGO    R3 7294  14.972  11.280   8.579  0.0582 -0.0387 -0.1343
  661ERGO    R4 7295  14.684  11.266   8.522 -0.0684  0.3698  0.3175
  661ERGO    R5 7296  14.846  11.226   8.382 -0.3345 -0.0129  0.0957
  661ERGO    C1 7297  14.669  11.510   8.199 -0.1611  0.1211  0.1327
  661ERGO    C2 7298  14.348  11.675   8.220  0.1126 -0.4121 -0.1186
  662ERGO   ROH 7299  15.755  13.896   7.434  0.0372 -0.2145 -0.2588
  662ERGO    R1 7300  15.788  13.792   7.695  0.0715 -0.1650 -0.2428
  662ERGO    R2 7301  15.742  13.943   7.922  0.2215 -0.0833 -0.2628
  662ERGO    R3 7302  15.576  13.738   7.986  0.1386  0.0148 -0.1594
  662ERGO    R4 7303  15.560  13.919   8.215  0.3461  0.0468 -0.1738
  662ERGO    R5 7304  15.607  13.707   8.221  0.2321  0.0238 -0.1721
  662ERGO    C1 7305  15.299  13.712   8.446  0.3409  0.2147 -0.0249
  662ERGO    C2 7306  15.125  13.726   8.717  0.0331 -0.0617 -0.1368
  663ERGO   ROH 7307   1.441  11.168   6.517  0.0744 -0.2054 -0.0678
  663ERGO    R1 7308   1.617  11.270   6.713  0.0195 -0.0789 -0.0838
  663ERGO    R2 7309   1.605  11.532   6.801 -0.1726 -0.0920 -0.0691
  663ERGO    R3 7310   1.587  11.414   7.046 -0.0515 -0.1190 -0.0722
  663ERGO    R4 7311   1.744  11.657   7.092 -0.1342 -0.0558 -0.1028
  663ERGO    R5 7312   1.800  11.454   7.147 -0.0348 -0.0393 -0.1345
  663ERGO    C1 7313   1.808  11.619   7.491  0.0018 -0.0599 -0.1254
  663ERGO    C2 7314   1.615  11.561   7.766 -0.2465  0.2647  0.0081
  664ERGO   ROH 7315  17.486  10.300   9.683 -0.0398 -0.2138  0.0567
  664ERGO    R1 7316  17.360  10.371   9.439 -0.1279 -0.1294  0.1267
  664ERGO    R2 7317  17.181  10.580   9.420 -0.0413 -0.0474  0.2396
  664ERGO    R3 7318  17.348  10.664   9.223 -0.1028 -0.0998  0.1637
  664ERGO    R4 7319  17.109  10.830   9.193 -0.0585  0.0002  0.2968
  664ERGO    R5 7320  17.204  10.710   9.038 -0.1806 -0.0283  0.2378
  664ERGO    C1 7321  17.225  11.055   8.876 -0.1264 -0.0212  0.2589
  664ERGO    C2 7322  17.014  11.244   8.524  0.0072 -0.3316 -0.1612
  665ERGO   ROH 7323  13.478  11.475   9.888  0.2098 -0.0676  0.0331
  665ERGO    R1 7324  13.356  11.371   9.654  0.0294 -0.0011  0.0956
  665ERGO    R2 7325  13.273  11.532   9.446  0.0092  0.0454  0.1376
  665ERGO    R3 7326  13.429  11.365   9.298 -0.1584 -0.0426  0.0569
  665ERGO    R4 7327  13.293  11.534   9.101  0.0628  0.2399  0.1412
  665ERGO    R5 7328  13.297  11.316   9.104 -0.1875  0.2302  0.0045
  665ERGO    C1 7329  13.451  11.379   8.761 -0.0633  0.2708  0.0675
  665ERGO    C2 7330  13.368  11.512   8.444  0.2186 -0.2659  0.0333
  666ERGO   ROH 7331  13.700   1.470   9.609 -0.0807 -0.1395  0.0760
  666ERGO    R1 7332  13.779   1.458   9.337 -0.0043 -0.0938  0.0947
  666ERGO    R2 7333  13.961   1.634   9.227  0.0567 -0.0951  0.1868
  666ERGO    R3 7334  14.088   1.405   9.153  0.0435 -0.1037  0.1756
  666ERGO    R4 7335  14.144   1.594   8.936  0.1853 -0.0431  0.2604
  666ERGO    R5 7336  14.059   1.395   8.916  0.1505 -0.0226  0.1568
  666ERGO    C1 7337  14.369   1.357   8.698  0.2479 -0.0208  0.2926
  666ERGO    C2 7338  14.462   1.530   8.399  0.0201 -0.4342  0.2684
  667ERGO   ROH 7339  17.842   7.314   9.531 -0.0207 -0.0560  0.1171
  667ERGO    R1 7340  17.883   7.370   9.257  0.0801  0.0759  0.1581
  667ERGO    R2 7341  17.740   7.244   9.056  0.3082  0.0086  0.0356
  667ERGO    R3 7342  17.684   7.499   8.981  0.1106 -0.0162  0.0920
  667ERGO    R4 7343  17.645   7.339   8.738  0.1947 -0.0013  0.0660
  667ERGO    R5 7344  17.771   7.516   8.758  0.0695  0.0894  0.0823
  667ERGO    C1 7345  17.537   7.634   8.482 -0.0567 -0.0304  0.1367
  667ERGO    C2 7346  17.424   7.672   8.140  0.2358 -0.0798  0.0811
  668ERGO   ROH 7347   8.010   0.790   6.488  0.0340  0.1415 -0.0509
  668ERGO    R1 7348   7.966   0.966   6.706 -0.0356 -0.0861  0.1223
  668ERGO    R2 7349   8.085   0.929   6.952  0.3725 -0.0175 -0.0566
  668ERGO    R3 7350   8.170   1.184   6.914 -0.1909  0.1915 -0.0105
  668ERGO    R4 7351   8.153   1.153   7.206  0.3008 -0.0636  0.0040
  668ERGO    R5 7352   8.058   1.309   7.086 -0.1967 -0.1525  0.2493
  668ERGO    C1 7353   8.272   1.524   7.318 -0.2698  0.1058  0.0824
  668ERGO    C2 7354   8.333   1.648   7.722  0.1462 -0.0855  0.3099
  669ERGO   ROH 7355  13.976  16.279   7.084 -0.0651 -0.1519  0.0037
  669ERGO    R1 7356  13.958  16.496   7.265  0.1522 -0.0773 -0.0617
  669ERGO    R2 7357  13.804  16.486   7.495 -0.0480  0.2268 -0.1786
  669ERGO    R3 7358  14.037  16.555   7.615 -0.0201 -0.1314 -0.0121
  669ERGO    R4 7359  13.830  16.626   7.809 -0.0512  0.1575 -0.1463
  669ERGO    R5 7360  13.986  16.757   7.733  0.1997 -0.0630 -0.0287
  669ERGO    C1 7361  14.064  16.773   8.106 -0.0270 -0.2188  0.0286
  669ERGO    C2 7362  13.915  16.739   8.421  0.2167  0.0046  0.1658
  670ERGO   ROH 7363   0.216  10.001   6.536  0.0767  0.1996  0.0417
  670ERGO    R1 7364   0.153  10.101   6.793  0.1052  0.1614  0.0636
  670ERGO    R2 7365  -0.084  10.042   6.922  0.0364  0.2952  0.0009
  670ERGO    R3 7366   0.081   9.960   7.121 -0.0588  0.1040  0.0040
  670ERGO    R4 7367  -0.122  10.124   7.255  0.0585  0.2372  0.0179
  670ERGO    R5 7368   0.095  10.149   7.268  0.0779  0.0543  0.0562
  670ERGO    C1 7369   0.012  10.096   7.637 -0.0179  0.0240  0.0307
  670ERGO    C2 7370  -0.052  10.318   7.841 -0.0121 -0.0507 -0.0063
  671ERGO   ROH 7371   2.413   5.567   6.629  0.1269  0.1209 -0.0155
  671ERGO    R1 7372   2.598   5.666   6.820  0.1716  0.3275 -0.1617
  671ERGO    R2 7373   2.587   5.924   6.918 -0.1917  0.2488  0.0226
  671ERGO    R3 7374   2.583   5.797   7.159  0.3139  0.0679 -0.0511
  671ERGO    R4 7375   2.678   6.068   7.219 -0.2630  0.2673  0.0350
  671ERGO    R5 7376   2.775   5.881   7.273  0.2299  0.4464 -0.1711
  671ERGO    C1 7377   2.726   6.034   7.619  0.1700  0.1083 -0.0267
  671ERGO    C2 7378   2.705   6.246   7.887  0.2529 -0.3333 -0.0453
  672PSPI    C1 7379   4.688  13.357   6.516 -0.2144  0.0788  0.1113
  672PSPI    C2 7380   4.697  13.640   6.234 -0.0299 -0.1692 -0.1361
  672PSPI    C3 7381   4.624  13.740   6.614 -0.1542  0.1844 -0.2488
  672PSPI   PO4 7382   4.494  13.165   6.471 -0.0127 -0.0716  0.1750
  672PSPI   GL1 7383   4.271  12.880   6.753 -0.4823  0.0499 -0.2379
  672PSPI   GL2 7384   3.981  12.751   6.777  0.0586 -0.2483 -0.2621
  672PSPI   C1A 7385   4.348  12.772   7.223 -0.0917  0.3926  0.0993
  672PSPI   C2A 7386   4.317  12.640   7.631  0.0884 -0.0492 -0.0419
  672PSPI   C3A 7387   4.528  12.492   8.063  0.0974  0.1382  0.0933
  672PSPI   C4A 7388   4.396  12.310   8.375 -0.1017  0.1627 -0.2499
  672PSPI   C1B 7389   3.903  12.516   7.142 -0.0886 -0.1519 -0.0732
  672PSPI   C2B 7390   3.730  12.410   7.532 -0.1748 -0.0915  0.3993
  672PSPI   C3B 7391   3.489  12.051   7.712 -0.1517 -0.2698  0.1523
  672PSPI   C4B 7392   3.520  12.057   8.051 -0.0233 -0.2844 -0.2406
  673PSPI    C1 7393   6.663   0.497   6.166  0.0312  0.1500  0.0985
  673PSPI    C2 7394   6.955   0.452   5.896 -0.0261  0.0905  0.0463
  673PSPI    C3 7395   6.912   0.800   6.088 -0.0423  0.1632 -0.0882
  673PSPI   PO4 7396   6.676   0.299   6.319  0.0931 -0.1769  0.0866
  673PSPI   GL1 7397   6.560   0.098   6.687  0.1121 -0.1372  0.0748
  673PSPI   GL2 7398   6.206   0.106   6.770 -0.1357 -0.0481  0.1888
  673PSPI   C1A 7399   6.601   0.237   7.062 -0.1595 -0.1503 -0.1214
  673PSPI   C2A 7400   6.455   0.155   7.527 -0.1461  0.1307  0.1251
  673PSPI   C3A 7401   6.527   0.174   7.943  0.0055 -0.1638 -0.0268
  673PSPI   C4A 7402   6.670   0.194   8.268 -0.0654 -0.1444 -0.0201
  673PSPI   C1B 7403   6.062   0.015   7.160  0.1684 -0.0945  0.1785
  673PSPI   C2B 7404   5.876  -0.007   7.529 -0.0266  0.1019  0.1113
  673PSPI   C3B 7405   6.103  -0.141   7.857  0.0034 -0.2898  0.4465
  673PSPI   C4B 7406   6.137  -0.008   8.302  0.2637  0.1674 -0.0636
  674PSPI    C1 7407   7.804   0.804   5.987  0.1334 -0.0858  0.0022
  674PSPI    C2 7408   7.759   1.077   5.698  0.2630  0.1331  0.1850
  674PSPI    C3 7409   7.745   0.687   5.609 -0.0917  0.1952 -0.0530
  674PSPI   PO4 7410   7.514   0.819   6.180 -0.1340 -0.1452 -0.0532
  674PSPI   GL1 7411   7.424   0.799   6.694  0.1796 -0.0072  0.1741
  674PSPI   GL2 7412   7.541   1.129   6.642 -0.0936 -0.1165 -0.1081
  674PSPI   C1A 7413   7.632   0.729   7.033 -0.0913  0.1377  0.0011
  674PSPI   C2A 7414   7.696   1.045   7.304  0.1430 -0.1343  0.0429
  674PSPI   C3A 7415   7.831   1.360   7.661 -0.1555 -0.4210  0.0245
  674PSPI   C4A 7416   7.865   1.770   7.752 -0.2032  0.2699  0.0510
  674PSPI   C1B 7417   7.868   1.516   6.651  0.4474 -0.0152 -0.0319
  674PSPI   C2B 7418   8.071   1.747   6.926 -0.1473  0.2943 -0.0186
  674PSPI   C3B 7419   8.454   1.920   7.153  0.0931 -0.0970 -0.4742
  674PSPI   C4B 7420   8.582   2.125   7.562 -0.0199 -0.0437  0.1241
  675PSPI    C1 7421  10.303  17.665   5.902 -0.0066 -0.0433 -0.0990
  675PSPI    C2 7422   9.959  17.609   5.706 -0.1561  0.0790  0.1233
  675PSPI    C3 7423  10.217  17.888   5.581 -0.0845 -0.0895 -0.1105
  675PSPI   PO4 7424  10.115  17.608   6.209 -0.0493 -0.1228  0.1727
  675PSPI   GL1 7425   9.987  17.641   6.546 -0.2648  0.3100  0.1512
  675PSPI   GL2 7426  10.049  17.303   6.748 -0.1683  0.0533  0.2920
  675PSPI   C1A 7427  10.012  17.826   6.938  0.0126 -0.2770 -0.0231
  675PSPI   C2A 7428   9.867  17.830   7.310 -0.4224 -0.0735  0.2138
  675PSPI   C3A 7429   9.796  18.117   7.748  0.1835  0.2474 -0.2406
  675PSPI   C4A 7430   9.530  18.175   8.107  0.0583  0.1521 -0.0898
  675PSPI   C1B 7431   9.782  17.428   7.104 -0.3488 -0.3074  0.0273
  675PSPI   C2B 7432   9.982  17.366   7.544 -0.2817  0.1360 -0.0991
  675PSPI   C3B 7433  10.304  17.264   7.859 -0.2954 -0.0323  0.1265
  675PSPI   C4B 7434  10.474  16.943   8.155  0.0441  0.2207 -0.0166
  676PSPI    C1 7435  11.263   8.901   5.881 -0.1091 -0.0818  0.2067
  676PSPI    C2 7436  11.245   8.586   5.634  0.1712 -0.0434  0.1347
  676PSPI    C3 7437  10.999   8.896   5.580  0.0699 -0.1381  0.0489
  676PSPI   PO4 7438  11.170   8.880   6.116 -0.1369 -0.1491 -0.2401
  676PSPI   GL1 7439  11.124   8.636   6.502 -0.1099  0.1300 -0.0172
  676PSPI   GL2 7440  10.783   8.458   6.453  0.1517 -0.0956  0.1657
  676PSPI   C1A 7441  11.375   8.875   6.886 -0.0359  0.0407 -0.2709
  676PSPI   C2A 7442  11.489   8.962   7.237  0.1287  0.3353 -0.0131
  676PSPI   C3A 7443  11.338   9.165   7.612  0.6202 -0.1922  0.0258
  676PSPI   C4A 7444  11.076   9.243   7.957  0.1514  0.3862 -0.3395
  676PSPI   C1B 7445  10.808   8.527   7.011 -0.0841 -0.4289  0.5147
  676PSPI   C2B 7446  10.751   8.415   7.387  0.1619 -0.0777 -0.0651
  676PSPI   C3B 7447  10.709   8.393   7.841  0.3067 -0.0904  0.0384
  676PSPI   C4B 7448  11.083   8.282   8.043 -0.0049  0.1591  0.1164
  677PSPI    C1 7449   9.403   7.918   5.948  0.1324  0.1786  0.1802
  677PSPI    C2 7450   9.749   7.766   5.819 -0.0130  0.0452 -0.0599
  677PSPI    C3 7451   9.466   7.869   5.556 -0.1734  0.1123  0.1370
  677PSPI   PO4 7452   9.423   8.123   6.123  0.0157 -0.0632  0.2089
  677PSPI   GL1 7453   9.382   8.125   6.479  0.2402 -0.1154  0.1513
  677PSPI   GL2 7454   9.629   8.358   6.634  0.1391  0.2570  0.0720
  677PSPI   C1A 7455   9.268   8.145   6.960  0.1824 -0.0563 -0.0862
  677PSPI   C2A 7456   9.135   8.328   7.331 -0.0265 -0.3821  0.2735
  677PSPI   C3A 7457   9.094   8.454   7.753  0.1303  0.2155  0.0773
  677PSPI   C4A 7458   8.873   8.169   7.912 -0.2567  0.0246  0.1367
  677PSPI   C1B 7459   9.656   8.417   7.063 -0.2173 -0.2311  0.1990
  677PSPI   C2B 7460   9.610   8.280   7.423 -0.0112 -0.1650 -0.0155
  677PSPI   C3B 7461   9.774   8.173   7.722 -0.0324 -0.0548 -0.0316
  677PSPI   C4B 7462  10.056   8.000   8.015 -0.0819  0.1073 -0.3171
  678PSPI    C1 7463   9.250   8.768   5.401  0.1038 -0.1451 -0.2527
  678PSPI    C2 7464   8.927   8.995   5.463  0.2780  0.0208  0.0815
  678PSPI    C3 7465   9.046   8.912   5.090 -0.0069  0.1608 -0.0434
  678PSPI   PO4 7466   9.410   8.931   5.522 -0.0925  0.4176 -0.2449
  678PSPI   GL1 7467   9.511   9.026   5.897  0.0806 -0.1032  0.1408
  678PSPI   GL2 7468   9.855   9.091   6.070 -0.2582  0.0616 -0.0403
  678PSPI   C1A 7469   9.487   9.297   6.345  0.2697 -0.0922 -0.1095
  678PSPI   C2A 7470   9.642   9.211   6.736 -0.2268 -0.2847  0.5363
  678PSPI   C3A 7471   9.630   9.258   7.174  0.0158 -0.1793 -0.1079
  678PSPI   C4A 7472   9.624   9.241   7.540  0.0435  0.1672  0.3131
  678PSPI   C1B 7473   9.888   8.859   6.433 -0.1912 -0.1993 -0.0922
  678PSPI   C2B 7474   9.928   8.824   6.903 -0.0246  0.0697  0.1210
  678PSPI   C3B 7475   9.931   8.889   7.336 -0.0381  0.0252 -0.2619
  678PSPI   C4B 7476  10.049   9.062   7.730 -0.1854 -0.0557 -0.2554
  679PSPI    C1 7477   8.405  12.748   5.910  0.1533  0.0339 -0.1956
  679PSPI    C2 7478   8.505  12.362   5.878 -0.3123 -0.1441  0.3260
  679PSPI    C3 7479   8.306  12.543   5.582 -0.2274 -0.3454  0.1431
  679PSPI   PO4 7480   8.299  12.778   6.155 -0.0826  0.0345 -0.3666
  679PSPI   GL1 7481   8.048  12.789   6.571 -0.3103  0.0931 -0.1700
  679PSPI   GL2 7482   8.408  12.838   6.729  0.2021 -0.1214 -0.0379
  679PSPI   C1A 7483   7.930  12.793   7.067 -0.0759  0.1838  0.0539
  679PSPI   C2A 7484   7.975  12.751   7.488  0.1186 -0.0641 -0.0197
  679PSPI   C3A 7485   7.826  12.461   7.781  0.1788 -0.1737 -0.3941
  679PSPI   C4A 7486   7.621  12.572   8.145 -0.2573  0.0760 -0.0900
  679PSPI   C1B 7487   8.472  13.069   7.120  0.0003 -0.3171 -0.0569
  679PSPI   C2B 7488   8.398  12.995   7.480  0.0076 -0.0967  0.0129
  679PSPI   C3B 7489   8.384  13.220   7.810 -0.2342  0.0514 -0.0412
  679PSPI   C4B 7490   8.245  13.249   8.278  0.0083 -0.1873 -0.0953
  680PSPI    C1 7491  17.192  17.514   6.863  0.0293  0.2037  0.0868
  680PSPI    C2 7492  16.835  17.452   6.694  0.1275  0.0909 -0.0836
  680PSPI    C3 7493  17.159  17.498   6.465  0.2620 -0.0550  0.0744
  680PSPI   PO4 7494  17.087  17.690   7.062  0.0801 -0.0991 -0.0386
  680PSPI   GL1 7495  17.217  17.810   7.443  0.2539  0.1397  0.1188
  680PSPI   GL2 7496  17.454  17.637   7.532 -0.0816  0.0570  0.0171
  680PSPI   C1A 7497  17.003  18.082   7.719  0.3191  0.1100 -0.4480
  680PSPI   C2A 7498  16.847  18.340   7.944 -0.1732  0.4099 -0.1981
  680PSPI   C3A 7499  16.906  18.655   8.230 -0.0826  0.1278 -0.3476
  680PSPI   C4A 7500  17.219  18.902   8.392  0.1659 -0.4379  0.1733
  680PSPI   C1B 7501  17.430  17.512   8.008 -0.0944  0.1666 -0.0137
  680PSPI   C2B 7502  17.400  17.756   8.321 -0.4277  0.0337 -0.0950
  680PSPI   C3B 7503  17.258  17.845   8.705 -0.1280 -0.0457  0.1577
  680PSPI   C4B 7504  16.935  18.100   8.939  0.0180  0.1909 -0.1551
  681PSPI    C1 7505   4.367   4.451   5.865  0.1025  0.2471  0.0352
  681PSPI    C2 7506   3.996   4.387   5.730  0.2445 -0.2592 -0.1377
  681PSPI    C3 7507   4.279   4.522   5.482  0.2262 -0.0608 -0.0528
  681PSPI   PO4 7508   4.335   4.558   6.075  0.1203 -0.0302 -0.2485
  681PSPI   GL1 7509   4.403   4.717   6.574 -0.1351  0.3349  0.0966
  681PSPI   GL2 7510   4.749   4.546   6.582  0.1696  0.2049 -0.2944
  681PSPI   C1A 7511   4.394   5.156   6.755 -0.1625  0.1277 -0.1131
  681PSPI   C2A 7512   4.443   5.257   7.234  0.1276 -0.1577 -0.1255
  681PSPI   C3A 7513   4.614   5.047   7.458 -0.1137 -0.0420 -0.1447
  681PSPI   C4A 7514   4.873   4.876   7.781 -0.0951 -0.2693 -0.4313
  681PSPI   C1B 7515   4.772   4.578   6.984 -0.0572  0.0299  0.3040
  681PSPI   C2B 7516   4.788   4.597   7.363  0.0642  0.0141 -0.4160
  681PSPI   C3B 7517   4.678   4.437   7.789 -0.1166 -0.0311  0.0678
  681PSPI   C4B 7518   4.508   4.751   8.061  0.2471  0.0057 -0.0239
  682PSPI    C1 7519   0.801   8.490   5.730  0.0105  0.2222 -0.1590
  682PSPI    C2 7520   0.929   8.146   5.571 -0.0296  0.1765 -0.0926
  682PSPI    C3 7521   1.043   8.494   5.411  0.1152  0.1350 -0.0814
  682PSPI   PO4 7522   0.898   8.628   6.034 -0.1122 -0.0974 -0.0353
  682PSPI   GL1 7523   0.892   8.459   6.415 -0.0726  0.1876  0.0582
  682PSPI   GL2 7524   0.735   8.169   6.497  0.0686 -0.4075 -0.1724
  682PSPI   C1A 7525   1.168   8.422   6.822  0.0370 -0.4149  0.1452
  682PSPI   C2A 7526   1.625   8.300   6.742 -0.6299  0.0421  0.0453
  682PSPI   C3A 7527   2.017   8.498   6.785  0.0053 -0.1661  0.0234
  682PSPI   C4A 7528   2.060   8.890   6.929  0.0492  0.1317  0.2574
  682PSPI   C1B 7529   0.596   8.409   6.865  0.0478 -0.1798  0.0682
  682PSPI   C2B 7530   0.759   8.526   7.213  0.1079  0.4144 -0.0495
  682PSPI   C3B 7531   0.974   8.878   7.467 -0.1272 -0.0186 -0.0089
  682PSPI   C4B 7532   1.003   9.137   7.876 -0.0915  0.0477  0.4474
  683PSPI    C1 7533  17.058   1.813   6.333 -0.1794 -0.0452 -0.2424
  683PSPI    C2 7534  16.849   2.128   6.461 -0.1618 -0.2488  0.3125
  683PSPI    C3 7535  17.246   2.119   6.508 -0.0915 -0.1233 -0.1989
  683PSPI   PO4 7536  16.934   1.667   6.519  0.1395 -0.1208  0.1573
  683PSPI   GL1 7537  17.209   1.671   6.924 -0.1069 -0.1668  0.0250
  683PSPI   GL2 7538  17.058   1.498   7.036 -0.3428  0.2668  0.3367
  683PSPI   C1A 7539  17.272   1.784   7.378 -0.1615 -0.4212  0.1514
  683PSPI   C2A 7540  17.069   1.805   7.783  0.0773 -0.1274 -0.1906
  683PSPI   C3A 7541  17.079   1.704   8.207  0.0618 -0.1642  0.0625
  683PSPI   C4A 7542  17.260   1.562   8.592  0.0181  0.1483 -0.2352
  683PSPI   C1B 7543  16.796   1.436   7.299  0.1245 -0.1280 -0.1218
  683PSPI   C2B 7544  16.632   1.516   7.667 -0.2529  0.0731 -0.1730
  683PSPI   C3B 7545  16.690   1.364   8.136 -0.1594 -0.0986 -0.0811
  683PSPI   C4B 7546  16.794   1.412   8.627 -0.1706 -0.4829  0.4295
  684PSPI    C1 7547  10.758  11.854   6.075  0.1848 -0.2422 -0.2084
  684PSPI    C2 7548  10.996  11.612   6.286 -0.0738 -0.4532 -0.1535
  684PSPI    C3 7549  11.155  11.900   6.058  0.2182 -0.3745  0.1419
  684PSPI   PO4 7550  10.586  12.007   6.309  0.0676 -0.0119 -0.1694
  684PSPI   GL1 7551  10.417  12.082   6.758  0.2789 -0.0628  0.1639
  684PSPI   GL2 7552  10.158  11.951   6.577  0.0220  0.1012 -0.0676
  684PSPI   C1A 7553  10.621  12.218   7.225 -0.2758 -0.1909 -0.0309
  684PSPI   C2A 7554  10.530  12.110   7.792  0.2506 -0.2579  0.3919
  684PSPI   C3A 7555  10.746  12.053   8.207  0.1224  0.0502  0.0029
  684PSPI   C4A 7556  10.803  12.251   8.535 -0.3300 -0.0806  0.1053
  684PSPI   C1B 7557  10.122  11.662   6.807  0.1990 -0.0641 -0.3766
  684PSPI   C2B 7558  10.217  11.836   7.134  0.3279 -0.2533  0.1163
  684PSPI   C3B 7559  10.443  11.752   7.525  0.1498 -0.0971  0.0695
  684PSPI   C4B 7560  10.570  11.596   7.876 -0.0408 -0.0987  0.1897
  685PSPI    C1 7561   4.875   6.612   5.824  0.0760 -0.3928 -0.0793
  685PSPI    C2 7562   4.675   6.685   5.485 -0.0528 -0.2420  0.0278
  685PSPI    C3 7563   5.067   6.761   5.507 -0.0146 -0.3875 -0.1321
  685PSPI   PO4 7564   4.838   6.368   5.879  0.0290 -0.0673  0.1374
  685PSPI   GL1 7565   4.704   6.045   6.205 -0.1651 -0.2164  0.0650
  685PSPI   GL2 7566   4.478   6.350   6.174  0.0775  0.1286  0.1417
  685PSPI   C1A 7567   4.876   6.160   6.633 -0.2277 -0.0025 -0.1007
  685PSPI   C2A 7568   4.866   6.261   7.122 -0.0518  0.1255  0.0590
  685PSPI   C3A 7569   5.042   6.414   7.480  0.2410 -0.1681  0.0611
  685PSPI   C4A 7570   5.238   6.540   7.884  0.0948 -0.0838  0.0396
  685PSPI   C1B 7571   4.645   6.661   6.567  0.1837  0.0405  0.0896
  685PSPI   C2B 7572   4.508   6.613   7.007  0.1803 -0.2585 -0.0018
  685PSPI   C3B 7573   4.595   6.644   7.373 -0.0196 -0.0627 -0.1243
  685PSPI   C4B 7574   4.902   6.924   7.630  0.1783 -0.0303  0.1151
  686PSPI    C1 7575   9.119  13.098   6.212  0.0575 -0.1012 -0.3040
  686PSPI    C2 7576   9.005  13.434   6.027 -0.0886 -0.0027 -0.0403
  686PSPI    C3 7577   8.841  13.083   5.924  0.0009  0.0171 -0.2560
  686PSPI   PO4 7578   9.105  13.216   6.470  0.0293  0.0278 -0.2780
  686PSPI   GL1 7579   8.731  13.228   6.723 -0.0213  0.1032 -0.4435
  686PSPI   GL2 7580   8.698  13.512   6.939 -0.0263 -0.1554  0.0397
  686PSPI   C1A 7581   8.958  13.144   7.110  0.0347  0.2202 -0.0610
  686PSPI   C2A 7582   8.886  13.090   7.589  0.2647 -0.1702  0.1153
  686PSPI   C3A 7583   9.180  13.303   7.874  0.0788 -0.2947  0.2876
  686PSPI   C4A 7584   9.325  13.126   8.288  0.0370  0.0636  0.2741
  686PSPI   C1B 7585   8.627  13.458   7.387  0.2545  0.1711 -0.0162
  686PSPI   C2B 7586   8.772  13.670   7.727  0.1309 -0.1353 -0.0766
  686PSPI   C3B 7587   8.667  13.770   8.171 -0.2421  0.0755  0.3511
  686PSPI   C4B 7588   8.524  14.136   8.471 -0.0573  0.0504  0.0791
  687PSPI    C1 7589   9.210   4.253   5.544  0.1751  0.0330  0.1433
  687PSPI    C2 7590   9.221   4.012   5.863 -0.1474 -0.3069 -0.0941
  687PSPI    C3 7591   9.388   3.895   5.519  0.1700  0.0439 -0.0652
  687PSPI   PO4 7592   8.900   4.333   5.581  0.2580 -0.1441 -0.3460
  687PSPI   GL1 7593   8.727   4.258   5.914 -0.1188 -0.1500  0.1700
  687PSPI   GL2 7594   8.730   4.480   6.120  0.0238 -0.0321 -0.0532
  687PSPI   C1A 7595   8.686   3.899   6.200  0.2890 -0.0553  0.1261
  687PSPI   C2A 7596   8.552   3.888   6.633 -0.0339 -0.0467  0.0549
  687PSPI   C3A 7597   8.247   3.678   6.783 -0.1257 -0.0192  0.0500
  687PSPI   C4A 7598   7.945   3.381   7.024  0.0274  0.3272  0.1991
  687PSPI   C1B 7599   8.579   4.392   6.385 -0.2181  0.2900 -0.2685
  687PSPI   C2B 7600   8.457   4.361   6.760  0.1717  0.2605  0.0406
  687PSPI   C3B 7601   8.535   4.256   7.136 -0.2014  0.0176 -0.0989
  687PSPI   C4B 7602   8.674   4.389   7.457 -0.1204 -0.0855  0.0886
  688PSPI    C1 7603   6.386  10.794   5.934 -0.1695  0.1316 -0.0225
  688PSPI    C2 7604   6.223  10.429   5.924 -0.0027  0.0546  0.0308
  688PSPI    C3 7605   6.294  10.626   5.583 -0.2152  0.0935  0.0074
  688PSPI   PO4 7606   6.200  10.875   6.252  0.1142  0.0475 -0.2952
  688PSPI   GL1 7607   6.235  10.862   6.643  0.2349  0.3221 -0.0824
  688PSPI   GL2 7608   5.934  10.712   6.677  0.0111  0.2341 -0.1441
  688PSPI   C1A 7609   6.298  10.932   7.136  0.1954  0.0846  0.0235
  688PSPI   C2A 7610   6.101  10.677   7.548  0.0955 -0.1535 -0.1345
  688PSPI   C3A 7611   6.128  10.451   7.907  0.1370  0.1556  0.1076
  688PSPI   C4A 7612   6.142  10.539   8.318 -0.0765  0.1430  0.3719
  688PSPI   C1B 7613   5.983  10.467   7.107 -0.1290 -0.0586  0.2908
  688PSPI   C2B 7614   6.045  10.181   7.419 -0.1121 -0.2106 -0.1031
  688PSPI   C3B 7615   5.884   9.984   7.691  0.1726  0.2169 -0.0041
  688PSPI   C4B 7616   5.859   9.688   7.990 -0.0562  0.2335  0.0551
  689PSPI    C1 7617   1.365   8.474   5.863 -0.1022  0.0818  0.1866
  689PSPI    C2 7618   1.512   8.840   5.928 -0.2156  0.1506  0.0632
  689PSPI    C3 7619   1.521   8.684   5.560 -0.2817  0.0802  0.0912
  689PSPI   PO4 7620   1.515   8.342   6.163  0.0154 -0.0317  0.1455
  689PSPI   GL1 7621   1.258   8.073   6.487 -0.1941 -0.4711  0.0057
  689PSPI   GL2 7622   1.130   7.843   6.411  0.1843  0.2016  0.1613
  689PSPI   C1A 7623   0.971   7.984   6.929  0.1400 -0.0359  0.0255
  689PSPI   C2A 7624   1.021   8.126   7.335 -0.3481  0.2050  0.2875
  689PSPI   C3A 7625   1.066   7.965   7.834 -0.0092  0.1405 -0.0312
  689PSPI   C4A 7626   1.082   8.123   8.170  0.0980  0.3381 -0.1061
  689PSPI   C1B 7627   1.005   7.488   6.625 -0.0383  0.0734 -0.0131
  689PSPI   C2B 7628   1.171   7.349   6.965 -0.1213 -0.1564 -0.2020
  689PSPI   C3B 7629   1.271   6.888   6.955  0.1783 -0.1813 -0.0670
  689PSPI   C4B 7630   1.208   6.816   7.262  0.0700 -0.2128  0.0195
  690PSPI    C1 7631   6.631  17.971   6.058  0.0008  0.0286  0.0268
  690PSPI    C2 7632   6.389  18.033   5.745 -0.0514  0.1517  0.0904
  690PSPI    C3 7633   6.785  18.009   5.691 -0.0805 -0.1080 -0.0220
  690PSPI   PO4 7634   6.666  18.179   6.260  0.1859  0.1018  0.2144
  690PSPI   GL1 7635   6.886  18.129   6.554 -0.2591 -0.1730 -0.3723
  690PSPI   GL2 7636   7.163  17.920   6.677  0.1829 -0.1334 -0.1184
  690PSPI   C1A 7637   6.969  18.311   7.030  0.1022 -0.0708 -0.3549
  690PSPI   C2A 7638   6.965  18.499   7.475 -0.0805 -0.0204 -0.3129
  690PSPI   C3A 7639   6.973  18.290   7.831 -0.0401 -0.0812  0.3193
  690PSPI   C4A 7640   7.125  18.371   8.250 -0.0207 -0.2470  0.2180
  690PSPI   C1B 7641   7.160  17.804   7.086  0.1298 -0.0257  0.1036
  690PSPI   C2B 7642   7.188  17.666   7.516 -0.0459 -0.2302  0.0182
  690PSPI   C3B 7643   7.455  17.499   7.918 -0.1777 -0.1983 -0.0883
  690PSPI   C4B 7644   7.754  17.399   8.130 -0.1713  0.4411  0.1731
  691PSPI    C1 7645   2.574   0.072   6.104 -0.1170 -0.1290 -0.0653
  691PSPI    C2 7646   2.797   0.352   6.283 -0.0294 -0.1803 -0.0937
  691PSPI    C3 7647   2.792   0.325   5.884 -0.0367 -0.2201 -0.0910
  691PSPI   PO4 7648   2.467   0.042   6.435 -0.1703  0.1934  0.0080
  691PSPI   GL1 7649   2.547   0.072   6.953  0.0961 -0.0430 -0.0929
  691PSPI   GL2 7650   2.618   0.408   6.838  0.2124 -0.0206  0.1718
  691PSPI   C1A 7651   2.536  -0.140   7.429 -0.1618  0.1220 -0.0199
  691PSPI   C2A 7652   2.658  -0.233   7.823 -0.1909  0.3962 -0.2412
  691PSPI   C3A 7653   2.929  -0.107   8.215 -0.1650  0.1411 -0.1772
  691PSPI   C4A 7654   3.017  -0.276   8.622  0.2458 -0.1485 -0.0812
  691PSPI   C1B 7655   2.733   0.332   7.302  0.2698  0.0570 -0.0923
  691PSPI   C2B 7656   2.945   0.203   7.589 -0.0651 -0.5009  0.3666
  691PSPI   C3B 7657   3.160   0.284   7.988  0.1287 -0.0694 -0.0741
  691PSPI   C4B 7658   3.404   0.098   8.314  0.0200  0.2355  0.1666
  692POPI    C1 7659   7.434   0.007   6.172  0.0372  0.3223 -0.0636
  692POPI    C2 7660   7.052   0.009   6.056 -0.0304 -0.0449  0.1361
  692POPI    C3 7661   7.337  -0.107   5.801 -0.0204  0.4445 -0.0864
  692POPI   PO4 7662   7.426  -0.077   6.365  0.0592  0.0053  0.0767
  692POPI   GL1 7663   7.621   0.071   6.735 -0.0893 -0.0130 -0.1180
  692POPI   GL2 7664   7.576   0.276   6.851  0.2315 -0.3497  0.2871
  692POPI   C1A 7665   7.581  -0.320   7.023  0.1647  0.0097 -0.0624
  692POPI   D2A 7666   7.274  -0.261   7.420  0.1382  0.0652 -0.1590
  692POPI   C3A 7667   7.462  -0.190   7.784  0.2521  0.1019  0.1820
  692POPI   C4A 7668   7.599   0.081   8.087  0.0897 -0.0833 -0.0349
  692POPI   C1B 7669   7.493   0.202   7.218 -0.2584 -0.0038 -0.1304
  692POPI   C2B 7670   7.456   0.277   7.646 -0.1222 -0.0992 -0.1715
  692POPI   C3B 7671   7.452   0.532   7.956  0.4546  0.0886  0.1066
  692POPI   C4B 7672   7.440   0.614   8.429 -0.1801 -0.0665 -0.3020
  693POPI    C1 7673  15.274  14.291   6.601 -0.1376 -0.0049  0.1347
  693POPI    C2 7674  14.910  14.256   6.440 -0.0588 -0.2330  0.0012
  693POPI    C3 7675  15.146  14.560   6.334 -0.1836 -0.1225  0.0371
  693POPI   PO4 7676  15.182  14.281   6.888 -0.0437  0.5204  0.3081
  693POPI   GL1 7677  15.051  14.567   7.198 -0.2327  0.0788  0.0093
  693POPI   GL2 7678  15.075  14.912   7.058 -0.2411 -0.1415 -0.4143
  693POPI   C1A 7679  14.977  14.314   7.559 -0.0009  0.0532  0.0432
  693POPI   D2A 7680  14.722  14.371   7.970 -0.1282 -0.0361 -0.0911
  693POPI   C3A 7681  14.940  14.402   8.276  0.3957 -0.0946 -0.3666
  693POPI   C4A 7682  15.254  14.214   8.457  0.1322 -0.4191 -0.2297
  693POPI   C1B 7683  14.789  15.022   7.490 -0.1434  0.0762  0.1549
  693POPI   C2B 7684  14.466  15.153   7.781 -0.0425  0.3146  0.0556
  693POPI   C3B 7685  14.417  15.337   8.158  0.0131 -0.0048  0.1689
  693POPI   C4B 7686  14.147  15.428   8.492 -0.4021  0.2377  0.0242
  694POPI    C1 7687  14.179   7.648   5.828 -0.0178  0.0338  0.1173
  694POPI    C2 7688  14.453   7.453   5.612 -0.2317 -0.0584 -0.0750
  694POPI    C3 7689  14.333   7.305   5.964  0.0673  0.0566  0.0785
  694POPI   PO4 7690  13.873   7.702   5.753 -0.0318 -0.1494  0.1310
  694POPI   GL1 7691  13.692   7.472   6.053 -0.2513 -0.0609  0.0105
  694POPI   GL2 7692  13.842   7.106   5.964 -0.0222  0.1582 -0.0460
  694POPI   C1A 7693  13.904   7.256   6.451  0.2672  0.0525  0.2004
  694POPI   D2A 7694  13.854   7.267   6.874 -0.2598  0.0507  0.0926
  694POPI   C3A 7695  14.019   6.874   7.203  0.1549 -0.0839 -0.0750
  694POPI   C4A 7696  13.985   6.428   7.335  0.4603  0.3511 -0.1031
  694POPI   C1B 7697  13.714   6.628   6.151 -0.1570  0.0495  0.2334
  694POPI   C2B 7698  13.581   6.405   6.413  0.1091 -0.0005  0.1932
  694POPI   C3B 7699  13.284   6.489   6.709  0.0995  0.0342  0.0694
  694POPI   C4B 7700  13.045   6.415   7.059  0.0120 -0.2829  0.2370
  695POPI    C1 7701  14.297   9.654   5.730  0.0154 -0.2382 -0.0542
  695POPI    C2 7702  14.497   9.577   5.393  0.0037 -0.0275 -0.1109
  695POPI    C3 7703  14.662   9.808   5.674 -0.1163  0.0606 -0.1122
  695POPI   PO4 7704  14.252   9.382   5.978 -0.3572  0.0620  0.1066
  695POPI   GL1 7705  14.327   9.308   6.416 -0.1063 -0.1592  0.2355
  695POPI   GL2 7706  14.417   9.552   6.560 -0.1379 -0.0781  0.0380
  695POPI   C1A 7707  14.123   9.239   6.884 -0.1475  0.0207 -0.2466
  695POPI   D2A 7708  14.067   9.329   7.347 -0.1139  0.3092  0.2280
  695POPI   C3A 7709  13.965   9.674   7.477  0.1179  0.1895  0.1734
  695POPI   C4A 7710  13.620   9.803   7.720  0.0293  0.1804 -0.3708
  695POPI   C1B 7711  14.324   9.717   6.991  0.0958 -0.1311  0.1991
  695POPI   C2B 7712  14.439   9.770   7.431 -0.0279  0.0736 -0.0684
  695POPI   C3B 7713  14.504   9.510   7.718  0.2096 -0.0292 -0.1283
  695POPI   C4B 7714  14.560   9.251   8.145 -0.2336 -0.2518  0.2197
  696POPI    C1 7715  10.331  15.813   5.918 -0.0688 -0.1349  0.1459
  696POPI    C2 7716  10.728  15.831   5.964 -0.0143 -0.0609 -0.3093
  696POPI    C3 7717  10.545  16.077   5.707 -0.3404 -0.1854 -0.2011
  696POPI   PO4 7718  10.245  15.756   6.127  0.0390 -0.1178  0.2516
  696POPI   GL1 7719  10.028  15.975   6.378  0.1463 -0.2737  0.1290
  696POPI   GL2 7720   9.856  16.226   6.278 -0.1582  0.1098  0.0284
  696POPI   C1A 7721  10.060  16.023   6.778  0.3143  0.2159  0.0220
  696POPI   D2A 7722   9.908  15.929   7.202 -0.1874 -0.0179 -0.1200
  696POPI   C3A 7723   9.774  15.653   7.555  0.0541  0.0509 -0.0253
  696POPI   C4A 7724   9.291  15.427   7.671  0.0788  0.0449  0.1919
  696POPI   C1B 7725   9.634  16.216   6.579 -0.0996  0.0914  0.0849
  696POPI   C2B 7726   9.539  16.124   6.924 -0.2920 -0.1338  0.3843
  696POPI   C3B 7727   9.414  16.111   7.310 -0.2592  0.0727 -0.0563
  696POPI   C4B 7728   9.308  16.101   7.663  0.0593 -0.1117  0.0696
  697POPI    C1 7729  15.597  18.289   6.535  0.2287 -0.0377 -0.0316
  697POPI    C2 7730  15.851  18.044   6.724  0.0668 -0.0710  0.1461
  697POPI    C3 7731  15.619  17.904   6.430  0.2148 -0.0526  0.0192
  697POPI   PO4 7732  15.540  18.419   6.798  0.2377 -0.0879  0.1818
  697POPI   GL1 7733  15.808  18.300   7.100  0.0513 -0.0323 -0.1339
  697POPI   GL2 7734  15.532  18.070   7.229  0.2163 -0.1500  0.0015
  697POPI   C1A 7735  15.971  18.428   7.381 -0.0844  0.1717  0.1744
  697POPI   D2A 7736  15.915  18.485   7.761 -0.2552 -0.2068  0.1393
  697POPI   C3A 7737  15.722  18.260   8.072  0.2039  0.5453 -0.3471
  697POPI   C4A 7738  15.674  17.918   8.342  0.3502 -0.1531 -0.1767
  697POPI   C1B 7739  15.467  18.230   7.596 -0.1575 -0.1804 -0.0486
  697POPI   C2B 7740  15.197  18.338   7.802  0.0928 -0.1136 -0.2123
  697POPI   C3B 7741  15.096  18.535   8.219 -0.0479  0.1074  0.3568
  697POPI   C4B 7742  15.110  18.711   8.607 -0.6427  0.0649 -0.1374
  698POPI    C1 7743   5.529  14.257   6.640 -0.0112 -0.0435  0.0866
  698POPI    C2 7744   5.875  14.170   6.460 -0.1045 -0.0916 -0.0719
  698POPI    C3 7745   5.628  13.876   6.570 -0.2624 -0.0444 -0.2941
  698POPI   PO4 7746   5.656  14.394   6.894  0.3022 -0.1622  0.2780
  698POPI   GL1 7747   5.758  14.267   7.315 -0.1109 -0.0933  0.1511
  698POPI   GL2 7748   5.915  13.962   7.396  0.2911 -0.1774  0.4605
  698POPI   C1A 7749   5.915  14.582   7.576  0.2177 -0.2032  0.2922
  698POPI   D2A 7750   5.751  14.599   8.009  0.0388  0.0564  0.2744
  698POPI   C3A 7751   5.528  14.692   8.338 -0.0907  0.0217  0.1035
  698POPI   C4A 7752   5.519  14.671   8.730  0.1871 -0.1549 -0.3127
  698POPI   C1B 7753   6.278  14.274   7.462 -0.0513  0.1575 -0.0943
  698POPI   C2B 7754   6.701  14.337   7.494  0.0086  0.1081 -0.0245
  698POPI   C3B 7755   6.956  14.485   7.759  0.0542  0.2118 -0.0035
  698POPI   C4B 7756   6.986  14.830   7.926  0.0362 -0.1526  0.2809
  699POPI    C1 7757  15.872  16.365   7.123 -0.3416  0.0277  0.1114
  699POPI    C2 7758  15.688  16.535   6.811 -0.2617 -0.1582 -0.0386
  699POPI    C3 7759  15.714  16.731   7.159 -0.2726  0.0876 -0.1740
  699POPI   PO4 7760  15.666  16.075   7.205 -0.0112  0.0819  0.2667
  699POPI   GL1 7761  15.838  15.761   7.418  0.0421 -0.0788  0.1497
  699POPI   GL2 7762  15.554  15.500   7.398 -0.1336 -0.1069 -0.0026
  699POPI   C1A 7763  15.504  15.772   7.824 -0.0753  0.0827 -0.0982
  699POPI   D2A 7764  15.445  15.670   8.212  0.0628 -0.0123  0.0279
  699POPI   C3A 7765  15.078  15.608   8.492 -0.0471 -0.0918  0.1330
  699POPI   C4A 7766  14.657  15.477   8.556 -0.0713  0.1734 -0.2537
  699POPI   C1B 7767  15.438  15.251   7.744 -0.0932  0.0959 -0.0553
  699POPI   C2B 7768  15.394  15.153   8.173 -0.0061 -0.0376  0.1927
  699POPI   C3B 7769  15.684  15.258   8.514  0.0761 -0.0265  0.0598
  699POPI   C4B 7770  16.155  15.434   8.679  0.0224  0.2541 -0.1009
  700POPI    C1 7771  13.962   2.593   5.860  0.0267  0.1869 -0.0129
  700POPI    C2 7772  13.701   2.423   6.111  0.2122 -0.0116  0.0496
  700POPI    C3 7773  13.618   2.444   5.720 -0.0471  0.2364  0.1141
  700POPI   PO4 7774  14.174   2.473   6.008  0.3112 -0.0695 -0.0976
  700POPI   GL1 7775  14.431   2.499   6.451 -0.0419 -0.3120  0.3143
  700POPI   GL2 7776  14.122   2.503   6.529 -0.2007 -0.0892 -0.2696
  700POPI   C1A 7777  14.534   2.803   6.679 -0.1596 -0.0207  0.1368
  700POPI   D2A 7778  14.631   2.792   7.072 -0.0798  0.1116 -0.0918
  700POPI   C3A 7779  14.651   2.475   7.240  0.3558 -0.0277 -0.5000
  700POPI   C4A 7780  14.754   2.571   7.670  0.1284  0.1529 -0.0320
  700POPI   C1B 7781  14.187   2.585   7.010 -0.4994  0.1688 -0.1273
  700POPI   C2B 7782  14.238   2.705   7.435 -0.0070  0.0069 -0.1297
  700POPI   C3B 7783  14.233   2.944   7.729  0.1529 -0.4241 -0.0021
  700POPI   C4B 7784  14.507   3.344   7.768 -0.4095 -0.0458  0.2609
  701POPI    C1 7785   5.547   3.988   5.998  0.0452  0.4241  0.1146
  701POPI    C2 7786   5.518   4.061   5.605  0.1585 -0.0069  0.0213
  701POPI    C3 7787   5.320   4.290   5.866 -0.0940  0.1473 -0.2996
  701POPI   PO4 7788   5.888   3.918   5.950  0.3199  0.1128 -0.0157
  701POPI   GL1 7789   6.066   3.629   6.193 -0.2137 -0.0310 -0.1800
  701POPI   GL2 7790   5.744   3.488   6.253  0.1983 -0.1768 -0.0583
  701POPI   C1A 7791   6.221   3.771   6.551  0.2722 -0.0315 -0.1268
  701POPI   D2A 7792   6.209   4.019   6.888  0.0013  0.1036  0.0432
  701POPI   C3A 7793   6.290   4.087   7.275  0.0154  0.1843  0.0776
  701POPI   C4A 7794   6.405   4.157   7.662 -0.1091  0.0772 -0.2728
  701POPI   C1B 7795   5.619   3.147   6.538 -0.3726  0.0534 -0.1989
  701POPI   C2B 7796   5.529   3.120   6.911 -0.3849 -0.0025  0.0406
  701POPI   C3B 7797   5.612   3.188   7.295  0.0198  0.1425  0.0186
  701POPI   C4B 7798   5.703   3.340   7.699 -0.0310 -0.1882 -0.1663
  702POPI    C1 7799   8.867  12.067   6.151 -0.0842  0.3100  0.0034
  702POPI    C2 7800   8.932  12.164   5.768  0.0173 -0.0671 -0.0786
  702POPI    C3 7801   8.681  11.866   5.859 -0.0643  0.0704  0.1534
  702POPI   PO4 7802   9.156  12.105   6.244  0.0230 -0.0817  0.0875
  702POPI   GL1 7803   9.274  11.703   6.663 -0.1581 -0.0948 -0.0178
  702POPI   GL2 7804   9.523  11.871   6.427  0.2781  0.0805 -0.2601
  702POPI   C1A 7805   9.596  11.448   6.748  0.0810 -0.0709 -0.2462
  702POPI   D2A 7806   9.545  11.147   7.180  0.0005 -0.0482 -0.0711
  702POPI   C3A 7807   9.501  11.291   7.538 -0.0067  0.3460  0.0036
  702POPI   C4A 7808   9.326  11.708   7.634 -0.1736  0.0085  0.0332
  702POPI   C1B 7809   9.682  11.954   6.842 -0.1138 -0.2662  0.2206
  702POPI   C2B 7810   9.762  11.625   7.241 -0.0989  0.0907 -0.2354
  702POPI   C3B 7811   9.939  11.577   7.646  0.3132  0.1323 -0.1360
  702POPI   C4B 7812  10.059  11.665   8.049 -0.1113  0.3484 -0.3196
  703POPI    C1 7813  13.202  17.933   6.292  0.0162 -0.1363 -0.0319
  703POPI    C2 7814  13.515  17.944   6.044 -0.0961 -0.1305 -0.1746
  703POPI    C3 7815  13.574  17.922   6.439  0.0883  0.2250 -0.1781
  703POPI   PO4 7816  13.038  18.142   6.353  0.1471 -0.0287  0.0223
  703POPI   GL1 7817  12.771  18.485   6.499 -0.4228 -0.1178 -0.4142
  703POPI   GL2 7818  12.468  18.536   6.539  0.3040  0.1332 -0.1567
  703POPI   C1A 7819  12.970  18.588   6.930 -0.3765 -0.0813 -0.0772
  703POPI   D2A 7820  12.727  18.580   7.324  0.2530 -0.1181 -0.0703
  703POPI   C3A 7821  12.769  18.352   7.732 -0.0123  0.0427 -0.0023
  703POPI   C4A 7822  12.552  18.050   7.999  0.0979  0.4893 -0.0840
  703POPI   C1B 7823  12.383  18.770   6.930 -0.1619 -0.1388 -0.0067
  703POPI   C2B 7824  12.299  18.831   7.267  0.0469  0.0049  0.1020
  703POPI   C3B 7825  12.415  18.692   7.696  0.4109 -0.3464 -0.1081
  703POPI   C4B 7826  12.138  18.681   8.056  0.0085  0.3721 -0.0801
  704POPI    C1 7827  17.230   4.004   6.136  0.0192  0.2333 -0.2968
  704POPI    C2 7828  16.906   3.953   5.906 -0.0596 -0.0601 -0.1260
  704POPI    C3 7829  17.267   3.847   5.770 -0.0849 -0.0809 -0.1765
  704POPI   PO4 7830  17.165   3.936   6.407  0.2333 -0.0189 -0.2027
  704POPI   GL1 7831  16.728   3.926   6.706 -0.2155 -0.0198  0.1111
  704POPI   GL2 7832  16.800   4.313   6.598 -0.1891  0.1490  0.3674
  704POPI   C1A 7833  16.711   3.840   7.203 -0.0641 -0.2823  0.1720
  704POPI   D2A 7834  16.625   3.931   7.632  0.0564 -0.1491  0.2245
  704POPI   C3A 7835  16.987   3.948   7.878 -0.0868 -0.1603  0.0446
  704POPI   C4A 7836  17.438   3.989   8.161  0.1696 -0.0770 -0.0509
  704POPI   C1B 7837  16.656   4.430   7.025 -0.2439  0.1249  0.0787
  704POPI   C2B 7838  16.649   4.586   7.423 -0.2979  0.3118  0.0774
  704POPI   C3B 7839  16.852   4.715   7.799 -0.2528 -0.0948  0.0549
  704POPI   C4B 7840  16.824   5.132   7.907  0.0251 -0.1011  0.1421
  705POPI    C1 7841   9.761   0.869   5.627 -0.0818  0.0062  0.0629
  705POPI    C2 7842   9.771   1.216   5.427  0.2556  0.0500  0.1492
  705POPI    C3 7843   9.565   0.906   5.280  0.0106  0.2630  0.0354
  705POPI   PO4 7844   9.731   1.024   5.866  0.1093  0.4546  0.1879
  705POPI   GL1 7845   9.684   0.814   6.361  0.1103  0.1588 -0.0309
  705POPI   GL2 7846   9.513   0.538   6.437 -0.0988 -0.1820  0.1000
  705POPI   C1A 7847   9.688   1.013   6.789  0.3000  0.3168  0.1501
  705POPI   D2A 7848   9.580   1.188   7.103  0.3100 -0.2671  0.2907
  705POPI   C3A 7849   9.591   0.937   7.477  0.1417 -0.0741  0.0496
  705POPI   C4A 7850   9.499   0.530   7.605  0.3374 -0.2648 -0.3058
  705POPI   C1B 7851   9.468   0.577   6.770  0.4709 -0.0604  0.0828
  705POPI   C2B 7852   9.366   0.514   7.126 -0.1515  0.2038 -0.0940
  705POPI   C3B 7853   9.027   0.707   7.372 -0.0586 -0.0451 -0.0807
  705POPI   C4B 7854   9.138   0.871   7.708 -0.0338  0.1587 -0.4621
  706POPI    C1 7855  11.334  11.544   5.720  0.0888 -0.0813  0.2838
  706POPI    C2 7856  11.632  11.577   5.455 -0.1107 -0.2360  0.0350
  706POPI    C3 7857  11.384  11.885   5.517 -0.0182 -0.1738  0.0990
  706POPI   PO4 7858  11.516  11.541   5.983 -0.1260  0.2630  0.0174
  706POPI   GL1 7859  11.418  11.559   6.508 -0.4357 -0.2442  0.2328
  706POPI   GL2 7860  11.331  11.792   6.734  0.0224 -0.1618  0.0904
  706POPI   C1A 7861  11.200  11.314   6.782 -0.2246 -0.0915  0.2956
  706POPI   D2A 7862  11.240  11.239   7.211  0.0735  0.1744 -0.2280
  706POPI   C3A 7863  11.159  10.913   7.448 -0.1072  0.2049  0.0136
  706POPI   C4A 7864  11.213  10.517   7.248  0.0603  0.3164 -0.2448
  706POPI   C1B 7865  11.663  11.434   6.914  0.1058  0.0479  0.0954
  706POPI   C2B 7866  11.679  11.098   7.125 -0.0512 -0.0343  0.0819
  706POPI   C3B 7867  11.619  11.097   7.564 -0.0389  0.0403 -0.1553
  706POPI   C4B 7868  11.470  10.780   7.847 -0.1412 -0.3364 -0.2061
  707POPI    C1 7869   0.182  10.561   5.501 -0.0335 -0.0107 -0.0708
  707POPI    C2 7870   0.571  10.591   5.413  0.0025 -0.0248  0.0807
  707POPI    C3 7871   0.413  10.235   5.504 -0.0727 -0.0389 -0.1008
  707POPI   PO4 7872   0.119  10.751   5.680 -0.1531 -0.2749 -0.2254
  707POPI   GL1 7873   0.108  11.040   6.104 -0.3737  0.3047 -0.1551
  707POPI   GL2 7874   0.393  11.178   6.129  0.2084 -0.0854  0.0738
  707POPI   C1A 7875   0.084  10.951   6.649  0.3247 -0.1480  0.0980
  707POPI   D2A 7876   0.262  11.116   7.020 -0.1838  0.1070 -0.0894
  707POPI   C3A 7877   0.209  10.817   7.415 -0.1404 -0.0624  0.0120
  707POPI   C4A 7878   0.128  10.807   7.885 -0.3236  0.1510  0.0031
  707POPI   C1B 7879   0.524  11.196   6.518 -0.2808 -0.2336 -0.1555
  707POPI   C2B 7880   0.692  10.928   6.756 -0.0859 -0.1940 -0.0421
  707POPI   C3B 7881   0.938  10.592   6.673  0.4964  0.0402 -0.1948
  707POPI   C4B 7882   1.330  10.720   6.746 -0.0209 -0.2862 -0.1691
  708POPI    C1 7883  16.769   7.322   5.215  0.2340  0.2036 -0.1304
  708POPI    C2 7884  16.837   6.936   5.297 -0.0490  0.2341  0.2798
  708POPI    C3 7885  16.742   7.048   4.925 -0.0012 -0.0955  0.1647
  708POPI   PO4 7886  16.957   7.423   5.478  0.2119  0.0400  0.0214
  708POPI   GL1 7887  16.842   7.487   5.951 -0.0733 -0.0727  0.1901
  708POPI   GL2 7888  16.542   7.562   5.955 -0.2738  0.3141 -0.0406
  708POPI   C1A 7889  16.927   7.603   6.474  0.1350  0.0647  0.3951
  708POPI   D2A 7890  17.132   7.343   6.848  0.3279  0.2153  0.1839
  708POPI   C3A 7891  17.255   7.521   7.199 -0.1266  0.1952  0.1947
  708POPI   C4A 7892  17.448   7.577   7.608 -0.0289  0.2744 -0.3098
  708POPI   C1B 7893  16.452   7.707   6.324  0.1789 -0.2258 -0.0266
  708POPI   C2B 7894  16.364   7.680   6.712 -0.0487 -0.0440  0.3109
  708POPI   C3B 7895  16.304   7.857   7.139 -0.1124 -0.0762 -0.1742
  708POPI   C4B 7896  15.957   7.900   7.297  0.1010 -0.2387  0.2933
  709POPI    C1 7897  10.476  15.341   5.630 -0.1824 -0.0137  0.4284
  709POPI    C2 7898  10.148  15.289   5.408  0.1315  0.0022 -0.0551
  709POPI    C3 7899  10.291  15.657   5.469  0.0836 -0.0079  0.1240
  709POPI   PO4 7900  10.476  15.061   5.759 -0.2360 -0.2303 -0.3001
  709POPI   GL1 7901  10.346  14.969   6.144  0.0868 -0.2075 -0.1696
  709POPI   GL2 7902  10.516  15.032   6.482 -0.1234 -0.2067 -0.1483
  709POPI   C1A 7903  10.042  14.833   6.557 -0.1074 -0.0595 -0.2656
  709POPI   D2A 7904  10.147  14.471   6.695 -0.0222 -0.1934 -0.2662
  709POPI   C3A 7905  10.546  14.380   6.834 -0.3080  0.1233 -0.1706
  709POPI   C4A 7906  10.902  14.634   7.012 -0.0996  0.1386  0.1060
  709POPI   C1B 7907  10.416  14.910   6.943 -0.1003  0.1042  0.2567
  709POPI   C2B 7908  10.477  14.892   7.380 -0.0630 -0.4101 -0.1078
  709POPI   C3B 7909  10.451  14.687   7.690 -0.0205  0.2912 -0.0252
  709POPI   C4B 7910  10.178  14.557   7.959  0.0895  0.0896  0.0533
  710POPI    C1 7911   9.670   4.553   5.512  0.1378  0.0895 -0.1662
  710POPI    C2 7912   9.630   4.876   5.279 -0.0960  0.2047  0.0294
  710POPI    C3 7913   9.328   4.761   5.515 -0.0883 -0.2735 -0.1827
  710POPI   PO4 7914   9.820   4.568   5.751 -0.0765  0.1223 -0.0872
  710POPI   GL1 7915   9.706   4.681   6.109 -0.2293 -0.3757  0.0711
  710POPI   GL2 7916   9.821   4.677   6.482  0.0767  0.0159  0.2297
  710POPI   C1A 7917   9.321   4.801   6.335  0.0999 -0.2132  0.0381
  710POPI   D2A 7918   9.008   4.587   6.604 -0.3433  0.0169 -0.4745
  710POPI   C3A 7919   8.934   4.572   7.005  0.0372  0.0290 -0.0427
  710POPI   C4A 7920   9.026   4.849   7.182 -0.1480  0.0460  0.2610
  710POPI   C1B 7921   9.928   4.672   6.956  0.1730 -0.0021  0.1314
  710POPI   C2B 7922  10.163   4.528   7.366  0.1167  0.0505 -0.2733
  710POPI   C3B 7923  10.451   4.653   7.662 -0.2415  0.0188  0.2511
  710POPI   C4B 7924  10.659   4.395   8.001  0.0555  0.0098 -0.0799
  711POPI    C1 7925   6.257  14.421   6.186  0.2338  0.2831 -0.1088
  711POPI    C2 7926   6.005  14.685   6.022 -0.1661  0.1011  0.1960
  711POPI    C3 7927   5.926  14.294   6.001  0.2591  0.0196  0.0229
  711POPI   PO4 7928   6.347  14.524   6.461  0.2736  0.1550  0.0212
  711POPI   GL1 7929   6.589  14.772   6.674  0.2479 -0.0064  0.2436
  711POPI   GL2 7930   6.282  14.922   6.828  0.0721  0.0595  0.0982
  711POPI   C1A 7931   6.566  14.654   7.109 -0.3162  0.1985 -0.0078
  711POPI   D2A 7932   6.347  14.782   7.534 -0.0552 -0.2857  0.0068
  711POPI   C3A 7933   6.486  14.767   7.919 -0.2926 -0.3133 -0.0948
  711POPI   C4A 7934   6.241  14.735   8.307 -0.1664  0.1180 -0.1630
  711POPI   C1B 7935   6.564  15.132   7.255 -0.0246  0.0403  0.3253
  711POPI   C2B 7936   6.630  15.336   7.648  0.0603  0.0911  0.2620
  711POPI   C3B 7937   6.584  15.221   7.987 -0.1740 -0.2345 -0.1241
  711POPI   C4B 7938   6.317  15.259   8.295 -0.3428 -0.0047 -0.1687
  712POPI    C1 7939   2.460   4.922   5.862 -0.1851 -0.1560  0.0069
  712POPI    C2 7940   2.278   5.161   5.597 -0.0565 -0.0681 -0.0030
  712POPI    C3 7941   2.363   4.782   5.500 -0.0110 -0.0365 -0.0873
  712POPI   PO4 7942   2.212   4.916   6.138  0.1690 -0.0048  0.1955
  712POPI   GL1 7943   2.110   5.128   6.506 -0.0202  0.1351 -0.2635
  712POPI   GL2 7944   1.977   4.824   6.667 -0.1469 -0.1440 -0.1277
  712POPI   C1A 7945   1.970   5.455   6.709 -0.2225 -0.0114 -0.3108
  712POPI   D2A 7946   1.867   5.420   7.119  0.3267  0.2428  0.1558
  712POPI   C3A 7947   2.075   5.292   7.307  0.1085  0.2802 -0.1178
  712POPI   C4A 7948   2.413   5.183   6.989  0.0575  0.2503 -0.0225
  712POPI   C1B 7949   1.748   4.741   6.955 -0.3534  0.1302  0.1898
  712POPI   C2B 7950   1.749   4.910   7.346 -0.0560 -0.0171 -0.4784
  712POPI   C3B 7951   1.789   4.993   7.817  0.1988  0.0501  0.0476
  712POPI   C4B 7952   2.044   5.017   8.225  0.4620 -0.2616 -0.2264
  713POPI    C1 7953   4.140   0.970   6.127  0.0956 -0.3675  0.0493
  713POPI    C2 7954   4.184   0.661   5.877  0.0764 -0.1698 -0.2013
  713POPI    C3 7955   4.195   1.036   5.737 -0.1884 -0.0617  0.0560
  713POPI   PO4 7956   4.318   0.976   6.464 -0.3424  0.3745  0.0227
  713POPI   GL1 7957   4.245   0.892   6.870  0.1683 -0.2285  0.1486
  713POPI   GL2 7958   4.385   0.721   7.026  0.1509  0.1772 -0.0719
  713POPI   C1A 7959   4.057   1.118   7.159 -0.0877 -0.0199  0.0974
  713POPI   D2A 7960   3.810   1.273   7.518  0.0071  0.0155  0.0380
  713POPI   C3A 7961   3.921   1.147   7.945 -0.1901  0.0117 -0.0298
  713POPI   C4A 7962   4.089   1.185   8.418  0.1926 -0.3990 -0.1881
  713POPI   C1B 7963   4.614   0.861   7.399 -0.1320  0.0080 -0.0562
  713POPI   C2B 7964   4.712   0.941   7.774  0.1009  0.0760 -0.2315
  713POPI   C3B 7965   4.892   0.965   8.185 -0.0630  0.2142 -0.0126
  713POPI   C4B 7966   5.138   1.081   8.529 -0.4332  0.3620  0.0669
  714POPI    C1 7967  12.760   5.529   5.678  0.0089 -0.2287 -0.0049
  714POPI    C2 7968  12.841   5.294   5.365  0.2001 -0.1237 -0.0357
  714POPI    C3 7969  12.611   5.159   5.662  0.1221 -0.2686 -0.1609
  714POPI   PO4 7970  12.916   5.660   5.734 -0.5315  0.1028  0.1097
  714POPI   GL1 7971  13.019   5.857   6.120 -0.0132 -0.0127  0.0311
  714POPI   GL2 7972  13.025   5.536   6.248 -0.0388  0.4778 -0.2674
  714POPI   C1A 7973  13.467   5.917   6.482  0.1056 -0.2343  0.0711
  714POPI   D2A 7974  13.634   6.080   6.830 -0.0193 -0.1847 -0.0055
  714POPI   C3A 7975  13.566   6.344   7.140  0.2482  0.0753 -0.0799
  714POPI   C4A 7976  13.277   6.497   7.471  0.0596  0.2238  0.0373
  714POPI   C1B 7977  13.407   5.477   6.232  0.0406  0.1290 -0.2175
  714POPI   C2B 7978  13.809   5.519   6.411  0.0311  0.1046 -0.2186
  714POPI   C3B 7979  14.058   5.920   6.537 -0.0151  0.1553 -0.1607
  714POPI   C4B 7980  14.163   6.071   6.986  0.2406 -0.3892 -0.0387
  715POPI    C1 7981   3.014  16.071   6.492 -0.0881  0.2066  0.0639
  715POPI    C2 7982   3.040  16.423   6.304 -0.0339  0.0205 -0.2879
  715POPI    C3 7983   2.857  16.115   6.126  0.0533 -0.1733 -0.0479
  715POPI   PO4 7984   2.936  16.080   6.744  0.2354  0.0464 -0.1700
  715POPI   GL1 7985   2.840  16.013   7.230 -0.0540  0.0407  0.0416
  715POPI   GL2 7986   2.983  15.688   7.084 -0.1523 -0.4384  0.0785
  715POPI   C1A 7987   2.950  16.008   7.728 -0.2096 -0.1933 -0.3999
  715POPI   D2A 7988   3.086  16.178   8.064 -0.0141  0.1030 -0.0326
  715POPI   C3A 7989   3.273  16.542   8.129 -0.1332  0.2345  0.0237
  715POPI   C4A 7990   3.667  16.693   8.250 -0.0187 -0.0472  0.1208
  715POPI   C1B 7991   3.197  15.519   7.529  0.0308 -0.0752 -0.0999
  715POPI   C2B 7992   3.274  15.681   7.937  0.1664 -0.0293  0.2354
  715POPI   C3B 7993   3.239  15.821   8.336 -0.0409 -0.1378 -0.1964
  715POPI   C4B 7994   3.011  15.986   8.687  0.0306 -0.0099  0.2532
  716POPI    C1 7995   1.961   5.917   5.880  0.1178  0.0866  0.0466
  716POPI    C2 7996   2.120   5.596   5.702  0.0774  0.0868  0.0099
  716POPI    C3 7997   2.189   5.961   5.554  0.0218  0.0848 -0.0214
  716POPI   PO4 7998   1.602   5.866   5.882  0.0639 -0.1137  0.2157
  716POPI   GL1 7999   1.305   6.011   6.346 -0.0479 -0.1198 -0.1724
  716POPI   GL2 8000   1.208   5.707   6.394 -0.0272  0.2438  0.0881
  716POPI   C1A 8001   1.605   6.081   6.664 -0.0383  0.1145  0.2743
  716POPI   D2A 8002   1.818   6.288   7.059  0.0896 -0.1145 -0.0702
  716POPI   C3A 8003   1.801   6.227   7.502  0.1625 -0.0927  0.1784
  716POPI   C4A 8004   1.806   6.170   7.906 -0.3853 -0.1667 -0.1662
  716POPI   C1B 8005   1.090   5.983   6.825 -0.0069  0.1650  0.2234
  716POPI   C2B 8006   0.838   6.011   7.184 -0.1034  0.4738  0.0513
  716POPI   C3B 8007   0.513   6.144   7.279  0.0092  0.2924 -0.3144
  716POPI   C4B 8008   0.305   6.371   7.619  0.1093 -0.1141  0.1541
  717POPI    C1 8009   1.686  18.343   6.461  0.0158 -0.0867 -0.3483
  717POPI    C2 8010   1.837  18.025   6.650  0.0194 -0.0412 -0.2739
  717POPI    C3 8011   2.013  18.163   6.319  0.2326  0.1057 -0.1016
  717POPI   PO4 8012   1.553  18.479   6.709 -0.0548 -0.2441 -0.0094
  717POPI   GL1 8013   1.350  18.566   7.221 -0.0413  0.3168  0.0432
  717POPI   GL2 8014   1.314  18.851   7.022  0.2745 -0.1652 -0.3186
  717POPI   C1A 8015   1.337  18.601   7.639 -0.2403  0.2095 -0.1874
  717POPI   D2A 8016   1.318  18.670   8.081  0.0084 -0.2432 -0.0314
  717POPI   C3A 8017   1.410  18.339   8.385 -0.2371 -0.1753 -0.0504
  717POPI   C4A 8018   1.640  18.232   8.800 -0.1490  0.0800  0.2200
  717POPI   C1B 8019   1.134  19.008   7.333 -0.2788  0.2276  0.2013
  717POPI   C2B 8020   0.938  18.936   7.833  0.0715  0.0667 -0.0644
  717POPI   C3B 8021   0.759  19.014   8.250 -0.1434 -0.0531 -0.0423
  717POPI   C4B 8022   0.482  18.822   8.547 -0.2299  0.3371  0.1766
  718POPI    C1 8023  11.178   1.860   5.822 -0.0737  0.1010  0.3254
  718POPI    C2 8024  11.164   1.544   5.577  0.1482 -0.0370  0.4863
  718POPI    C3 8025  10.879   1.825   5.558  0.2661  0.0573 -0.0624
  718POPI   PO4 8026  11.315   1.778   6.002  0.0238  0.0480 -0.1473
  718POPI   GL1 8027  11.248   1.639   6.368  0.0476  0.2227 -0.1183
  718POPI   GL2 8028  10.914   1.666   6.451  0.0071 -0.0300  0.0829
  718POPI   C1A 8029  11.273   1.261   6.673  0.0258  0.0880  0.0487
  718POPI   D2A 8030  11.372   1.247   7.100  0.1798 -0.1730  0.1890
  718POPI   C3A 8031  11.405   1.376   7.542 -0.0145  0.0889 -0.1172
  718POPI   C4A 8032  11.191   1.238   7.856  0.2875 -0.0728 -0.0684
  718POPI   C1B 8033  11.015   1.864   6.765 -0.2320  0.1234 -0.4229
  718POPI   C2B 8034  10.928   2.054   7.099 -0.4086 -0.0464  0.1054
  718POPI   C3B 8035  10.590   1.868   7.433  0.1033  0.3643  0.2273
  718POPI   C4B 8036  10.348   1.688   7.796 -0.2052 -0.0851 -0.1683
  719POPI    C1 8037  15.665   5.304   5.550 -0.2169 -0.3178 -0.0428
  719POPI    C2 8038  16.037   5.208   5.440 -0.1924 -0.1544 -0.1054
  719POPI    C3 8039  15.735   5.172   5.179 -0.2008 -0.1690 -0.0935
  719POPI   PO4 8040  15.631   5.262   5.823  0.2017  0.4020 -0.0843
  719POPI   GL1 8041  15.791   5.295   6.221  0.1342 -0.2727 -0.0602
  719POPI   GL2 8042  15.854   5.621   6.195 -0.0680 -0.3445  0.2868
  719POPI   C1A 8043  15.906   5.137   6.624  0.2324  0.1744 -0.0511
  719POPI   D2A 8044  16.123   5.244   6.959  0.1286  0.2254 -0.1028
  719POPI   C3A 8045  16.129   5.561   7.376  0.0027 -0.1486 -0.0127
  719POPI   C4A 8046  16.336   5.863   7.518 -0.0210 -0.0444 -0.1830
  719POPI   C1B 8047  15.747   5.612   6.673  0.0719 -0.2332  0.0440
  719POPI   C2B 8048  15.640   5.583   7.154 -0.0365  0.3866  0.1724
  719POPI   C3B 8049  15.426   5.754   7.503  0.2049 -0.0656  0.0513
  719POPI   C4B 8050  15.447   5.711   7.892  0.1014  0.1470  0.1450
  720POPI    C1 8051   1.251   9.970   5.442  0.2644 -0.0073  0.0679
  720POPI    C2 8052   1.106   9.661   5.234  0.3177 -0.1421  0.2288
  720POPI    C3 8053   1.367   9.911   5.064  0.0762 -0.0316  0.0126
  720POPI   PO4 8054   1.215   9.888   5.677  0.2996  0.0306  0.0023
  720POPI   GL1 8055   1.339  10.105   6.063  0.1862 -0.2731  0.0159
  720POPI   GL2 8056   1.190   9.985   6.266 -0.2163 -0.1177  0.1535
  720POPI   C1A 8057   1.393  10.294   6.525  0.2109  0.3187 -0.0901
  720POPI   D2A 8058   1.771  10.467   6.821  0.2061  0.0103 -0.0542
  720POPI   C3A 8059   1.955  10.299   7.201  0.2399  0.2554 -0.2564
  720POPI   C4A 8060   1.912  10.223   7.660  0.2480  0.1370  0.0972
  720POPI   C1B 8061   0.895  10.177   6.314 -0.2431 -0.0560 -0.1428
  720POPI   C2B 8062   0.624  10.198   6.708 -0.2154  0.2899  0.0910
  720POPI   C3B 8063   0.552  10.108   7.107  0.3679  0.1408  0.2006
  720POPI   C4B 8064   0.415  10.377   7.578  0.1452 -0.0973 -0.1735
  721POPI    C1 8065   3.087   4.943   6.312 -0.0942 -0.1167  0.0628
  721POPI    C2 8066   2.988   4.831   5.941  0.0594  0.1340 -0.0569
  721POPI    C3 8067   3.366   4.793   6.067  0.0298  0.1488  0.0371
  721POPI   PO4 8068   2.960   4.752   6.528  0.0922  0.1230  0.1843
  721POPI   GL1 8069   2.861   4.761   6.925 -0.0177 -0.0309  0.0007
  721POPI   GL2 8070   2.803   4.506   7.103  0.0003  0.2940  0.0765
  721POPI   C1A 8071   2.874   5.032   7.172 -0.0915 -0.2076  0.2904
  721POPI   D2A 8072   2.619   5.376   7.399 -0.1782  0.1533  0.1383
  721POPI   C3A 8073   2.593   5.518   7.788  0.1958  0.3606 -0.3625
  721POPI   C4A 8074   2.736   5.398   8.118  0.0911 -0.1129  0.0864
  721POPI   C1B 8075   3.068   4.565   7.410 -0.0769  0.0646 -0.0403
  721POPI   C2B 8076   3.367   4.538   7.837  0.1219  0.3281 -0.1936
  721POPI   C3B 8077   3.545   4.607   8.220  0.0750  0.0287  0.2775
  721POPI   C4B 8078   3.684   4.690   8.651  0.2592 -0.1038 -0.2386
  722POPI    C1 8079  11.772  13.588   6.493 -0.1641  0.0460 -0.4099
  722POPI    C2 8080  11.934  13.579   6.127  0.2090  0.1497 -0.2515
  722POPI    C3 8081  12.158  13.680   6.443 -0.0498 -0.1627  0.0395
  722POPI   PO4 8082  11.530  13.431   6.380 -0.2113  0.2121 -0.1301
  722POPI   GL1 8083  11.606  13.160   6.743 -0.4134  0.3432  0.1129
  722POPI   GL2 8084  11.451  13.393   6.878  0.4663  0.1485  0.0360
  722POPI   C1A 8085  11.816  13.088   7.183  0.3822 -0.1308  0.1551
  722POPI   D2A 8086  11.663  13.073   7.571 -0.0128  0.0650 -0.1865
  722POPI   C3A 8087  11.671  13.358   7.889  0.0900 -0.0452 -0.0654
  722POPI   C4A 8088  11.766  13.545   8.369  0.1010 -0.0536  0.2067
  722POPI   C1B 8089  11.409  13.389   7.265  0.3087 -0.1028  0.5002
  722POPI   C2B 8090  11.178  13.373   7.738 -0.1399 -0.1030  0.3527
  722POPI   C3B 8091  11.236  13.057   7.992  0.0685 -0.1049  0.1119
  722POPI   C4B 8092  11.580  12.796   8.092  0.0976  0.0755 -0.1252
  723POPI    C1 8093   0.692   4.328   5.748  0.3096 -0.2348  0.0534
  723POPI    C2 8094   0.411   4.151   5.525  0.1248 -0.0840  0.1637
  723POPI    C3 8095   0.672   4.403   5.356 -0.0146  0.0297  0.1159
  723POPI   PO4 8096   0.654   4.143   6.059  0.0170 -0.3969  0.1270
  723POPI   GL1 8097   0.888   3.803   6.348 -0.0453  0.0350  0.0261
  723POPI   GL2 8098   0.757   3.491   6.506  0.0225  0.4686  0.0413
  723POPI   C1A 8099   0.950   3.885   6.824 -0.0705 -0.3283 -0.0358
  723POPI   D2A 8100   0.896   4.248   7.106 -0.5179 -0.3496  0.1792
  723POPI   C3A 8101   0.996   4.147   7.516  0.1813 -0.0667 -0.2540
  723POPI   C4A 8102   0.953   4.063   7.906 -0.4387  0.1276  0.2170
  723POPI   C1B 8103   1.022   3.340   6.870  0.2008  0.2395 -0.0941
  723POPI   C2B 8104   1.301   3.292   7.224  0.1167 -0.0252  0.1000
  723POPI   C3B 8105   1.352   3.117   7.605 -0.3104  0.2057  0.4521
  723POPI   C4B 8106   0.993   3.057   7.857 -0.1352 -0.5855 -0.1283
  724POPI    C1 8107  12.854   3.725   5.858 -0.0209  0.1932 -0.1796
  724POPI    C2 8108  12.485   3.769   5.708 -0.0690  0.0344 -0.1098
  724POPI    C3 8109  12.805   3.815   5.472 -0.1251  0.3903 -0.1224
  724POPI   PO4 8110  12.827   3.874   6.146  0.0742  0.1125 -0.4077
  724POPI   GL1 8111  12.965   3.921   6.534  0.2617  0.2775  0.0311
  724POPI   GL2 8112  13.324   4.011   6.631 -0.1526 -0.4101 -0.1033
  724POPI   C1A 8113  12.712   3.584   6.700  0.0679  0.0873 -0.1450
  724POPI   D2A 8114  12.713   3.386   6.985  0.0679  0.0510 -0.0858
  724POPI   C3A 8115  12.641   3.386   7.311 -0.2898  0.4396 -0.1206
  724POPI   C4A 8116  12.723   3.312   7.795 -0.0141  0.2820 -0.1625
  724POPI   C1B 8117  13.371   4.144   6.982  0.0132  0.0511  0.1998
  724POPI   C2B 8118  13.326   4.030   7.452 -0.1114 -0.1963  0.2547
  724POPI   C3B 8119  13.470   4.283   7.821  0.0320 -0.0255 -0.0991
  724POPI   C4B 8120  13.765   4.357   8.028 -0.0289 -0.1660 -0.1746
  725POPI    C1 8121  13.673   9.165   5.503  0.1691  0.1746  0.1159
  725POPI    C2 8122  13.843   9.426   5.754  0.0641  0.2040  0.1571
  725POPI    C3 8123  13.958   9.412   5.371  0.2220  0.1620  0.2052
  725POPI   PO4 8124  13.635   8.948   5.768 -0.0179  0.3255  0.0323
  725POPI   GL1 8125  13.470   8.905   6.152 -0.0088 -0.0576 -0.0263
  725POPI   GL2 8126  13.361   9.084   6.320  0.0104  0.1229 -0.1098
  725POPI   C1A 8127  13.656   8.514   6.279  0.1896  0.0582 -0.1387
  725POPI   D2A 8128  13.957   8.377   6.591  0.3002 -0.1044 -0.1631
  725POPI   C3A 8129  14.026   8.443   6.975 -0.0417 -0.3378 -0.3155
  725POPI   C4A 8130  14.277   8.860   7.149 -0.1512  0.1498  0.0853
  725POPI   C1B 8131  13.738   8.966   6.549  0.1182 -0.3380 -0.0881
  725POPI   C2B 8132  13.793   8.968   7.024  0.1318 -0.0163 -0.1248
  725POPI   C3B 8133  13.765   8.853   7.414 -0.5585  0.1171  0.0980
  725POPI   C4B 8134  13.960   8.812   7.817 -0.0163 -0.1997 -0.0055
  726POPI    C1 8135  13.252  16.171   6.235  0.1132 -0.1173 -0.0258
  726POPI    C2 8136  13.402  16.455   5.997 -0.0541  0.1466  0.1771
  726POPI    C3 8137  13.645  16.184   6.162  0.0911  0.0944 -0.1144
  726POPI   PO4 8138  13.072  16.233   6.408  0.0661 -0.2016  0.0707
  726POPI   GL1 8139  13.065  16.590   6.692  0.2072 -0.0985 -0.0882
  726POPI   GL2 8140  12.632  16.486   6.642  0.7126 -0.3130 -0.3148
  726POPI   C1A 8141  12.830  16.731   7.012  0.1693 -0.0957  0.1475
  726POPI   D2A 8142  12.784  16.710   7.419 -0.0911  0.2316 -0.2822
  726POPI   C3A 8143  12.777  16.654   7.804  0.3725 -0.1424  0.2769
  726POPI   C4A 8144  12.594  16.797   8.168  0.2157 -0.0622  0.0563
  726POPI   C1B 8145  12.416  16.389   6.972 -0.1732  0.0365 -0.3370
  726POPI   C2B 8146  12.420  16.367   7.442 -0.0623 -0.3251  0.0230
  726POPI   C3B 8147  12.274  16.295   7.795  0.0236  0.1499  0.1501
  726POPI   C4B 8148  12.467  16.306   8.188  0.1181  0.0515  0.1225
  727POPI    C1 8149   9.258   0.346   6.046 -0.2190 -0.0641  0.1982
  727POPI    C2 8150   9.303   0.743   6.062 -0.1945 -0.0487 -0.1742
  727POPI    C3 8151   9.291   0.557   5.708  0.0105 -0.4061  0.0007
  727POPI   PO4 8152   9.135   0.219   6.182  0.2780 -0.0002  0.1834
  727POPI   GL1 8153   9.026   0.331   6.572  0.1415  0.0799  0.1570
  727POPI   GL2 8154   8.813   0.591   6.434 -0.2843  0.3246  0.0003
  727POPI   C1A 8155   8.890   0.487   6.937 -0.2431  0.2072 -0.0002
  727POPI   D2A 8156   8.563   0.447   7.235 -0.1718  0.1020 -0.1243
  727POPI   C3A 8157   8.525   0.775   7.560 -0.0956  0.1257 -0.0273
  727POPI   C4A 8158   8.521   1.158   7.549  0.4436 -0.1310 -0.0298
  727POPI   C1B 8159   8.458   0.600   6.691 -0.1248  0.0197  0.1700
  727POPI   C2B 8160   8.042   0.407   6.924 -0.0231 -0.2681 -0.0262
  727POPI   C3B 8161   8.082   0.551   7.353  0.0266  0.1883 -0.0742
  727POPI   C4B 8162   7.757   0.557   7.446 -0.0269 -0.1914 -0.0265
  728POPI    C1 8163   8.429   3.696   5.581  0.0252  0.1084 -0.2054
  728POPI    C2 8164   8.282   4.027   5.751  0.1574  0.1077 -0.0881
  728POPI    C3 8165   8.468   4.049   5.397  0.0154  0.1323 -0.1618
  728POPI   PO4 8166   8.163   3.525   5.623  0.2243  0.0614 -0.1418
  728POPI   GL1 8167   7.886   3.771   5.896  0.1783  0.2343 -0.2524
  728POPI   GL2 8168   7.771   3.427   5.988 -0.1189  0.0343 -0.2483
  728POPI   C1A 8169   7.769   3.825   6.285  0.2737 -0.2671 -0.1587
  728POPI   D2A 8170   7.733   3.725   6.787 -0.2451 -0.4795 -0.0884
  728POPI   C3A 8171   7.633   3.778   7.152  0.1113 -0.0269  0.0142
  728POPI   C4A 8172   7.663   3.601   7.545 -0.0332 -0.0203  0.3387
  728POPI   C1B 8173   7.426   3.508   6.248  0.2229 -0.0245 -0.0876
  728POPI   C2B 8174   7.284   3.796   6.591  0.3098  0.1152  0.2217
  728POPI   C3B 8175   7.165   3.711   6.979  0.0571 -0.0826  0.0104
  728POPI   C4B 8176   7.156   3.633   7.392 -0.0206  0.1282  0.0572
  729POPI    C1 8177  11.021   2.383   5.893 -0.2062  0.3858 -0.0030
  729POPI    C2 8178  10.661   2.301   5.738 -0.0902 -0.0771 -0.0406
  729POPI    C3 8179  10.977   2.342   5.497 -0.0497 -0.0401  0.0187
  729POPI   PO4 8180  10.941   2.589   6.205  0.1563 -0.0577 -0.0807
  729POPI   GL1 8181  10.727   2.797   6.449 -0.2547 -0.3287  0.3998
  729POPI   GL2 8182  10.505   2.993   6.466  0.0284  0.0938 -0.0613
  729POPI   C1A 8183  11.009   2.784   6.884  0.0197 -0.1039 -0.1479
  729POPI   D2A 8184  10.851   2.821   7.228 -0.1130 -0.2549 -0.1507
  729POPI   C3A 8185  10.748   2.679   7.670  0.0860  0.0266 -0.2346
  729POPI   C4A 8186  10.878   2.585   8.120 -0.2078  0.1395 -0.2940
  729POPI   C1B 8187  10.438   3.137   6.805 -0.0024  0.1550  0.2028
  729POPI   C2B 8188  10.424   3.123   7.269 -0.3014  0.0469 -0.4115
  729POPI   C3B 8189  10.180   2.810   7.528 -0.3164 -0.1807 -0.0110
  729POPI   C4B 8190   9.792   2.637   7.537 -0.1012  0.0978 -0.0676
  730POPI    C1 8191  10.352   3.039   5.989 -0.0823  0.0713 -0.0878
  730POPI    C2 8192  10.505   2.670   6.000  0.0508  0.1322  0.1778
  730POPI    C3 8193  10.408   2.835   5.649 -0.1599 -0.2146  0.0681
  730POPI   PO4 8194  10.148   3.080   6.160  0.1544  0.3201 -0.0952
  730POPI   GL1 8195   9.728   2.947   6.226  0.0199 -0.1818 -0.0282
  730POPI   GL2 8196   9.474   2.761   6.032  0.1171  0.1622  0.1588
  730POPI   C1A 8197   9.662   3.215   6.582  0.1540  0.2200  0.0083
  730POPI   D2A 8198   9.358   3.399   6.756 -0.0681 -0.1265 -0.1369
  730POPI   C3A 8199   9.474   3.397   7.163  0.2193 -0.0512 -0.1957
  730POPI   C4A 8200   9.273   3.519   7.574 -0.1867  0.2313 -0.1653
  730POPI   C1B 8201   9.226   3.012   6.376  0.1441  0.0458  0.2682
  730POPI   C2B 8202   8.779   3.055   6.357 -0.0756 -0.0427  0.0581
  730POPI   C3B 8203   8.536   3.350   6.409  0.2554 -0.2765 -0.3446
  730POPI   C4B 8204   8.253   3.592   6.238 -0.1938 -0.0472 -0.0171
  731POPI    C1 8205   1.808   1.379   6.196  0.0889  0.1437  0.1080
  731POPI    C2 8206   1.454   1.327   6.017  0.1131  0.0488  0.0872
  731POPI    C3 8207   1.690   1.632   5.910  0.2603 -0.1798 -0.2584
  731POPI   PO4 8208   1.778   1.429   6.569  0.0777 -0.3714  0.2232
  731POPI   GL1 8209   1.643   1.736   6.791  0.1996 -0.1808  0.0134
  731POPI   GL2 8210   1.814   2.091   6.870  0.1936 -0.2869  0.5628
  731POPI   C1A 8211   1.479   1.796   7.223  0.3047  0.0708  0.1683
  731POPI   D2A 8212   1.335   1.769   7.623  0.2436 -0.0312  0.2778
  731POPI   C3A 8213   1.323   1.880   7.960  0.1884  0.0114 -0.2264
  731POPI   C4A 8214   1.147   1.826   8.307  0.0754 -0.0338 -0.0545
  731POPI   C1B 8215   1.605   2.279   7.187  0.1837  0.1272 -0.2827
  731POPI   C2B 8216   1.578   2.239   7.677  0.1073  0.0843 -0.1478
  731POPI   C3B 8217   1.672   2.547   8.009 -0.0265 -0.0334 -0.0205
  731POPI   C4B 8218   1.417   2.917   8.107  0.2558 -0.3650  0.0456
  732POPI    C1 8219   3.723   7.127   5.707 -0.0133  0.2951  0.1999
  732POPI    C2 8220   4.021   7.391   5.672  0.3256 -0.0663  0.2885
  732POPI    C3 8221   4.062   7.074   5.912 -0.1456 -0.1070  0.3243
  732POPI   PO4 8222   3.530   7.257   5.917 -0.0136  0.0861  0.2481
  732POPI   GL1 8223   3.427   7.429   6.332 -0.0659  0.0820  0.0899
  732POPI   GL2 8224   3.143   7.519   6.434 -0.1065 -0.0143  0.0879
  732POPI   C1A 8225   3.480   7.303   6.678  0.0936 -0.1044 -0.0334
  732POPI   D2A 8226   3.266   7.369   7.014  0.1904  0.1805 -0.0442
  732POPI   C3A 8227   3.297   7.159   7.517  0.0942  0.2465 -0.0001
  732POPI   C4A 8228   3.153   7.168   7.883 -0.0467 -0.2750  0.3937
  732POPI   C1B 8229   3.043   7.785   6.772 -0.0512 -0.2316  0.1256
  732POPI   C2B 8230   2.799   8.091   6.954 -0.1160  0.1010  0.0302
  732POPI   C3B 8231   2.647   8.148   7.309 -0.2609  0.1477  0.3041
  732POPI   C4B 8232   2.955   8.216   7.595  0.0696 -0.0776  0.0701
  733POPI    C1 8233   4.234   3.212   6.259  0.1412  0.1749  0.0561
  733POPI    C2 8234   4.128   3.493   5.994 -0.0401 -0.0714 -0.1368
  733POPI    C3 8235   4.390   3.208   5.891  0.2544  0.1061  0.1043
  733POPI   PO4 8236   3.959   3.111   6.396  0.1523 -0.0760 -0.1148
  733POPI   GL1 8237   3.955   2.871   6.813  0.2574 -0.2397 -0.2618
  733POPI   GL2 8238   3.725   3.009   6.870 -0.0071 -0.0978  0.3880
  733POPI   C1A 8239   4.054   2.853   7.215  0.0009  0.1260 -0.1372
  733POPI   D2A 8240   3.977   2.749   7.653 -0.0486  0.4791 -0.1317
  733POPI   C3A 8241   3.734   2.634   7.970  0.2084 -0.1333  0.2436
  733POPI   C4A 8242   3.416   2.456   8.015  0.0909  0.1590 -0.1675
  733POPI   C1B 8243   3.491   2.982   7.152 -0.1325  0.0494  0.0147
  733POPI   C2B 8244   3.403   2.830   7.516 -0.0685 -0.0964 -0.0650
  733POPI   C3B 8245   3.198   2.901   7.913 -0.1311  0.4528  0.1987
  733POPI   C4B 8246   2.928   2.760   8.167  0.1344  0.1516  0.1906
  734POPI    C1 8247   4.340  15.724   6.173 -0.1457  0.1026  0.0289
  734POPI    C2 8248   4.617  15.639   5.897 -0.0545 -0.0591  0.1685
  734POPI    C3 8249   4.333  15.371   5.985 -0.0737 -0.0145  0.2429
  734POPI   PO4 8250   4.548  15.734   6.392  0.0396  0.2210 -0.0244
  734POPI   GL1 8251   4.551  15.988   6.699 -0.1797 -0.2020 -0.0402
  734POPI   GL2 8252   4.235  16.024   6.673 -0.3014  0.2033 -0.0783
  734POPI   C1A 8253   4.727  16.075   7.077 -0.1388  0.0974  0.2749
  734POPI   D2A 8254   4.652  15.924   7.562 -0.1436  0.3296 -0.2346
  734POPI   C3A 8255   4.935  15.936   7.958  0.1724 -0.1175 -0.1139
  734POPI   C4A 8256   4.997  15.707   8.270 -0.2255  0.1628  0.0969
  734POPI   C1B 8257   4.244  15.929   7.176 -0.1075 -0.3551  0.1996
  734POPI   C2B 8258   4.188  15.662   7.486 -0.2505  0.2235 -0.3141
  734POPI   C3B 8259   4.097  15.458   7.816 -0.5064 -0.2200 -0.2191
  734POPI   C4B 8260   4.290  15.319   8.184 -0.2604 -0.0047  0.1990
  735POPI    C1 8261   2.225   6.742   5.747 -0.0931  0.0177 -0.1124
  735POPI    C2 8262   2.209   6.348   5.813 -0.1250  0.0131 -0.1476
  735POPI    C3 8263   2.512   6.563   5.961 -0.1394 -0.0148 -0.0772
  735POPI   PO4 8264   1.944   6.826   5.910 -0.0288 -0.3228 -0.3992
  735POPI   GL1 8265   1.893   6.943   6.419 -0.0855  0.3479 -0.3697
  735POPI   GL2 8266   1.786   6.681   6.657  0.1276 -0.1564  0.1937
  735POPI   C1A 8267   2.011   7.289   6.427 -0.0901  0.2651 -0.0424
  735POPI   D2A 8268   2.131   7.512   6.790  0.3112 -0.0227  0.1630
  735POPI   C3A 8269   2.207   7.526   7.187  0.0815 -0.1853  0.1625
  735POPI   C4A 8270   2.132   7.354   7.493  0.1093 -0.0369  0.1262
  735POPI   C1B 8271   1.666   6.701   7.182  0.1329  0.7339  0.2314
  735POPI   C2B 8272   1.546   6.644   7.552 -0.1820  0.4141 -0.1543
  735POPI   C3B 8273   1.660   6.733   7.996 -0.2627  0.0057  0.2342
  735POPI   C4B 8274   1.567   6.640   8.391  0.1344 -0.0713 -0.3245
  736POPI    C1 8275   3.174   0.675   6.449  0.1609  0.2171 -0.0960
  736POPI    C2 8276   2.807   0.780   6.568  0.0583  0.0246 -0.2372
  736POPI    C3 8277   2.983   0.977   6.269  0.0560  0.0945 -0.1927
  736POPI   PO4 8278   3.352   0.721   6.634  0.0609  0.0150  0.1320
  736POPI   GL1 8279   3.160   0.970   6.964 -0.1165  0.0509 -0.2262
  736POPI   GL2 8280   3.025   0.653   7.041  0.0784  0.0216  0.1376
  736POPI   C1A 8281   3.384   1.062   7.387  0.0190 -0.1448  0.0226
  736POPI   D2A 8282   3.405   1.136   7.849 -0.2146 -0.3285 -0.2577
  736POPI   C3A 8283   3.106   1.441   8.084  0.0444  0.1159 -0.1683
  736POPI   C4A 8284   2.699   1.371   8.387 -0.2975 -0.0168 -0.2804
  736POPI   C1B 8285   3.239   0.590   7.427  0.0161 -0.0404 -0.1483
  736POPI   C2B 8286   3.472   0.633   7.763  0.0376 -0.2216  0.1816
  736POPI   C3B 8287   3.701   0.594   8.135 -0.1309 -0.0204  0.0212
  736POPI   C4B 8288   4.021   0.361   8.282  0.1669 -0.1684 -0.0486
  737POPI    C1 8289  14.874   2.898   5.656 -0.0087 -0.0386 -0.3530
  737POPI    C2 8290  15.043   3.238   5.529 -0.0801  0.0806 -0.1326
  737POPI    C3 8291  14.730   3.085   5.333  0.0064  0.0947 -0.2833
  737POPI   PO4 8292  15.027   2.907   5.916 -0.1390  0.2888  0.2108
  737POPI   GL1 8293  14.992   3.212   6.218 -0.0099 -0.0312 -0.1279
  737POPI   GL2 8294  15.268   3.419   6.474 -0.1225 -0.5301  0.6310
  737POPI   C1A 8295  15.006   3.038   6.660 -0.1896 -0.3554  0.3920
  737POPI   D2A 8296  15.091   3.062   7.097 -0.0073 -0.0809  0.6561
  737POPI   C3A 8297  14.890   3.083   7.449 -0.0049  0.1762 -0.1081
  737POPI   C4A 8298  14.805   3.000   7.936 -0.0901  0.3123 -0.1269
  737POPI   C1B 8299  15.135   3.467   6.934 -0.0584 -0.0456 -0.0722
  737POPI   C2B 8300  15.300   3.718   7.283  0.1798  0.1386 -0.0140
  737POPI   C3B 8301  15.280   3.820   7.651 -0.3607  0.0997 -0.5550
  737POPI   C4B 8302  15.084   4.280   7.881  0.2010 -0.0707 -0.1939
  738POPI    C1 8303  18.027   4.399   5.662  0.3009 -0.1094  0.1132
  738POPI    C2 8304  18.216   4.739   5.569  0.0331  0.0553  0.1611
  738POPI    C3 8305  17.922   4.604   5.334  0.1750 -0.1741  0.1125
  738POPI   PO4 8306  18.018   4.438   5.998  0.1994 -0.1707 -0.1045
  738POPI   GL1 8307  18.261   4.516   6.377 -0.1441  0.2466  0.2773
  738POPI   GL2 8308  18.568   4.481   6.475 -0.1614  0.1958 -0.0726
  738POPI   C1A 8309  18.014   4.668   6.732 -0.1138 -0.0967  0.2176
  738POPI   D2A 8310  18.016   4.613   7.194 -0.0264 -0.4212  0.2508
  738POPI   C3A 8311  18.186   4.963   7.467  0.0627  0.2166  0.2197
  738POPI   C4A 8312  18.227   5.178   7.829  0.1593  0.1459  0.0343
  738POPI   C1B 8313  18.470   4.672   6.918 -0.2494 -0.0328  0.1159
  738POPI   C2B 8314  18.524   4.551   7.365  0.0376 -0.2113  0.2223
  738POPI   C3B 8315  18.685   4.827   7.682 -0.0815 -0.1324 -0.0666
  738POPI   C4B 8316  18.687   4.694   8.051  0.2313 -0.2311 -0.0964
  739POPS   CNO 8317   7.931   4.950   5.845  0.0797  0.0369 -0.0457
  739POPS   PO4 8318   7.581   4.735   5.744 -0.1010 -0.0760  0.1291
  739POPS   GL1 8319   7.408   4.626   6.108 -0.1304 -0.3121  0.0717
  739POPS   GL2 8320   7.086   4.705   6.145 -0.2356 -0.1012  0.1143
  739POPS   C1A 8321   7.654   4.575   6.508 -0.1917 -0.0129  0.0262
  739POPS   D2A 8322   7.274   4.795   6.877  0.1674 -0.1992  0.0425
  739POPS   C3A 8323   7.169   4.729   7.331 -0.0056 -0.3512 -0.0595
  739POPS   C4A 8324   7.048   4.826   7.846 -0.1565 -0.0930  0.1035
  739POPS   C1B 8325   7.125   4.454   6.588  0.1938  0.1160 -0.0616
  739POPS   C2B 8326   7.164   4.233   6.973  0.0748 -0.1001 -0.1023
  739POPS   C3B 8327   7.238   4.218   7.390  0.1499 -0.2904 -0.1294
  739POPS   C4B 8328   7.331   4.058   7.711  0.0845  0.1057  0.2384
  740POPS   CNO 8329  13.011   5.098   5.962 -0.0105 -0.0606  0.5122
  740POPS   PO4 8330  12.588   4.845   6.101  0.0792  0.1170  0.1719
  740POPS   GL1 8331  12.507   4.747   6.546 -0.1434 -0.4435  0.1642
  740POPS   GL2 8332  12.391   4.564   6.600  0.1156 -0.0347 -0.0434
  740POPS   C1A 8333  12.652   4.839   6.956  0.2024  0.0881 -0.2402
  740POPS   D2A 8334  12.893   4.847   7.360 -0.0731 -0.2313  0.3895
  740POPS   C3A 8335  12.699   5.119   7.657 -0.0277  0.0859 -0.2742
  740POPS   C4A 8336  12.276   5.363   7.806  0.1187  0.0118  0.0901
  740POPS   C1B 8337  12.246   4.395   6.918  0.1047 -0.2933 -0.1178
  740POPS   C2B 8338  12.060   4.153   7.291 -0.0003  0.0172  0.2022
  740POPS   C3B 8339  12.065   3.865   7.648 -0.0866 -0.1214 -0.5169
  740POPS   C4B 8340  11.923   3.643   8.031  0.1288  0.1349  0.0346
  741POPS   CNO 8341   2.475  13.018   5.698 -0.2496 -0.0438  0.0197
  741POPS   PO4 8342   2.437  12.680   6.050 -0.3725  0.2898 -0.0043
  741POPS   GL1 8343   2.673  12.434   6.506 -0.3577 -0.1499  0.1153
  741POPS   GL2 8344   2.848  12.199   6.600  0.1518  0.1104 -0.2362
  741POPS   C1A 8345   2.811  12.578   7.030  0.0306 -0.0037  0.0663
  741POPS   D2A 8346   2.821  12.548   7.520  0.2442  0.2196  0.2630
  741POPS   C3A 8347   3.225  12.481   7.798  0.3066 -0.3545 -0.0653
  741POPS   C4A 8348   3.583  12.561   8.033  0.0439 -0.4093 -0.2805
  741POPS   C1B 8349   2.643  12.007   7.036  0.0026  0.1850 -0.1369
  741POPS   C2B 8350   2.589  12.119   7.467  0.2069 -0.0015  0.0958
  741POPS   C3B 8351   2.577  12.068   7.854 -0.1416  0.2235 -0.2018
  741POPS   C4B 8352   2.625  11.852   8.165 -0.0304  0.0472  0.0116
  742POPS   CNO 8353  13.022   3.435   6.357 -0.3127 -0.0662 -0.1784
  742POPS   PO4 8354  13.157   3.265   5.974 -0.0970 -0.0027 -0.1248
  742POPS   GL1 8355  13.365   3.070   6.415 -0.4597  0.0843 -0.2493
  742POPS   GL2 8356  13.097   2.838   6.601 -0.1057  0.0097 -0.0416
  742POPS   C1A 8357  13.201   3.285   6.796 -0.0308 -0.1690 -0.3054
  742POPS   D2A 8358  13.182   3.232   7.317  0.1079  0.0438  0.0717
  742POPS   C3A 8359  13.149   3.098   7.628  0.2096  0.1428  0.1579
  742POPS   C4A 8360  13.283   2.765   7.754  0.1658 -0.1239 -0.0174
  742POPS   C1B 8361  13.011   2.883   7.032 -0.4967 -0.0112  0.1137
  742POPS   C2B 8362  13.157   2.597   7.330 -0.0198 -0.1410  0.0221
  742POPS   C3B 8363  13.429   2.401   7.509  0.1951  0.2137 -0.2156
  742POPS   C4B 8364  13.505   2.287   7.930  0.0574  0.0057 -0.1645
  743POPS   CNO 8365   3.476  10.835   5.919 -0.0693  0.1037 -0.1038
  743POPS   PO4 8366   3.116  10.743   6.106  0.1749 -0.2577 -0.1789
  743POPS   GL1 8367   3.063  10.727   6.591  0.0268 -0.4018  0.0863
  743POPS   GL2 8368   2.931  10.982   6.694 -0.1187  0.4401  0.1068
  743POPS   C1A 8369   3.206  10.662   7.077 -0.2953  0.0576  0.3385
  743POPS   D2A 8370   3.466  10.581   7.398 -0.0348  0.0407  0.4003
  743POPS   C3A 8371   3.185  10.249   7.691  0.0254  0.0538  0.0296
  743POPS   C4A 8372   3.287   9.987   8.111  0.1184  0.0848  0.0441
  743POPS   C1B 8373   2.774  10.966   7.182  0.0317  0.0430 -0.0128
  743POPS   C2B 8374   2.575  10.992   7.490 -0.0604 -0.1058  0.0910
  743POPS   C3B 8375   2.404  11.125   7.867 -0.0297  0.0486 -0.0957
  743POPS   C4B 8376   2.337  11.272   8.299  0.4111  0.0761  0.0014
  744POPS   CNO 8377   5.973   1.015   5.919  0.4003  0.1382  0.0384
  744POPS   PO4 8378   5.973   0.493   6.088  0.3952  0.1325  0.3996
  744POPS   GL1 8379   6.023   0.538   6.527 -0.0320  0.3344 -0.0730
  744POPS   GL2 8380   6.353   0.573   6.542 -0.1096 -0.3015  0.0925
  744POPS   C1A 8381   5.894   0.496   6.903  0.1038 -0.0891  0.0595
  744POPS   D2A 8382   5.950   0.439   7.395  0.1372  0.1953  0.0053
  744POPS   C3A 8383   6.082   0.446   7.832  0.4110 -0.4741  0.1618
  744POPS   C4A 8384   5.972   0.604   8.213  0.2074 -0.1381  0.0248
  744POPS   C1B 8385   6.321   0.752   6.915 -0.0213  0.0121  0.1073
  744POPS   C2B 8386   6.504   0.740   7.306 -0.1332 -0.1963  0.0696
  744POPS   C3B 8387   6.726   0.526   7.618  0.2664  0.0126  0.0911
  744POPS   C4B 8388   6.984   0.398   7.888  0.1851  0.2306 -0.2491
  745POPS   CNO 8389   4.930   0.260   6.116  0.0841 -0.0567  0.0600
  745POPS   PO4 8390   4.972   0.517   6.537 -0.1413  0.1886  0.0887
  745POPS   GL1 8391   4.879   0.587   6.953 -0.3781 -0.2276  0.1429
  745POPS   GL2 8392   5.028   0.925   7.077 -0.3238  0.0299 -0.2554
  745POPS   C1A 8393   5.065   0.392   7.357 -0.0366 -0.1009  0.0788
  745POPS   D2A 8394   5.490   0.347   7.565 -0.2535 -0.2800  0.1106
  745POPS   C3A 8395   5.495   0.357   7.947  0.2626  0.2385  0.0806
  745POPS   C4A 8396   5.671   0.018   8.119 -0.2281  0.1690  0.3402
  745POPS   C1B 8397   5.114   0.885   7.453  0.3449  0.0615 -0.2694
  745POPS   C2B 8398   5.089   0.637   7.820 -0.3338  0.0411 -0.1494
  745POPS   C3B 8399   4.991   0.338   8.113 -0.1847 -0.1735 -0.2020
  745POPS   C4B 8400   5.302   0.173   8.459  0.1491  0.0546 -0.1015
  746POPS   CNO 8401   2.016  14.747   6.808  0.2493 -0.0135  0.1591
  746POPS   PO4 8402   2.381  14.868   6.640  0.1495 -0.1293  0.1091
  746POPS   GL1 8403   2.539  15.060   6.968  0.1161 -0.2859  0.0080
  746POPS   GL2 8404   2.829  15.052   7.105  0.2298  0.0477 -0.1878
  746POPS   C1A 8405   2.452  14.943   7.350  0.1309  0.1948 -0.0563
  746POPS   D2A 8406   2.449  14.983   7.724 -0.4248  0.3735 -0.0055
  746POPS   C3A 8407   2.535  15.208   8.119  0.3325  0.4070 -0.2917
  746POPS   C4A 8408   2.728  15.068   8.581  0.2580  0.3913  0.3863
  746POPS   C1B 8409   2.981  15.097   7.545 -0.0954 -0.0122  0.2483
  746POPS   C2B 8410   3.072  15.169   7.984  0.1312  0.1719 -0.1901
  746POPS   C3B 8411   3.218  15.197   8.481 -0.0764  0.2769  0.2801
  746POPS   C4B 8412   3.100  15.472   8.819 -0.0784  0.2666  0.4711
  747POPS   CNO 8413   7.132   3.585   5.389  0.2548 -0.2194 -0.2567
  747POPS   PO4 8414   6.861   3.288   5.455 -0.2260  0.1172 -0.4075
  747POPS   GL1 8415   6.785   3.113   5.834  0.0425 -0.1264 -0.1711
  747POPS   GL2 8416   6.471   3.319   6.102  0.3943 -0.1747  0.0549
  747POPS   C1A 8417   6.931   3.237   6.242  0.1883 -0.0433  0.0639
  747POPS   D2A 8418   6.987   3.389   6.652  0.1963 -0.0395  0.3421
  747POPS   C3A 8419   6.913   3.273   7.152  0.1575  0.2121  0.0055
  747POPS   C4A 8420   6.829   3.372   7.628 -0.0652  0.0204 -0.1360
  747POPS   C1B 8421   6.497   3.377   6.446  0.0774  0.1091 -0.0580
  747POPS   C2B 8422   6.503   3.524   6.923  0.0221  0.0576  0.1932
  747POPS   C3B 8423   6.404   3.372   7.310 -0.1767 -0.0836  0.1007
  747POPS   C4B 8424   6.142   3.120   7.611 -0.2298  0.0120  0.0864
  748POPS   CNO 8425  16.375  12.951   6.426  0.1218  0.1803 -0.0775
  748POPS   PO4 8426  16.151  12.547   6.498  0.3148  0.2243 -0.0162
  748POPS   GL1 8427  16.513  12.621   6.790 -0.0723  0.1582 -0.1163
  748POPS   GL2 8428  16.443  12.675   7.144 -0.0630 -0.1645 -0.1522
  748POPS   C1A 8429  16.857  12.740   6.898 -0.1406  0.0197 -0.1806
  748POPS   D2A 8430  17.262  12.593   7.189 -0.1309  0.4079 -0.0321
  748POPS   C3A 8431  17.233  12.347   7.604  0.4519  0.1719  0.1933
  748POPS   C4A 8432  17.243  12.254   8.154 -0.1842  0.1215 -0.0860
  748POPS   C1B 8433  16.613  12.501   7.498 -0.0211  0.0723  0.2100
  748POPS   C2B 8434  16.493  12.385   7.951  0.2535 -0.2441  0.0508
  748POPS   C3B 8435  16.779  12.481   8.409 -0.2080 -0.1618 -0.1014
  748POPS   C4B 8436  16.898  12.324   8.801 -0.3340  0.1807 -0.0468
  749POPS   CNO 8437  13.911  16.919   6.385 -0.1833 -0.1352  0.0015
  749POPS   PO4 8438  13.532  16.714   6.494  0.1733 -0.4509 -0.3269
  749POPS   GL1 8439  13.679  16.756   6.859 -0.0078  0.2153 -0.1680
  749POPS   GL2 8440  13.377  16.663   7.038 -0.0278  0.3054 -0.3206
  749POPS   C1A 8441  13.726  16.949   7.333 -0.2695 -0.2706  0.1347
  749POPS   D2A 8442  13.828  17.196   7.618 -0.0840  0.3090 -0.1105
  749POPS   C3A 8443  13.595  17.077   7.917  0.3614  0.0535  0.0726
  749POPS   C4A 8444  13.465  16.783   8.169  0.1169 -0.1343  0.1902
  749POPS   C1B 8445  13.292  16.626   7.504  0.3079 -0.1526 -0.4182
  749POPS   C2B 8446  13.202  16.416   7.839 -0.0509 -0.3080 -0.1209
  749POPS   C3B 8447  13.080  16.494   8.247 -0.3176  0.0508 -0.0295
  749POPS   C4B 8448  13.413  16.573   8.639 -0.3036  0.2907  0.1415
  750POPS   CNO 8449   0.289  15.867   6.969 -0.0445  0.0793  0.0743
  750POPS   PO4 8450  -0.213  15.972   6.891  0.1356 -0.1793 -0.0309
  750POPS   GL1 8451  -0.340  16.075   7.328 -0.2346 -0.0499 -0.2088
  750POPS   GL2 8452  -0.636  15.928   7.456  0.0895 -0.0946 -0.1021
  750POPS   C1A 8453  -0.353  16.059   7.846 -0.1464 -0.1039 -0.1083
  750POPS   D2A 8454  -0.595  16.101   8.215  0.0709 -0.3053 -0.0655
  750POPS   C3A 8455  -0.512  15.935   8.620 -0.0857  0.1493  0.1213
  750POPS   C4A 8456  -0.706  15.855   9.011  0.2616 -0.1784 -0.1189
  750POPS   C1B 8457  -0.410  15.627   7.715 -0.0641  0.2293  0.1998
  750POPS   C2B 8458  -0.331  15.672   8.225 -0.0185  0.1375 -0.0587
  750POPS   C3B 8459  -0.039  15.842   8.407 -0.0897  0.1613  0.2313
  750POPS   C4B 8460   0.374  15.941   8.380 -0.0719 -0.1849  0.4460
  751POPS   CNO 8461   9.515   5.329   5.509 -0.0684 -0.0388 -0.2583
  751POPS   PO4 8462   9.590   5.635   5.723 -0.1313 -0.0815 -0.1300
  751POPS   GL1 8463   9.574   5.616   6.108  0.0322 -0.2510 -0.0982
  751POPS   GL2 8464   9.415   5.712   6.324  0.0804 -0.1026  0.0916
  751POPS   C1A 8465   9.945   5.622   6.393  0.0345  0.1043 -0.0387
  751POPS   D2A 8466  10.054   5.946   6.692 -0.0250  0.3568  0.0611
  751POPS   C3A 8467  10.081   5.838   7.070  0.0481  0.1579  0.0120
  751POPS   C4A 8468  10.085   5.837   7.443  0.0812  0.3411  0.2769
  751POPS   C1B 8469   9.492   5.500   6.631 -0.1728  0.0415  0.1487
  751POPS   C2B 8470   9.289   5.340   7.053  0.3253 -0.0471 -0.1511
  751POPS   C3B 8471   9.331   5.177   7.538 -0.1900 -0.1556 -0.0336
  751POPS   C4B 8472   9.231   5.151   8.011  0.0697  0.2566  0.0085
  752POPS   CNO 8473  11.411  12.917   6.283  0.0348  0.0429 -0.0007
  752POPS   PO4 8474  11.070  12.713   6.373 -0.1287 -0.2123 -0.0397
  752POPS   GL1 8475  10.949  12.711   6.732  0.2934 -0.1844 -0.5470
  752POPS   GL2 8476  10.702  12.845   6.796  0.1434 -0.0678  0.1091
  752POPS   C1A 8477  11.090  12.343   6.910  0.0512  0.1361 -0.0116
  752POPS   D2A 8478  11.193  12.269   7.287  0.1629 -0.1030  0.2931
  752POPS   C3A 8479  10.961  12.450   7.643 -0.4190 -0.2157  0.1460
  752POPS   C4A 8480  10.810  12.528   8.029  0.1284  0.1853  0.1762
  752POPS   C1B 8481  10.667  12.711   7.216  0.1977 -0.4409 -0.0030
  752POPS   C2B 8482  10.408  12.541   7.514 -0.0840 -0.1550 -0.0520
  752POPS   C3B 8483  10.280  12.519   7.916 -0.0521 -0.0824 -0.2097
  752POPS   C4B 8484  10.044  12.644   8.221  0.0959 -0.0053 -0.1662
  753POPS   CNO 8485  10.273   6.365   5.983  0.1586  0.1530  0.1965
  753POPS   PO4 8486  10.696   6.126   5.942 -0.0155 -0.0233 -0.1859
  753POPS   GL1 8487  11.111   6.110   6.153  0.1726 -0.0025 -0.0181
  753POPS   GL2 8488  11.122   6.424   6.301  0.0372 -0.1276  0.1127
  753POPS   C1A 8489  11.291   5.939   6.483 -0.1721 -0.0611  0.3516
  753POPS   D2A 8490  11.448   5.921   6.886  0.2045  0.1054 -0.5095
  753POPS   C3A 8491  11.796   5.882   7.004 -0.0880  0.2559 -0.3436
  753POPS   C4A 8492  12.246   5.826   7.012 -0.0580  0.0269 -0.2610
  753POPS   C1B 8493  11.067   6.398   6.721 -0.1396  0.3193  0.0438
  753POPS   C2B 8494  11.082   6.351   7.122  0.1935 -0.1442  0.0110
  753POPS   C3B 8495  10.749   6.324   7.404 -0.0286 -0.3856 -0.0559
  753POPS   C4B 8496  10.843   6.169   7.896 -0.1915 -0.1883 -0.4622
  754POPS   CNO 8497   7.925  14.845   5.961 -0.2546  0.2108 -0.0597
  754POPS   PO4 8498   7.778  15.181   5.782  0.3877  0.0240  0.0897
  754POPS   GL1 8499   7.985  15.341   6.129  0.1869  0.2735  0.0651
  754POPS   GL2 8500   7.898  15.654   6.063 -0.2336 -0.1402 -0.0562
  754POPS   C1A 8501   8.165  15.069   6.462  0.3521 -0.2559 -0.0830
  754POPS   D2A 8502   8.418  15.068   6.796 -0.2436  0.0120  0.1238
  754POPS   C3A 8503   8.824  15.371   6.545 -0.1955 -0.1455 -0.1475
  754POPS   C4A 8504   9.138  15.615   6.728  0.1077  0.2698 -0.1471
  754POPS   C1B 8505   8.050  15.802   6.488  0.3431  0.0224  0.0912
  754POPS   C2B 8506   8.060  15.851   6.964  0.3054 -0.1600  0.0537
  754POPS   C3B 8507   8.239  15.840   7.399  0.1926  0.2634 -0.5051
  754POPS   C4B 8508   8.085  15.828   7.894 -0.1748  0.0364 -0.4776
  755POPS   CNO 8509   8.729  11.321   5.738 -0.2354  0.2254  0.1206
  755POPS   PO4 8510   8.893  11.367   6.125  0.2172  0.1771  0.2360
  755POPS   GL1 8511   8.839  11.654   6.445 -0.2651  0.2910  0.2945
  755POPS   GL2 8512   8.574  11.560   6.651  0.0576  0.0366 -0.0481
  755POPS   C1A 8513   8.890  11.843   6.897 -0.1542  0.1637 -0.0918
  755POPS   D2A 8514   8.826  11.700   7.344 -0.2007 -0.0731 -0.0573
  755POPS   C3A 8515   8.949  11.364   7.446 -0.2743  0.0646 -0.0815
  755POPS   C4A 8516   9.150  10.997   7.564  0.0099  0.1679 -0.0496
  755POPS   C1B 8517   8.635  11.341   7.031 -0.0419  0.0123  0.0228
  755POPS   C2B 8518   8.723  10.943   7.267 -0.0269 -0.0604  0.1407
  755POPS   C3B 8519   8.810  10.638   7.566 -0.1626 -0.0761  0.0243
  755POPS   C4B 8520   8.605  10.394   7.693 -0.0629  0.1304 -0.1551
  756POPS   CNO 8521   2.340  17.290   7.080 -0.0078 -0.2250  0.4959
  756POPS   PO4 8522   2.395  16.830   6.819 -0.0702 -0.2098 -0.0293
  756POPS   GL1 8523   2.627  16.877   7.139  0.0765 -0.2070  0.1941
  756POPS   GL2 8524   2.795  17.133   7.264  0.1693  0.0560 -0.0187
  756POPS   C1A 8525   2.424  16.632   7.468 -0.0014 -0.1198 -0.0273
  756POPS   D2A 8526   2.114  16.511   7.824 -0.0840 -0.0504  0.1206
  756POPS   C3A 8527   2.215  16.412   8.247  0.1935 -0.2120  0.1993
  756POPS   C4A 8528   2.028  16.178   8.505 -0.0876 -0.3457  0.5214
  756POPS   C1B 8529   2.713  17.089   7.625 -0.0555  0.0650  0.0750
  756POPS   C2B 8530   2.948  17.307   7.998 -0.1703 -0.0947  0.1769
  756POPS   C3B 8531   3.261  17.503   7.914  0.2527 -0.1608  0.1965
  756POPS   C4B 8532   3.581  17.415   7.609 -0.2641 -0.4196  0.1953
  757POPS   CNO 8533   2.752  14.195   6.079 -0.0341  0.2113  0.1823
  757POPS   PO4 8534   2.779  14.267   6.521  0.0026  0.2610  0.0086
  757POPS   GL1 8535   2.629  14.152   6.849 -0.0090  0.0951  0.1544
  757POPS   GL2 8536   2.748  14.133   7.051  0.3943 -0.0266 -0.1808
  757POPS   C1A 8537   2.311  13.879   7.224 -0.1004 -0.2060  0.0565
  757POPS   D2A 8538   2.477  13.807   7.615  0.0524  0.4342 -0.0887
  757POPS   C3A 8539   2.441  13.782   8.037  0.2586 -0.1066  0.4533
  757POPS   C4A 8540   2.220  13.491   8.260 -0.0586  0.3725 -0.1285
  757POPS   C1B 8541   2.841  14.072   7.466  0.0089 -0.1676  0.1189
  757POPS   C2B 8542   2.848  14.064   7.941  0.0727 -0.2333 -0.1755
  757POPS   C3B 8543   3.052  14.073   8.367  0.0501 -0.2639 -0.0467
  757POPS   C4B 8544   3.414  13.892   8.532 -0.1268 -0.3041 -0.0531
  758POPS   CNO 8545   7.015  12.765   6.127 -0.1129 -0.1378 -0.0460
  758POPS   PO4 8546   6.615  12.536   6.318 -0.3941 -0.0496 -0.2975
  758POPS   GL1 8547   6.715  12.494   6.732  0.1274 -0.0044  0.3615
  758POPS   GL2 8548   6.613  12.731   6.962 -0.0282 -0.1887  0.2758
  758POPS   C1A 8549   6.676  12.249   7.185  0.0755 -0.0702  0.0418
  758POPS   D2A 8550   7.007  12.297   7.503  0.0737  0.1012 -0.1626
  758POPS   C3A 8551   7.021  12.618   7.687  0.1792  0.1923 -0.0210
  758POPS   C4A 8552   7.167  12.770   8.049 -0.0696 -0.1943 -0.0447
  758POPS   C1B 8553   6.651  12.793   7.333  0.2663 -0.2712  0.0238
  758POPS   C2B 8554   6.469  12.650   7.767 -0.3576  0.2701  0.1506
  758POPS   C3B 8555   6.247  12.357   8.030 -0.0759 -0.0681  0.0121
  758POPS   C4B 8556   6.062  12.223   8.453  0.2267 -0.3819  0.4682
  759POPS   CNO 8557   0.580   5.424   5.532 -0.2555  0.2277 -0.0178
  759POPS   PO4 8558   0.967   5.413   5.720  0.3526  0.2467  0.1537
  759POPS   GL1 8559   0.867   5.367   6.170 -0.0624 -0.1685 -0.1099
  759POPS   GL2 8560   1.051   5.187   6.304  0.2994  0.1456 -0.0531
  759POPS   C1A 8561   0.753   5.656   6.604  0.3042  0.1223  0.2546
  759POPS   D2A 8562   0.540   5.616   6.988  0.0196 -0.0568 -0.1839
  759POPS   C3A 8563   0.612   5.640   7.428  0.2700 -0.3666 -0.0265
  759POPS   C4A 8564   0.778   5.535   7.757 -0.1551 -0.1145  0.2891
  759POPS   C1B 8565   1.081   5.303   6.691  0.0343  0.0129  0.1876
  759POPS   C2B 8566   1.022   5.499   7.083  0.1307  0.0103 -0.0198
  759POPS   C3B 8567   1.130   5.733   7.431 -0.3800  0.2924  0.0806
  759POPS   C4B 8568   1.392   5.737   7.885  0.4413  0.1366 -0.1891
  760POPS   CNO 8569  13.515  14.552   6.770  0.0723 -0.1901 -0.4622
  760POPS   PO4 8570  13.293  14.284   6.955  0.0164  0.0001  0.2505
  760POPS   GL1 8571  13.335  14.075   7.268  0.0406  0.2115 -0.0336
  760POPS   GL2 8572  13.048  14.215   7.371  0.0577  0.1157 -0.1845
  760POPS   C1A 8573  13.531  14.055   7.588  0.0213 -0.0164  0.0384
  760POPS   D2A 8574  13.692  14.139   8.001  0.0568 -0.1622  0.0184
  760POPS   C3A 8575  13.834  14.440   8.265  0.2473 -0.2607  0.1416
  760POPS   C4A 8576  13.562  14.660   8.384  0.0507  0.2362 -0.2821
  760POPS   C1B 8577  13.096  14.323   7.791 -0.2403  0.1795 -0.1736
  760POPS   C2B 8578  13.213  14.299   8.189 -0.2500 -0.1979  0.1074
  760POPS   C3B 8579  13.501  14.083   8.447 -0.2342  0.0274 -0.1358
  760POPS   C4B 8580  13.932  13.975   8.496 -0.1714  0.0074 -0.0793
  761POPS   CNO 8581  13.778  12.307   6.514 -0.4106 -0.1613 -0.0277
  761POPS   PO4 8582  14.034  12.584   6.526  0.2778 -0.2477  0.1126
  761POPS   GL1 8583  13.863  12.605   6.988  0.0685 -0.1741  0.1693
  761POPS   GL2 8584  14.203  12.760   7.194  0.1777 -0.0508  0.2138
  761POPS   C1A 8585  13.803  12.532   7.372  0.1923  0.0098 -0.1340
  761POPS   D2A 8586  14.135  12.460   7.667 -0.0388  0.1781  0.3118
  761POPS   C3A 8587  14.331  12.028   7.808  0.3602 -0.2264  0.1167
  761POPS   C4A 8588  14.536  11.702   7.707 -0.1047 -0.0394 -0.1392
  761POPS   C1B 8589  14.215  12.282   7.242 -0.0258 -0.0525  0.0007
  761POPS   C2B 8590  14.373  11.929   7.217 -0.0521  0.4859  0.0884
  761POPS   C3B 8591  14.554  11.536   7.203 -0.0053 -0.1042  0.1327
  761POPS   C4B 8592  14.700  11.109   7.190 -0.1739 -0.0403 -0.2280
  762POPS   CNO 8593   1.904  10.992   6.018  0.5244  0.1181 -0.1721
  762POPS   PO4 8594   2.268  11.215   6.207  0.1860  0.0187 -0.0318
  762POPS   GL1 8595   2.366  11.411   6.576  0.1867 -0.2148 -0.0505
  762POPS   GL2 8596   2.107  11.357   6.721  0.4100  0.2128 -0.0736
  762POPS   C1A 8597   2.702  11.452   6.873 -0.0397 -0.0148 -0.0233
  762POPS   D2A 8598   2.879  11.553   7.287 -0.0073 -0.0899 -0.0693
  762POPS   C3A 8599   2.845  11.484   7.751  0.2103  0.0500 -0.2091
  762POPS   C4A 8600   2.984  11.172   8.030 -0.1399 -0.1036  0.2539
  762POPS   C1B 8601   2.235  11.222   7.035 -0.2125  0.1162  0.0630
  762POPS   C2B 8602   1.977  11.123   7.469 -0.0475 -0.0518  0.0170
  762POPS   C3B 8603   1.540  10.998   7.767  0.0000  0.1887 -0.0100
  762POPS   C4B 8604   1.176  10.891   7.815 -0.5452 -0.1407 -0.1643
  763POPS   CNO 8605   0.319   2.890   5.821 -0.0214  0.0728 -0.1568
  763POPS   PO4 8606   0.195   2.566   6.036  0.1150 -0.0578  0.0824
  763POPS   GL1 8607   0.384   2.796   6.292  0.0826  0.2338 -0.1785
  763POPS   GL2 8608   0.344   3.184   6.337 -0.3641  0.0410  0.1341
  763POPS   C1A 8609   0.406   2.875   6.724  0.1800 -0.0046  0.1262
  763POPS   D2A 8610   0.478   2.938   7.135  0.0797 -0.1800 -0.1183
  763POPS   C3A 8611   0.345   2.684   7.368 -0.0050 -0.1922  0.2372
  763POPS   C4A 8612   0.199   2.301   7.656 -0.0451 -0.1024 -0.0130
  763POPS   C1B 8613   0.281   3.400   6.673  0.0991 -0.1572 -0.1400
  763POPS   C2B 8614   0.582   3.459   7.016  0.0046  0.1531 -0.2453
  763POPS   C3B 8615   0.890   3.654   7.303 -0.1790 -0.2259 -0.0700
  763POPS   C4B 8616   1.110   3.620   7.662 -0.0281 -0.0556  0.1074
  764POPS   CNO 8617  17.033   8.316   5.385  0.1944  0.3004 -0.0425
  764POPS   PO4 8618  16.784   8.398   5.706 -0.1495  0.0840  0.4519
  764POPS   GL1 8619  16.563   8.142   6.041 -0.2231 -0.1308  0.1237
  764POPS   GL2 8620  16.902   7.942   6.114 -0.0991  0.1068 -0.2162
  764POPS   C1A 8621  16.538   8.169   6.438 -0.2630  0.1775 -0.2539
  764POPS   D2A 8622  16.582   8.481   6.799  0.2329  0.0228 -0.1762
  764POPS   C3A 8623  16.662   8.356   7.144 -0.2281  0.1574 -0.0151
  764POPS   C4A 8624  16.708   8.267   7.589  0.4387  0.1819  0.1160
  764POPS   C1B 8625  17.103   8.166   6.521  0.2439 -0.2836 -0.0678
  764POPS   C2B 8626  17.159   8.313   6.864  0.2980 -0.0623  0.1159
  764POPS   C3B 8627  17.202   8.365   7.240  0.0701  0.1691 -0.0797
  764POPS   C4B 8628  16.958   8.717   7.396 -0.1392  0.4071  0.2187
  765POPS   CNO 8629  10.707   7.053   5.802  0.2730 -0.1807  0.0618
  765POPS   PO4 8630  10.977   7.321   5.631  0.0820  0.1976 -0.0863
  765POPS   GL1 8631  10.962   7.179   6.176 -0.0308 -0.0460 -0.1555
  765POPS   GL2 8632  10.977   6.934   6.278 -0.1584  0.1514  0.1074
  765POPS   C1A 8633  11.161   7.322   6.637 -0.0771 -0.1000 -0.0412
  765POPS   D2A 8634  11.464   7.226   6.976  0.2605 -0.2090  0.3482
  765POPS   C3A 8635  11.808   7.428   7.079  0.3253  0.1166  0.3263
  765POPS   C4A 8636  12.174   7.360   7.174  0.1200 -0.0729  0.1613
  765POPS   C1B 8637  11.230   6.838   6.583  0.0835 -0.1107  0.0707
  765POPS   C2B 8638  11.307   6.783   6.961 -0.2294  0.1838 -0.3027
  765POPS   C3B 8639  11.381   6.709   7.386  0.2501 -0.1748  0.0820
  765POPS   C4B 8640  11.182   6.451   7.649  0.1176 -0.0886 -0.0599
  766POPS   CNO 8641  10.499   3.510   6.192  0.0275 -0.0337  0.1970
  766POPS   PO4 8642  10.944   3.624   6.096  0.0213 -0.0164  0.0248
  766POPS   GL1 8643  10.754   3.701   6.555  0.0735  0.2351 -0.2610
  766POPS   GL2 8644  10.891   3.383   6.605  0.0870 -0.1810  0.3640
  766POPS   C1A 8645  10.354   3.677   6.695 -0.0501 -0.3770 -0.0485
  766POPS   D2A 8646  10.143   3.465   6.991  0.0966  0.2649  0.2601
  766POPS   C3A 8647  10.115   3.488   7.399 -0.0319 -0.1780  0.3424
  766POPS   C4A 8648  10.293   3.343   7.699  0.0101  0.3304  0.3000
  766POPS   C1B 8649  10.867   3.342   7.003 -0.1417 -0.1113 -0.2407
  766POPS   C2B 8650  10.965   3.368   7.390 -0.0805  0.0811  0.2686
  766POPS   C3B 8651  10.881   3.168   7.723 -0.0103  0.0073 -0.0325
  766POPS   C4B 8652  10.640   3.275   8.019  0.0895  0.3495  0.0805
  767POPS   CNO 8653   5.216  13.150   6.510  0.2298  0.1320  0.2249
  767POPS   PO4 8654   5.177  12.712   6.648 -0.1900 -0.1066 -0.0771
  767POPS   GL1 8655   5.255  12.738   7.068 -0.2617 -0.0026  0.4865
  767POPS   GL2 8656   5.322  13.045   7.123  0.0092  0.0767 -0.1598
  767POPS   C1A 8657   5.279  12.634   7.463  0.0529 -0.0118 -0.1183
  767POPS   D2A 8658   5.417  12.854   7.890  0.0309 -0.1833  0.2545
  767POPS   C3A 8659   5.329  12.928   8.260  0.0670 -0.0722 -0.0530
  767POPS   C4A 8660   5.260  13.286   8.634  0.0929  0.1494  0.0281
  767POPS   C1B 8661   5.456  13.089   7.460 -0.1091 -0.2681  0.0766
  767POPS   C2B 8662   5.736  13.305   7.698 -0.2042  0.0129 -0.1184
  767POPS   C3B 8663   5.873  13.171   8.190 -0.0151 -0.1963 -0.2654
  767POPS   C4B 8664   5.857  13.073   8.647 -0.0147  0.1846 -0.1470
  768POPS   CNO 8665   1.936  10.508   5.788 -0.2742  0.1466 -0.2643
  768POPS   PO4 8666   2.233  10.540   6.019  0.3765 -0.2561 -0.0709
  768POPS   GL1 8667   2.081  10.602   6.425  0.3156  0.0914 -0.0151
  768POPS   GL2 8668   1.949  10.886   6.587  0.2658 -0.1424  0.0752
  768POPS   C1A 8669   2.244  10.467   6.804 -0.0441  0.0184  0.4539
  768POPS   D2A 8670   2.323  10.694   7.067  0.3696  0.1483 -0.0020
  768POPS   C3A 8671   2.195  10.665   7.425  0.2473 -0.2333  0.2678
  768POPS   C4A 8672   2.098  10.724   7.825  0.0011 -0.3031  0.0096
  768POPS   C1B 8673   1.848  10.905   7.031 -0.2098 -0.0573  0.1007
  768POPS   C2B 8674   1.583  10.655   7.362  0.1791  0.2297  0.0980
  768POPS   C3B 8675   1.385  10.385   7.644 -0.2968 -0.1011 -0.0193
  768POPS   C4B 8676   0.918  10.258   7.599 -0.0098  0.0327  0.0684
  769POPS   CNO 8677   6.345   5.286   5.754  0.1539  0.1408 -0.0712
  769POPS   PO4 8678   6.792   5.377   5.801  0.3612  0.0284  0.1848
  769POPS   GL1 8679   6.676   5.243   6.172  0.0151 -0.4613  0.0772
  769POPS   GL2 8680   6.598   4.990   6.171 -0.1598  0.4784  0.0239
  769POPS   C1A 8681   6.900   5.014   6.564 -0.3107  0.0815  0.1296
  769POPS   D2A 8682   6.814   5.044   7.042  0.0310 -0.0777 -0.0318
  769POPS   C3A 8683   6.556   4.879   7.340 -0.0473 -0.1556 -0.2833
  769POPS   C4A 8684   6.261   4.599   7.528 -0.0942 -0.0483  0.1346
  769POPS   C1B 8685   6.429   4.868   6.573  0.1489 -0.2230  0.1371
  769POPS   C2B 8686   6.633   4.553   6.893 -0.0557 -0.2019 -0.2247
  769POPS   C3B 8687   6.730   4.420   7.178 -0.1738  0.0823  0.2554
  769POPS   C4B 8688   6.786   4.455   7.636 -0.0112 -0.0176 -0.1612
  770POPS   CNO 8689   1.527  17.587   6.805  0.0022  0.2737  0.0610
  770POPS   PO4 8690   1.161  17.729   7.000 -0.3128 -0.2597 -0.0464
  770POPS   GL1 8691   0.996  17.623   7.402  0.1965 -0.0306  0.4965
  770POPS   GL2 8692   0.635  17.708   7.566 -0.2318  0.0010  0.3597
  770POPS   C1A 8693   1.101  17.305   7.774 -0.0658 -0.3112  0.0813
  770POPS   D2A 8694   1.333  17.214   8.013  0.0482 -0.2474  0.3086
  770POPS   C3A 8695   1.173  17.201   8.358  0.1156 -0.3870  0.1682
  770POPS   C4A 8696   1.152  17.494   8.717  0.0674 -0.0485  0.1269
  770POPS   C1B 8697   0.620  17.572   7.932 -0.1642  0.1402 -0.2982
  770POPS   C2B 8698   0.716  17.548   8.369  0.2831  0.0966 -0.1168
  770POPS   C3B 8699   0.590  17.564   8.678  0.1813  0.0300 -0.0503
  770POPS   C4B 8700   0.699  17.864   8.954  0.0790  0.1804  0.1281
  771POPS   CNO 8701   6.673  10.237   6.342  0.2574  0.1138 -0.0252
  771POPS   PO4 8702   6.268  10.389   6.436 -0.1782 -0.0625 -0.0754
  771POPS   GL1 8703   6.472  10.146   6.797  0.0673 -0.0618  0.1088
  771POPS   GL2 8704   6.812   9.987   6.793 -0.0137  0.1862 -0.0363
  771POPS   C1A 8705   6.227   9.981   7.000  0.1564  0.0802 -0.2744
  771POPS   D2A 8706   6.360   9.722   7.260  0.0552  0.0003  0.2930
  771POPS   C3A 8707   6.146   9.558   7.548 -0.1183  0.3069  0.0183
  771POPS   C4A 8708   5.974   9.329   7.683 -0.4646  0.1716  0.1543
  771POPS   C1B 8709   6.927   9.899   7.220 -0.0847  0.2566 -0.0064
  771POPS   C2B 8710   6.776   9.714   7.561 -0.3215 -0.1857 -0.0116
  771POPS   C3B 8711   6.510   9.536   7.845 -0.1486  0.0704  0.0318
  771POPS   C4B 8712   6.519   9.544   8.320  0.1676  0.0602 -0.1285
  772POPS   CNO 8713   4.262  18.241   6.708  0.1443  0.0529  0.1527
  772POPS   PO4 8714   4.706  18.423   6.521  0.2054  0.0491 -0.0941
  772POPS   GL1 8715   4.500  18.635   6.949  0.1790  0.0292 -0.6258
  772POPS   GL2 8716   4.143  18.700   6.901  0.2424  0.0125  0.0209
  772POPS   C1A 8717   4.468  18.742   7.272 -0.1356  0.1114  0.0797
  772POPS   D2A 8718   4.638  18.794   7.724 -0.2741  0.1310 -0.0778
  772POPS   C3A 8719   4.547  18.551   8.040  0.0713 -0.2473 -0.0955
  772POPS   C4A 8720   4.658  18.567   8.444 -0.0532 -0.1128  0.1031
  772POPS   C1B 8721   3.970  18.531   7.229 -0.0130 -0.1716 -0.2614
  772POPS   C2B 8722   3.793  18.162   7.454 -0.0690 -0.1037  0.0368
  772POPS   C3B 8723   3.870  17.888   7.654 -0.0827  0.1021 -0.0678
  772POPS   C4B 8724   3.798  17.629   8.001  0.1021  0.0261 -0.0317
  773POPS   CNO 8725  10.863   9.714   5.430 -0.1859 -0.1172 -0.4537
  773POPS   PO4 8726  11.030   9.403   5.795 -0.1109  0.1193 -0.0897
  773POPS   GL1 8727  11.194   9.609   6.206  0.3362 -0.1875  0.1188
  773POPS   GL2 8728  10.978   9.424   6.270  0.1785  0.1462 -0.4338
  773POPS   C1A 8729  11.059   9.769   6.676  0.1210  0.1455  0.2388
  773POPS   D2A 8730  11.004   9.845   7.110 -0.2636  0.0595  0.0054
  773POPS   C3A 8731  10.920  10.128   7.376 -0.1692 -0.1121  0.0682
  773POPS   C4A 8732  10.761  10.187   7.684  0.0829  0.1380 -0.1122
  773POPS   C1B 8733  11.229   9.303   6.603 -0.2341 -0.0771  0.1732
  773POPS   C2B 8734  11.223   9.331   7.024 -0.5992  0.0629 -0.3387
  773POPS   C3B 8735  11.398   9.607   7.379 -0.1211 -0.0002 -0.1427
  773POPS   C4B 8736  11.535   9.584   7.722 -0.0027 -0.5400  0.2702
  774POPS   CNO 8737   9.901   1.463   5.868 -0.0465 -0.2278 -0.1433
  774POPS   PO4 8738   9.603   1.764   5.625 -0.1067 -0.0474  0.0566
  774POPS   GL1 8739   9.552   1.829   6.106  0.0584  0.0448  0.1821
  774POPS   GL2 8740   9.790   1.825   6.221  0.2761  0.0189 -0.2126
  774POPS   C1A 8741   9.295   1.926   6.416 -0.1359  0.0971  0.0077
  774POPS   D2A 8742   9.213   2.142   6.802 -0.0251  0.2147  0.0469
  774POPS   C3A 8743   9.483   2.222   7.192  0.0486 -0.1347  0.2314
  774POPS   C4A 8744   9.468   2.275   7.727 -0.0610  0.3075 -0.0241
  774POPS   C1B 8745   9.762   1.949   6.643 -0.0548 -0.0233  0.1619
  774POPS   C2B 8746   9.808   1.815   7.084 -0.1754 -0.5019  0.0216
  774POPS   C3B 8747   9.627   1.791   7.454 -0.2388 -0.2231 -0.0970
  774POPS   C4B 8748   9.477   1.752   7.882  0.4170  0.0126  0.2499
  775POPS   CNO 8749   4.331  18.096   6.246 -0.1181 -0.1912  0.2266
  775POPS   PO4 8750   4.268  17.629   6.344 -0.4200 -0.0972 -0.0055
  775POPS   GL1 8751   4.030  17.737   6.780  0.0497  0.3710 -0.1513
  775POPS   GL2 8752   3.917  17.377   6.905  0.3300 -0.3229  0.0567
  775POPS   C1A 8753   4.090  17.959   7.093 -0.1427  0.0497  0.0365
  775POPS   D2A 8754   4.316  18.227   7.174  0.0154  0.1598 -0.0606
  775POPS   C3A 8755   4.281  18.400   7.552 -0.0282  0.4570 -0.1515
  775POPS   C4A 8756   4.097  18.690   7.749 -0.1597  0.2556  0.1757
  775POPS   C1B 8757   4.028  17.520   7.375  0.1409  0.4363  0.1653
  775POPS   C2B 8758   4.281  17.548   7.712 -0.0324  0.1206 -0.2672
  775POPS   C3B 8759   4.622  17.576   8.132  0.2318 -0.0105 -0.2146
  775POPS   C4B 8760   4.865  17.602   8.437 -0.0473 -0.1822 -0.0909
  776POPS   CNO 8761  16.171   6.246   5.465 -0.0220  0.1237  0.2866
  776POPS   PO4 8762  16.005   6.420   5.837  0.1939  0.0100 -0.1794
  776POPS   GL1 8763  15.666   6.635   6.184 -0.0672 -0.1509  0.1321
  776POPS   GL2 8764  15.682   6.979   6.119  0.0136 -0.1495 -0.0979
  776POPS   C1A 8765  15.715   6.502   6.589  0.1145  0.2430  0.2114
  776POPS   D2A 8766  15.920   6.397   6.933 -0.0811  0.3634 -0.2434
  776POPS   C3A 8767  16.300   6.353   7.180 -0.0041  0.0717  0.3924
  776POPS   C4A 8768  16.661   6.517   7.480  0.0427  0.0549 -0.2358
  776POPS   C1B 8769  15.750   7.037   6.603  0.0009 -0.1497 -0.0444
  776POPS   C2B 8770  15.831   6.911   6.957  0.1821 -0.1343 -0.1754
  776POPS   C3B 8771  15.919   6.644   7.363 -0.1735  0.2031 -0.0554
  776POPS   C4B 8772  16.064   6.381   7.731  0.0202  0.1704  0.0074
  777POPS   CNO 8773   5.527  17.756   5.774 -0.0874  0.1525  0.2881
  777POPS   PO4 8774   5.816  17.599   5.989  0.1925  0.0181  0.1081
  777POPS   GL1 8775   5.752  17.438   6.520  0.1508 -0.2547  0.0143
  777POPS   GL2 8776   5.512  17.202   6.739  0.1430 -0.0479  0.0799
  777POPS   C1A 8777   6.043  17.445   6.874 -0.1028  0.0449  0.2494
  777POPS   D2A 8778   6.224  17.637   7.114 -0.0936 -0.1666 -0.0791
  777POPS   C3A 8779   6.454  17.451   7.470  0.3601 -0.3610 -0.0636
  777POPS   C4A 8780   6.427  17.573   7.830 -0.0822  0.0669  0.1310
  777POPS   C1B 8781   5.629  17.386   7.087  0.0427  0.0805  0.0781
  777POPS   C2B 8782   5.865  17.341   7.427  0.1420  0.0199  0.1521
  777POPS   C3B 8783   6.164  17.161   7.768 -0.1449 -0.0878  0.2484
  777POPS   C4B 8784   6.178  16.718   7.977  0.0423 -0.2465  0.0719
  778POPS   CNO 8785   6.290  12.041   6.410  0.1407 -0.0121 -0.6410
  778POPS   PO4 8786   6.274  11.734   6.195  0.0924  0.0158  0.2232
  778POPS   GL1 8787   6.221  11.365   6.467 -0.1706 -0.2695 -0.3087
  778POPS   GL2 8788   6.484  11.434   6.532 -0.2895  0.3920  0.0173
  778POPS   C1A 8789   5.976  11.213   6.868 -0.1471  0.1067 -0.1904
  778POPS   D2A 8790   5.771  10.956   7.164 -0.1068  0.0824  0.0771
  778POPS   C3A 8791   5.673  11.116   7.533  0.1899 -0.0795  0.3742
  778POPS   C4A 8792   5.391  11.148   7.909 -0.2125  0.0358  0.2581
  778POPS   C1B 8793   6.311  11.523   6.927  0.1754  0.1755  0.0085
  778POPS   C2B 8794   6.173  11.384   7.309 -0.0026 -0.0881 -0.2718
  778POPS   C3B 8795   6.361  11.610   7.723 -0.1155 -0.2480 -0.0891
  778POPS   C4B 8796   6.436  11.484   8.217 -0.1373 -0.3950  0.3604
  779POPS   CNO 8797   5.118  17.067   6.474  0.5329 -0.0515  0.0650
  779POPS   PO4 8798   5.437  16.796   6.191  0.1443  0.0072  0.1202
  779POPS   GL1 8799   5.371  16.576   6.545 -0.0233  0.2616  0.2085
  779POPS   GL2 8800   5.305  16.721   6.757 -0.2172 -0.0979 -0.0956
  779POPS   C1A 8801   5.722  16.501   6.965  0.2340  0.0429  0.2894
  779POPS   D2A 8802   5.940  16.549   7.400 -0.0684 -0.0130  0.4580
  779POPS   C3A 8803   5.833  16.843   7.557  0.0590  0.0848 -0.2463
  779POPS   C4A 8804   5.742  17.035   7.958 -0.2477 -0.2579 -0.2369
  779POPS   C1B 8805   5.402  16.876   7.218  0.0271  0.0658 -0.4182
  779POPS   C2B 8806   5.278  16.894   7.696  0.0943  0.2354 -0.1888
  779POPS   C3B 8807   5.237  16.928   8.109  0.0268 -0.0422  0.1315
  779POPS   C4B 8808   5.335  16.702   8.490 -0.2070 -0.1214 -0.1835
  780POPS   CNO 8809   3.713  13.794   6.354 -0.1362 -0.0078 -0.1810
  780POPS   PO4 8810   3.752  14.260   6.186  0.2179 -0.2455  0.0270
  780POPS   GL1 8811   4.041  14.141   6.607 -0.4938  0.3158 -0.2554
  780POPS   GL2 8812   4.182  14.467   6.749 -0.1733 -0.3374  0.2204
  780POPS   C1A 8813   4.279  13.863   6.915  0.0098  0.0546  0.1030
  780POPS   D2A 8814   4.623  13.525   7.123  0.1511 -0.0790 -0.1124
  780POPS   C3A 8815   4.733  13.504   7.525 -0.1874 -0.3731 -0.0096
  780POPS   C4A 8816   4.710  13.421   7.975 -0.1378 -0.0265 -0.2339
  780POPS   C1B 8817   4.345  14.330   7.183 -0.1743 -0.5253  0.1756
  780POPS   C2B 8818   4.274  14.424   7.683 -0.1913  0.1855 -0.2019
  780POPS   C3B 8819   4.252  14.387   8.123  0.0500  0.1746  0.0615
  780POPS   C4B 8820   4.193  14.088   8.500 -0.0892 -0.1362 -0.0259
  781POPS   CNO 8821  17.344  17.999   6.724  0.2033 -0.1760 -0.1251
  781POPS   PO4 8822  17.615  18.243   6.981  0.2359  0.1928  0.1015
  781POPS   GL1 8823  17.686  18.197   7.361 -0.3486  0.0528  0.0789
  781POPS   GL2 8824  17.504  18.365   7.536  0.1686  0.1787 -0.2877
  781POPS   C1A 8825  17.893  18.351   7.855  0.2264  0.0670 -0.1036
  781POPS   D2A 8826  18.126  18.536   8.053 -0.2108 -0.0073  0.1940
  781POPS   C3A 8827  18.290  18.666   8.430  0.0603  0.0296  0.1080
  781POPS   C4A 8828  18.414  19.041   8.554 -0.0881  0.0551 -0.0887
  781POPS   C1B 8829  17.084  18.637   7.534 -0.3149  0.2128 -0.0681
  781POPS   C2B 8830  16.706  18.837   7.685 -0.0132 -0.1950 -0.0320
  781POPS   C3B 8831  16.480  18.845   8.072  0.1045 -0.0265  0.0478
  781POPS   C4B 8832  16.396  19.009   8.503 -0.1675 -0.0280 -0.2241
  782POPS   CNO 8833   2.474   3.557   6.255 -0.0120 -0.0440 -0.0420
  782POPS   PO4 8834   2.306   3.940   6.527 -0.2292 -0.0054 -0.0253
  782POPS   GL1 8835   2.076   4.077   6.824  0.2178  0.0394  0.8680
  782POPS   GL2 8836   1.869   4.318   6.758 -0.1885 -0.0975  0.0826
  782POPS   C1A 8837   1.794   3.900   7.093 -0.1415  0.0997 -0.0073
  782POPS   D2A 8838   1.757   3.518   7.348  0.0800  0.1235  0.1043
  782POPS   C3A 8839   1.604   3.499   7.647  0.1952  0.1326 -0.0293
  782POPS   C4A 8840   1.457   3.401   8.074  0.0599 -0.2407 -0.1812
  782POPS   C1B 8841   1.980   4.332   7.236 -0.2698 -0.0291 -0.0541
  782POPS   C2B 8842   1.850   4.539   7.643  0.0903  0.0624  0.0730
  782POPS   C3B 8843   1.721   4.477   8.101 -0.3356  0.4713  0.0440
  782POPS   C4B 8844   1.678   4.141   8.379  0.0902  0.1624  0.1746
  783POPS   CNO 8845  12.069   6.845   5.650  0.2535 -0.0665 -0.0340
  783POPS   PO4 8846  11.740   7.161   5.805 -0.1460 -0.0878 -0.1495
  783POPS   GL1 8847  11.949   7.060   6.218 -0.0898 -0.0749  0.0444
  783POPS   GL2 8848  12.136   6.989   6.149 -0.3231  0.2987  0.0900
  783POPS   C1A 8849  12.278   7.001   6.630  0.0591 -0.0335 -0.0260
  783POPS   D2A 8850  12.518   6.952   7.033 -0.2270 -0.1507 -0.2392
  783POPS   C3A 8851  12.903   6.823   7.282 -0.0486 -0.1138  0.5077
  783POPS   C4A 8852  13.377   6.857   7.137 -0.0422  0.1514 -0.0954
  783POPS   C1B 8853  12.516   6.774   6.276 -0.1451 -0.1283 -0.1564
  783POPS   C2B 8854  12.583   6.583   6.697 -0.0639 -0.1264  0.0081
  783POPS   C3B 8855  12.551   6.468   7.117  0.2832 -0.1309 -0.0343
  783POPS   C4B 8856  12.791   6.404   7.505  0.0159 -0.1016  0.0761
  784POPS   CNO 8857   7.520  10.733   6.570 -0.0812 -0.1729 -0.0653
  784POPS   PO4 8858   7.107  10.505   6.328 -0.0434  0.0497  0.0347
  784POPS   GL1 8859   7.120  10.418   6.756 -0.0198 -0.2470  0.0523
  784POPS   GL2 8860   7.302  10.215   6.874  0.0450 -0.0317 -0.1388
  784POPS   C1A 8861   7.208  10.720   7.072  0.4518 -0.0519  0.0106
  784POPS   D2A 8862   7.009  10.900   7.323 -0.1645  0.2874 -0.0825
  784POPS   C3A 8863   6.742  10.741   7.728 -0.0921 -0.1768 -0.3065
  784POPS   C4A 8864   6.437  10.889   8.069 -0.3171 -0.1100 -0.2980
  784POPS   C1B 8865   7.093  10.332   7.347  0.1812 -0.0738  0.2128
  784POPS   C2B 8866   6.997  10.341   7.769 -0.0665 -0.0244  0.0888
  784POPS   C3B 8867   6.794   9.956   7.978  0.0556 -0.3168  0.0932
  784POPS   C4B 8868   6.970   9.602   8.139  0.1689  0.0207 -0.3089
  785POPS   CNO 8869   8.716  10.240   6.003 -0.2450  0.0190 -0.0346
  785POPS   PO4 8870   8.690   9.676   6.037 -0.2840  0.0022  0.3269
  785POPS   GL1 8871   8.711   9.721   6.466  0.1695  0.2374 -0.3586
  785POPS   GL2 8872   8.775  10.052   6.573  0.2072  0.1591  0.1075
  785POPS   C1A 8873   8.723   9.662   6.866  0.2290 -0.1935  0.0149
  785POPS   D2A 8874   8.668   9.442   7.350  0.0012 -0.1865 -0.5689
  785POPS   C3A 8875   8.608   9.185   7.699  0.0815  0.0934 -0.2252
  785POPS   C4A 8876   8.849   9.277   8.122 -0.3293 -0.0132  0.2090
  785POPS   C1B 8877   9.084  10.030   6.838  0.0598 -0.0961  0.0633
  785POPS   C2B 8878   9.059   9.959   7.263  0.2175  0.2072 -0.0858
  785POPS   C3B 8879   8.932   9.929   7.641  0.0086 -0.3324 -0.2186
  785POPS   C4B 8880   8.781   9.713   7.947  0.3082 -0.1544 -0.1880
  786POPS   CNO 8881   8.406   0.801   6.162 -0.0803 -0.1028 -0.2384
  786POPS   PO4 8882   8.174   0.433   6.074  0.4572 -0.1758  0.1146
  786POPS   GL1 8883   8.166   0.197   6.487 -0.0295 -0.0490  0.2288
  786POPS   GL2 8884   8.179  -0.091   6.400  0.2609  0.0117 -0.2172
  786POPS   C1A 8885   8.526   0.062   6.869 -0.0993  0.0140 -0.0605
  786POPS   D2A 8886   8.509  -0.005   7.275  0.0426  0.1085 -0.2576
  786POPS   C3A 8887   8.370  -0.425   7.493 -0.1952 -0.1516 -0.1250
  786POPS   C4A 8888   8.174  -0.732   7.689 -0.1624  0.0074 -0.0750
  786POPS   C1B 8889   8.488  -0.323   6.510  0.0476 -0.2796 -0.0838
  786POPS   C2B 8890   8.377  -0.440   6.956  0.4268  0.1292  0.0071
  786POPS   C3B 8891   8.024  -0.519   7.176  0.1283 -0.2407  0.1306
  786POPS   C4B 8892   7.696  -0.534   7.529 -0.2836 -0.1707 -0.1188
  787POPS   CNO 8893  10.040   1.994   5.823  0.0959 -0.1146  0.0410
  787POPS   PO4 8894  10.254   2.198   6.066  0.1665  0.2483 -0.1012
  787POPS   GL1 8895  10.121   2.284   6.426 -0.2027  0.2873 -0.0392
  787POPS   GL2 8896  10.159   2.618   6.431 -0.0351 -0.1188 -0.0637
  787POPS   C1A 8897   9.952   2.302   6.902 -0.1172 -0.2478 -0.2134
  787POPS   D2A 8898   9.950   2.282   7.243  0.2475 -0.2676 -0.1484
  787POPS   C3A 8899  10.021   2.023   7.663 -0.1718  0.0228 -0.0051
  787POPS   C4A 8900   9.933   1.939   8.043 -0.2496  0.0261 -0.0788
  787POPS   C1B 8901  10.072   2.790   6.787  0.2426 -0.2002 -0.2284
  787POPS   C2B 8902   9.825   3.063   7.140  0.0456 -0.0834 -0.0263
  787POPS   C3B 8903   9.717   3.162   7.546 -0.0211 -0.0150 -0.1361
  787POPS   C4B 8904   9.651   2.848   7.968 -0.3397 -0.3452  0.0330
  788POPS   CNO 8905   7.899   0.014   5.976  0.2224 -0.0413 -0.0197
  788POPS   PO4 8906   7.746  -0.395   5.934  0.0874  0.0530 -0.4932
  788POPS   GL1 8907   7.661  -0.483   6.379  0.0864  0.2548  0.0066
  788POPS   GL2 8908   7.549  -0.741   6.229  0.1222  0.2549 -0.0772
  788POPS   C1A 8909   7.911  -0.384   6.682 -0.3042 -0.1045  0.0177
  788POPS   D2A 8910   8.064  -0.056   6.914  0.1386  0.2529 -0.2125
  788POPS   C3A 8911   7.945  -0.042   7.359  0.1913 -0.0815 -0.1489
  788POPS   C4A 8912   7.955   0.201   7.756  0.1625 -0.0132  0.1994
  788POPS   C1B 8913   7.625  -0.841   6.723  0.0969 -0.1287 -0.1286
  788POPS   C2B 8914   7.593  -0.934   7.164 -0.2219 -0.0007  0.2623
  788POPS   C3B 8915   7.255  -1.191   7.350 -0.0266  0.1655 -0.3804
  788POPS   C4B 8916   7.077  -1.633   7.416  0.1727  0.0006 -0.2535
  789POPS   CNO 8917  17.826  14.996   6.766 -0.1456  0.2418 -0.3506
  789POPS   PO4 8918  18.164  15.127   6.903  0.2847  0.0215  0.2340
  789POPS   GL1 8919  18.252  15.061   7.310  0.0671 -0.3156  0.3788
  789POPS   GL2 8920  18.060  14.979   7.639 -0.2225 -0.3930 -0.3710
  789POPS   C1A 8921  18.431  15.324   7.643  0.1834 -0.3763  0.2035
  789POPS   D2A 8922  18.614  15.639   7.886 -0.1910 -0.3633 -0.2554
  789POPS   C3A 8923  18.700  15.460   8.295  0.1256 -0.2539 -0.4038
  789POPS   C4A 8924  18.535  15.413   8.669  0.0105  0.4002 -0.3504
  789POPS   C1B 8925  18.259  15.040   8.081 -0.1138  0.1004  0.0805
  789POPS   C2B 8926  18.083  15.229   8.523 -0.2554 -0.2734 -0.0446
  789POPS   C3B 8927  17.985  15.431   8.824  0.2519  0.0347  0.4692
  789POPS   C4B 8928  18.301  15.672   9.060  0.2321 -0.1684  0.0913
  790POPS   CNO 8929  17.778  10.250   5.961 -0.1446 -0.1204  0.0055
  790POPS   PO4 8930  17.908  10.537   5.825 -0.0176 -0.0431 -0.3926
  790POPS   GL1 8931  17.922  10.682   6.222 -0.0437 -0.1877  0.2897
  790POPS   GL2 8932  18.277  10.629   6.254 -0.0178 -0.1402 -0.0921
  790POPS   C1A 8933  17.776  10.632   6.586 -0.2391 -0.2489 -0.1976
  790POPS   D2A 8934  17.358  10.593   6.768 -0.1228 -0.0159 -0.1587
  790POPS   C3A 8935  17.240  10.605   7.197  0.3596 -0.0574 -0.4297
  790POPS   C4A 8936  17.107  10.502   7.635 -0.1869  0.1620  0.2554
  790POPS   C1B 8937  18.287  10.477   6.640  0.0778 -0.3701 -0.0065
  790POPS   C2B 8938  18.128  10.546   7.050  0.0348 -0.0036 -0.1203
  790POPS   C3B 8939  18.138  10.597   7.436  0.0327  0.1015  0.2774
  790POPS   C4B 8940  18.007  11.015   7.753  0.2039  0.1968 -0.2644
  791POPS   CNO 8941   7.952  14.343   5.936  0.1986  0.1084 -0.2087
  791POPS   PO4 8942   8.418  14.170   6.114 -0.0684  0.1947  0.1244
  791POPS   GL1 8943   8.319  14.557   6.348  0.0537  0.1367 -0.1564
  791POPS   GL2 8944   8.051  14.575   6.404 -0.0561 -0.2886 -0.2457
  791POPS   C1A 8945   8.487  14.592   6.811 -0.3450 -0.0536  0.2479
  791POPS   D2A 8946   8.561  14.696   7.143  0.0812 -0.0413 -0.2050
  791POPS   C3A 8947   8.581  14.593   7.485 -0.1334 -0.1076  0.1218
  791POPS   C4A 8948   8.520  14.471   7.988  0.3820 -0.0547 -0.1484
  791POPS   C1B 8949   8.013  14.709   6.800 -0.0493  0.1159 -0.3071
  791POPS   C2B 8950   8.019  14.757   7.257  0.3897  0.0179  0.1685
  791POPS   C3B 8951   8.284  15.015   7.407 -0.0243  0.1318 -0.1655
  791POPS   C4B 8952   8.222  15.366   7.591 -0.1412 -0.0805 -0.1501
  792POPS   CNO 8953   7.040   8.700   6.296  0.2065 -0.0669 -0.0417
  792POPS   PO4 8954   7.425   8.752   5.960  0.1703  0.0836 -0.2070
  792POPS   GL1 8955   7.788   8.641   6.328 -0.1246 -0.2051  0.1798
  792POPS   GL2 8956   7.681   8.599   6.601 -0.1626  0.1818  0.0778
  792POPS   C1A 8957   8.156   8.639   6.661 -0.0513  0.0238  0.3469
  792POPS   D2A 8958   8.049   8.529   7.126 -0.0289 -0.1253  0.2821
  792POPS   C3A 8959   7.867   8.189   7.304  0.0731 -0.3789  0.0043
  792POPS   C4A 8960   7.598   8.194   7.698 -0.0496  0.4573  0.0805
  792POPS   C1B 8961   7.588   8.329   6.898 -0.0479 -0.0097 -0.0600
  792POPS   C2B 8962   7.444   7.917   7.167 -0.1079 -0.0967 -0.0078
  792POPS   C3B 8963   7.147   7.858   7.441  0.0233  0.1910 -0.0714
  792POPS   C4B 8964   7.080   8.188   7.892 -0.3359 -0.1811  0.0172
  793POPS   CNO 8965  17.893   0.570   6.333 -0.1764  0.0525 -0.2314
  793POPS   PO4 8966  17.905   0.992   6.137 -0.1489 -0.1431 -0.0397
  793POPS   GL1 8967  18.205   0.998   6.531  0.0703 -0.1317 -0.2045
  793POPS   GL2 8968  18.203   1.368   6.704  0.0449 -0.3026  0.0963
  793POPS   C1A 8969  18.264   0.944   7.063 -0.2964  0.4615  0.0560
  793POPS   D2A 8970  18.143   1.173   7.447 -0.2583 -0.0003  0.0693
  793POPS   C3A 8971  18.178   1.583   7.697 -0.1093  0.1073  0.1147
  793POPS   C4A 8972  18.307   1.665   8.099  0.0074 -0.0812  0.0857
  793POPS   C1B 8973  17.870   1.289   7.065  0.0951 -0.0494 -0.4039
  793POPS   C2B 8974  17.681   1.504   7.492 -0.0757 -0.3340 -0.0826
  793POPS   C3B 8975  17.695   1.708   7.927 -0.2195 -0.0165 -0.1807
  793POPS   C4B 8976  17.507   1.908   8.353 -0.1590 -0.0514 -0.0901
  794POPS   CNO 8977   5.616   2.089   5.825 -0.1671 -0.1775 -0.1886
  794POPS   PO4 8978   5.533   2.374   6.181 -0.0222  0.3095  0.1460
  794POPS   GL1 8979   5.510   2.262   6.512  0.1655 -0.2554 -0.1473
  794POPS   GL2 8980   5.177   2.352   6.723  0.0797 -0.1583 -0.3535
  794POPS   C1A 8981   5.601   2.588   6.843  0.0213  0.0148 -0.3327
  794POPS   D2A 8982   5.646   2.571   7.282 -0.1725  0.3498 -0.1551
  794POPS   C3A 8983   5.542   2.858   7.586 -0.2531  0.2030  0.0666
  794POPS   C4A 8984   5.232   3.243   7.623  0.2200 -0.0560  0.3400
  794POPS   C1B 8985   5.229   2.347   7.169  0.0879 -0.0035  0.3070
  794POPS   C2B 8986   5.331   2.398   7.641 -0.1816  0.1881 -0.0903
  794POPS   C3B 8987   5.171   2.358   8.076 -0.2204  0.3837 -0.4261
  794POPS   C4B 8988   5.225   2.274   8.536  0.1752 -0.3990 -0.0457
  795POPS   CNO 8989   0.456   6.737   4.994  0.2166 -0.2198  0.0898
  795POPS   PO4 8990   0.478   6.617   5.424 -0.0813  0.0313  0.0066
  795POPS   GL1 8991   0.380   6.786   5.782 -0.2371 -0.1059  0.3714
  795POPS   GL2 8992   0.626   6.632   6.122  0.3055  0.0958 -0.0238
  795POPS   C1A 8993   0.351   7.058   6.220  0.3602 -0.0025  0.2178
  795POPS   D2A 8994   0.424   6.883   6.592  0.1928 -0.1064 -0.0226
  795POPS   C3A 8995   0.189   6.440   6.887 -0.1527  0.3269  0.0880
  795POPS   C4A 8996  -0.138   6.546   7.185  0.0988  0.1975  0.0914
  795POPS   C1B 8997   1.082   6.577   6.269  0.3260  0.0597  0.4500
  795POPS   C2B 8998   1.314   6.472   6.672  0.6876 -0.1440 -0.0946
  795POPS   C3B 8999   1.326   6.343   7.151 -0.0528  0.0527 -0.2328
  795POPS   C4B 9000   1.288   6.203   7.517  0.1359  0.1485 -0.0224
  796POPS   CNO 9001   1.638   2.415   6.440 -0.2134 -0.2574 -0.0599
  796POPS   PO4 9002   1.848   2.829   6.572 -0.2021  0.2926  0.1188
  796POPS   GL1 9003   2.100   2.812   6.907  0.2143 -0.0108  0.1360
  796POPS   GL2 9004   1.989   2.537   7.041  0.0244 -0.2170  0.2130
  796POPS   C1A 9005   2.451   2.700   6.967 -0.0659  0.3535  0.1973
  796POPS   D2A 9006   2.605   2.369   6.765 -0.1528  0.1651  0.1231
  796POPS   C3A 9007   2.894   2.081   6.965 -0.1641 -0.0506 -0.0826
  796POPS   C4A 9008   3.287   2.090   7.208  0.1674  0.1916  0.1781
  796POPS   C1B 9009   2.043   2.670   7.497 -0.2280 -0.2267  0.1628
  796POPS   C2B 9010   2.312   2.741   7.819 -0.2669 -0.1464  0.1329
  796POPS   C3B 9011   2.720   2.511   7.840  0.0967 -0.1119 -0.1263
  796POPS   C4B 9012   2.846   2.245   8.102 -0.1266 -0.2797  0.0830
  797POPS   CNO 9013  17.752   0.972   6.613  0.1407  0.2617  0.0745
  797POPS   PO4 9014  17.467   0.526   6.547 -0.0481  0.0956  0.0274
  797POPS   GL1 9015  17.459   0.599   6.918  0.0884  0.0496  0.0313
  797POPS   GL2 9016  17.488   0.309   7.143 -0.0363 -0.0777 -0.1048
  797POPS   C1A 9017  17.744   0.842   7.250  0.1525  0.2022  0.1097
  797POPS   D2A 9018  17.690   0.884   7.623  0.0098  0.2502  0.1220
  797POPS   C3A 9019  17.877   1.138   7.881 -0.0282  0.1113  0.1264
  797POPS   C4A 9020  17.963   1.255   8.258 -0.0227 -0.0072 -0.3911
  797POPS   C1B 9021  17.600   0.428   7.515  0.0122 -0.1050 -0.0096
  797POPS   C2B 9022  17.677   0.392   7.884  0.3667  0.3345  0.0888
  797POPS   C3B 9023  17.594   0.338   8.203 -0.3732  0.2088  0.0076
  797POPS   C4B 9024  17.740   0.397   8.555 -0.1497  0.0984 -0.2074
  798POPS   CNO 9025  10.426  13.800   6.391  0.0892  0.4352  0.4131
  798POPS   PO4 9026  10.683  13.505   6.197  0.4813 -0.0014  0.1208
  798POPS   GL1 9027  10.679  13.422   6.625  0.0462  0.2445 -0.0175
  798POPS   GL2 9028  10.716  13.820   6.797 -0.0617 -0.0981  0.1552
  798POPS   C1A 9029  10.873  13.363   7.018  0.0705  0.2105  0.2973
  798POPS   D2A 9030  10.874  13.517   7.365 -0.0512  0.1917 -0.2369
  798POPS   C3A 9031  10.659  13.432   7.769 -0.2301  0.0230  0.0454
  798POPS   C4A 9032  10.793  13.526   8.152  0.0358 -0.0642  0.0105
  798POPS   C1B 9033  10.482  13.709   7.074 -0.0522 -0.0461  0.2416
  798POPS   C2B 9034  10.511  13.861   7.488  0.0745 -0.0934  0.1029
  798POPS   C3B 9035  10.533  14.167   7.758 -0.0702 -0.0947  0.0779
  798POPS   C4B 9036  10.730  14.067   8.119  0.2843 -0.0347  0.0683
  799POPS   CNO 9037   9.737   6.448   5.848 -0.0861 -0.2845  0.1567
  799POPS   PO4 9038   9.438   6.637   6.155 -0.1832 -0.2881 -0.0102
  799POPS   GL1 9039   9.292   6.363   6.468 -0.0429 -0.1351 -0.2408
  799POPS   GL2 9040   9.063   6.147   6.361 -0.0864  0.2237 -0.0732
  799POPS   C1A 9041   9.580   6.154   6.723  0.1057 -0.0174 -0.1322
  799POPS   D2A 9042   9.571   5.803   7.005 -0.1838  0.0181  0.0521
  799POPS   C3A 9043   9.596   5.779   7.365  0.1309  0.0175  0.1790
  799POPS   C4A 9044   9.681   6.093   7.732 -0.1202 -0.0206 -0.4626
  799POPS   C1B 9045   9.144   5.927   6.704  0.1907 -0.2301  0.3946
  799POPS   C2B 9046   9.022   5.771   7.080 -0.0154 -0.1075 -0.0972
  799POPS   C3B 9047   9.126   5.655   7.475  0.0711  0.1625  0.1673
  799POPS   C4B 9048   9.260   5.650   7.757 -0.1162 -0.2094 -0.0253
  800POPS   CNO 9049   6.389   7.901   6.045 -0.2060  0.0406  0.0323
  800POPS   PO4 9050   6.361   7.515   5.939  0.0204  0.5254  0.1627
  800POPS   GL1 9051   6.116   7.534   6.307  0.0793  0.1371 -0.0904
  800POPS   GL2 9052   6.001   7.825   6.380  0.1918 -0.0487 -0.0049
  800POPS   C1A 9053   6.266   7.585   6.720 -0.0626  0.1743 -0.1214
  800POPS   D2A 9054   6.396   7.511   7.100  0.0227 -0.0560  0.0174
  800POPS   C3A 9055   6.226   7.210   7.349 -0.0522 -0.0619  0.1708
  800POPS   C4A 9056   6.014   7.231   7.687 -0.1699  0.0238  0.3033
  800POPS   C1B 9057   5.767   7.664   6.647  0.0227  0.6775 -0.3122
  800POPS   C2B 9058   5.887   7.288   7.002  0.1880 -0.2968 -0.3730
  800POPS   C3B 9059   6.189   6.941   6.916  0.1769  0.0225  0.0183
  800POPS   C4B 9060   6.287   6.556   7.056  0.2742 -0.1733  0.0583
  801POPS   CNO 9061   2.698   5.958   5.730  0.0513  0.1517 -0.2106
  801POPS   PO4 9062   2.433   5.862   6.008 -0.0422  0.0041 -0.0726
  801POPS   GL1 9063   2.221   6.047   6.354 -0.2581 -0.1497 -0.2962
  801POPS   GL2 9064   2.267   6.346   6.355 -0.0333  0.0643  0.2948
  801POPS   C1A 9065   2.131   5.933   6.758  0.0329  0.2414  0.2334
  801POPS   D2A 9066   2.071   5.917   7.174  0.0671  0.1048  0.0222
  801POPS   C3A 9067   2.211   5.894   7.478  0.1008 -0.1479 -0.1791
  801POPS   C4A 9068   2.326   5.893   7.936 -0.1313  0.2772 -0.2071
  801POPS   C1B 9069   2.261   6.400   6.800  0.1920  0.1732  0.3814
  801POPS   C2B 9070   2.273   6.352   7.267  0.1922 -0.0136 -0.1994
  801POPS   C3B 9071   2.220   6.347   7.690 -0.0019 -0.2446  0.1949
  801POPS   C4B 9072   2.242   6.590   8.091  0.1715  0.1749  0.2020
  802POPS   CNO 9073  10.173  17.121   6.307  0.0063 -0.1147 -0.2494
  802POPS   PO4 9074  10.063  16.787   6.019 -0.3960  0.0075  0.0490
  802POPS   GL1 9075  10.091  16.660   6.458 -0.4092 -0.0789 -0.2132
  802POPS   GL2 9076  10.346  16.458   6.540 -0.1511  0.2394 -0.2239
  802POPS   C1A 9077   9.946  16.471   6.863  0.0857  0.0737  0.1863
  802POPS   D2A 9078   9.864  16.394   7.322  0.1539 -0.1032  0.1402
  802POPS   C3A 9079   9.566  16.541   7.698 -0.0133 -0.0992  0.2265
  802POPS   C4A 9080   9.327  16.711   8.000  0.4942 -0.4104 -0.0481
  802POPS   C1B 9081  10.476  16.354   6.888  0.0139  0.1971 -0.1869
  802POPS   C2B 9082  10.413  16.351   7.253  0.0326  0.2517  0.3571
  802POPS   C3B 9083  10.203  16.190   7.645  0.0395  0.0103  0.0038
  802POPS   C4B 9084   9.842  16.103   7.746  0.2342  0.0645  0.1610
  803POPS   CNO 9085   5.367  10.349   5.877  0.2878  0.3661 -0.0554
  803POPS   PO4 9086   5.377  10.205   6.221  0.1374  0.0183 -0.3983
  803POPS   GL1 9087   5.156  10.314   6.491 -0.0886  0.0760  0.2065
  803POPS   GL2 9088   4.940  10.446   6.381  0.0400 -0.1050 -0.0315
  803POPS   C1A 9089   4.974  10.360   6.944 -0.0643  0.1160  0.1413
  803POPS   D2A 9090   5.102  10.349   7.451  0.0374 -0.2310  0.2423
  803POPS   C3A 9091   5.316  10.114   7.762  0.2846  0.2350  0.2164
  803POPS   C4A 9092   5.377   9.770   8.043 -0.2463 -0.0373  0.5675
  803POPS   C1B 9093   4.861  10.776   6.683  0.1446  0.2081  0.0218
  803POPS   C2B 9094   4.659  10.829   7.110  0.0972  0.4504 -0.2317
  803POPS   C3B 9095   4.658  10.664   7.426  0.1958 -0.2607 -0.0150
  803POPS   C4B 9096   4.630  10.285   7.550 -0.0965  0.0134 -0.0760
  804POPS   CNO 9097  17.317  12.085   6.005 -0.1114  0.1458 -0.0650
  804POPS   PO4 9098  17.440  12.394   6.056  0.0842 -0.1287 -0.1765
  804POPS   GL1 9099  17.424  12.356   6.477  0.1620  0.0265 -0.2423
  804POPS   GL2 9100  17.500  12.466   6.789 -0.3322 -0.3910 -0.0253
  804POPS   C1A 9101  17.116  12.249   6.815 -0.0961 -0.0390  0.1544
  804POPS   D2A 9102  16.865  12.228   7.102  0.0320  0.0486 -0.0286
  804POPS   C3A 9103  16.889  11.911   7.454 -0.1293 -0.1809 -0.1982
  804POPS   C4A 9104  16.823  12.059   7.750  0.0394  0.2144  0.2209
  804POPS   C1B 9105  17.599  12.028   7.069 -0.0436  0.2004  0.1621
  804POPS   C2B 9106  17.497  11.820   7.474 -0.1840 -0.0183 -0.1291
  804POPS   C3B 9107  17.436  11.757   7.867 -0.0510 -0.2959  0.2074
  804POPS   C4B 9108  17.527  11.862   8.319  0.0010 -0.1040 -0.1257
  805POPS   CNO 9109   3.340  13.579   6.052  0.2178 -0.0160  0.1294
  805POPS   PO4 9110   2.975  13.358   6.142 -0.1482 -0.2187 -0.1414
  805POPS   GL1 9111   3.284  13.474   6.528 -0.2694 -0.2223  0.0095
  805POPS   GL2 9112   3.589  13.334   6.489  0.2387  0.3212  0.2151
  805POPS   C1A 9113   3.154  13.388   6.927  0.0001  0.0553  0.1596
  805POPS   D2A 9114   2.962  13.038   7.104 -0.0785 -0.0952  0.1872
  805POPS   C3A 9115   3.083  12.943   7.514  0.0043  0.1621  0.0342
  805POPS   C4A 9116   3.427  12.984   7.790  0.0528  0.2201 -0.1594
  805POPS   C1B 9117   4.007  13.358   6.769  0.0154 -0.1961  0.1493
  805POPS   C2B 9118   4.190  13.241   7.059  0.3162 -0.0109 -0.1340
  805POPS   C3B 9119   4.311  13.164   7.514  0.2247  0.1357  0.0911
  805POPS   C4B 9120   4.208  13.495   7.873  0.2950  0.2586 -0.0777
  806POPS   CNO 9121  12.151  11.796   6.259 -0.0727 -0.0241 -0.2649
  806POPS   PO4 9122  12.627  11.699   6.331  0.2769 -0.0427  0.0814
  806POPS   GL1 9123  12.712  11.829   6.731  0.1870 -0.1053 -0.3520
  806POPS   GL2 9124  12.399  11.869   6.746  0.0528  0.1556  0.0195
  806POPS   C1A 9125  13.005  11.876   7.035  0.0173  0.2325 -0.0789
  806POPS   D2A 9126  13.069  11.807   7.512  0.0674 -0.0105  0.2346
  806POPS   C3A 9127  12.890  11.583   7.743 -0.2394 -0.0023 -0.2336
  806POPS   C4A 9128  12.937  11.320   8.194 -0.0181  0.0738 -0.0522
  806POPS   C1B 9129  12.130  11.703   7.107 -0.1603 -0.0535 -0.0224
  806POPS   C2B 9130  12.035  11.362   7.409  0.0548 -0.4617  0.0492
  806POPS   C3B 9131  12.064  11.041   7.796  0.1595  0.0172  0.2337
  806POPS   C4B 9132  12.144  11.000   8.288 -0.0603  0.1038 -0.2411
  807POPS   CNO 9133   7.067  11.289   5.835 -0.0570 -0.1177 -0.2024
  807POPS   PO4 9134   6.644  11.176   6.085  0.2444 -0.1368 -0.0288
  807POPS   GL1 9135   6.945  11.144   6.480  0.0881 -0.0606  0.0503
  807POPS   GL2 9136   7.014  10.926   6.666  0.4990  0.4607 -0.1428
  807POPS   C1A 9137   7.127  11.290   6.919 -0.1753 -0.0954  0.1115
  807POPS   D2A 9138   7.164  11.354   7.322  0.1445  0.0250 -0.0026
  807POPS   C3A 9139   7.330  11.129   7.715 -0.1436  0.2167  0.1969
  807POPS   C4A 9140   7.312  10.765   7.701 -0.1976  0.1053 -0.1405
  807POPS   C1B 9141   6.664  11.144   6.884  0.4236 -0.1973 -0.0242
  807POPS   C2B 9142   6.618  11.241   7.255  0.1927 -0.1116  0.2450
  807POPS   C3B 9143   6.761  11.266   7.669 -0.1156 -0.1158  0.1263
  807POPS   C4B 9144   6.939  11.177   8.092 -0.1726  0.2577 -0.4193
  808POPS   CNO 9145   1.631   7.603   5.672 -0.1159  0.2285  0.1435
  808POPS   PO4 9146   1.233   7.645   5.808 -0.0997  0.1990  0.1588
  808POPS   GL1 9147   1.246   7.446   6.155  0.0005  0.0011 -0.2198
  808POPS   GL2 9148   1.118   7.192   6.122  0.0369  0.0940 -0.0069
  808POPS   C1A 9149   1.459   7.278   6.539  0.1376 -0.0389 -0.0222
  808POPS   D2A 9150   1.735   7.139   6.873 -0.1814  0.3923  0.0513
  808POPS   C3A 9151   1.632   7.280   7.270  0.1136 -0.0782 -0.1392
  808POPS   C4A 9152   1.700   7.213   7.746 -0.0476  0.0530 -0.1087
  808POPS   C1B 9153   0.989   6.991   6.506 -0.0316  0.1162  0.0699
  808POPS   C2B 9154   0.800   7.057   6.901 -0.1689 -0.1925  0.0107
  808POPS   C3B 9155   0.767   7.074   7.296 -0.0546 -0.0795 -0.0495
  808POPS   C4B 9156   0.787   7.182   7.634 -0.0412  0.1936  0.1632
  809YOPS   CNO 9157  17.639  17.567   6.586 -0.0414  0.3724 -0.2860
  809YOPS   PO4 9158  17.694  17.279   6.852  0.0699 -0.1085 -0.0222
  809YOPS   GL1 9159  17.779  17.350   7.301  0.1637 -0.1122  0.1046
  809YOPS   GL2 9160  18.168  17.417   7.288  0.0644  0.3051 -0.2249
  809YOPS   C1A 9161  17.945  17.214   7.669  0.3495 -0.0546  0.0120
  809YOPS   D2A 9162  17.882  17.244   8.091 -0.0529 -0.0480  0.0463
  809YOPS   C3A 9163  18.001  17.350   8.523  0.1466  0.1850 -0.0874
  809YOPS   C4A 9164  17.869  17.785   8.685  0.3365  0.1389  0.1938
  809YOPS   C1B 9165  17.997  17.705   7.678  0.1687  0.2565 -0.1676
  809YOPS   C2B 9166  17.892  17.778   8.143  0.0367  0.2913  0.2430
  809YOPS   D3B 9167  17.916  18.189   8.337 -0.3666  0.0136 -0.1103
  809YOPS   C4B 9168  17.830  18.326   8.722 -0.0337  0.1365 -0.0060
  810YOPS   CNO 9169   5.165  14.403   6.941 -0.0543  0.1410 -0.1857
  810YOPS   PO4 9170   5.119  13.985   6.603 -0.0730  0.0411 -0.3779
  810YOPS   GL1 9171   4.982  13.855   7.107 -0.2272 -0.1487  0.2089
  810YOPS   GL2 9172   4.719  14.054   7.107  0.1238 -0.1585 -0.1911
  810YOPS   C1A 9173   5.105  13.998   7.548 -0.3688 -0.2849  0.3263
  810YOPS   D2A 9174   4.952  13.875   7.931  0.0066  0.2781  0.2186
  810YOPS   C3A 9175   4.570  13.924   8.095 -0.1368 -0.0223  0.1738
  810YOPS   C4A 9176   4.369  13.657   8.385 -0.0238  0.2923 -0.3851
  810YOPS   C1B 9177   4.781  14.345   7.333 -0.1644  0.1390  0.2519
  810YOPS   C2B 9178   4.777  14.362   7.719  0.0416  0.0408  0.0670
  810YOPS   D3B 9179   4.792  14.392   8.125 -0.1269  0.3670 -0.1039
  810YOPS   C4B 9180   4.978  14.676   8.425 -0.1536 -0.1527 -0.1044
  811YOPS   CNO 9181  14.257  17.291   6.146  0.0411  0.0207  0.1343
  811YOPS   PO4 9182  14.364  17.053   6.500  0.4278 -0.1627 -0.0688
  811YOPS   GL1 9183  14.196  17.015   6.860  0.2680  0.0508 -0.0737
  811YOPS   GL2 9184  14.308  16.695   6.933  0.1795 -0.1099  0.0408
  811YOPS   C1A 9185  14.048  17.321   7.140 -0.1330  0.2461  0.3603
  811YOPS   D2A 9186  13.716  17.486   7.216  0.4301  0.1405 -0.0345
  811YOPS   C3A 9187  13.458  17.743   7.370 -0.1538  0.1335 -0.0695
  811YOPS   C4A 9188  13.233  17.526   7.512 -0.2436  0.1566 -0.4369
  811YOPS   C1B 9189  14.305  16.883   7.337 -0.0420  0.1042  0.4322
  811YOPS   C2B 9190  14.574  16.703   7.679  0.0016 -0.1797  0.1373
  811YOPS   D3B 9191  14.718  16.711   8.080  0.0089 -0.2289  0.0774
  811YOPS   C4B 9192  14.677  16.351   8.227  0.1186  0.0985  0.0256
  812YOPS   CNO 9193   4.538   4.998   6.147  0.0245 -0.0841  0.1558
  812YOPS   PO4 9194   4.943   5.089   5.989  0.1725 -0.0910 -0.0029
  812YOPS   GL1 9195   5.061   4.941   6.365 -0.2462  0.0128  0.1045
  812YOPS   GL2 9196   4.813   5.012   6.538  0.0649  0.0900 -0.2062
  812YOPS   C1A 9197   5.169   4.814   6.748 -0.0623  0.0717  0.1603
  812YOPS   D2A 9198   5.297   4.463   6.958  0.2407 -0.1935 -0.2423
  812YOPS   C3A 9199   5.445   4.360   7.367  0.1925  0.1728 -0.0428
  812YOPS   C4A 9200   5.291   4.588   7.721  0.1808 -0.0989 -0.0793
  812YOPS   C1B 9201   4.841   5.058   7.032  0.0256  0.0695 -0.0012
  812YOPS   C2B 9202   5.174   4.847   7.241 -0.1152  0.0090 -0.0970
  812YOPS   D3B 9203   5.496   5.114   7.494  0.3485 -0.0838 -0.0557
  812YOPS   C4B 9204   5.378   5.049   7.917 -0.1067 -0.1905  0.0717
  813YOPS   CNO 9205  15.430  12.553   6.356  0.0233 -0.1480 -0.0337
  813YOPS   PO4 9206  15.687  12.291   6.555  0.0026  0.2616 -0.1982
  813YOPS   GL1 9207  15.874  12.174   6.883 -0.1158 -0.0230 -0.2977
  813YOPS   GL2 9208  16.084  12.382   6.985 -0.3400 -0.0350  0.0925
  813YOPS   C1A 9209  15.926  11.960   7.205 -0.2251  0.0815 -0.3138
  813YOPS   D2A 9210  16.021  11.855   7.616  0.2318 -0.0433  0.1027
  813YOPS   C3A 9211  15.943  11.772   7.958  0.1143 -0.4906  0.0509
  813YOPS   C4A 9212  15.802  11.467   8.241  0.0663 -0.4211  0.2828
  813YOPS   C1B 9213  15.668  12.353   7.345  0.4719 -0.2246  0.4536
  813YOPS   C2B 9214  15.746  12.296   7.745  0.1081  0.0919  0.0397
  813YOPS   D3B 9215  16.041  12.245   8.069 -0.0841  0.1785 -0.0141
  813YOPS   C4B 9216  15.881  12.011   8.416  0.0822 -0.0026  0.1060
  814YOPS   CNO 9217  11.814  16.724   5.909  0.1348 -0.1127 -0.0371
  814YOPS   PO4 9218  11.659  16.601   6.244  0.0450  0.1453 -0.0664
  814YOPS   GL1 9219  11.799  16.698   6.640 -0.2097 -0.0698  0.0245
  814YOPS   GL2 9220  11.978  16.481   6.722 -0.0176 -0.0650 -0.1098
  814YOPS   C1A 9221  11.763  16.757   7.135 -0.2672  0.2837  0.2188
  814YOPS   D2A 9222  11.539  16.969   7.486 -0.1725 -0.2288 -0.0243
  814YOPS   C3A 9223  11.643  16.825   7.932 -0.0520 -0.0419  0.3029
  814YOPS   C4A 9224  11.639  16.367   8.047  0.1214  0.0036  0.0077
  814YOPS   C1B 9225  12.003  16.236   7.196  0.0553 -0.0293 -0.0110
  814YOPS   C2B 9226  11.898  16.523   7.609  0.1194 -0.1205 -0.0166
  814YOPS   D3B 9227  12.072  16.681   8.062 -0.1395  0.3322 -0.0973
  814YOPS   C4B 9228  12.033  16.186   8.336  0.1284  0.1463 -0.0808
  815YOPS   CNO 9229  16.389   6.679   5.645 -0.0013 -0.0258  0.0237
  815YOPS   PO4 9230  16.874   6.678   5.807  0.2061 -0.0725 -0.0439
  815YOPS   GL1 9231  16.662   6.822   6.115 -0.1837  0.0631  0.2805
  815YOPS   GL2 9232  16.591   7.140   6.263 -0.1922  0.1714  0.0164
  815YOPS   C1A 9233  16.953   6.873   6.442 -0.0800 -0.0616 -0.0860
  815YOPS   D2A 9234  17.077   6.800   6.836 -0.0674  0.1038  0.1237
  815YOPS   C3A 9235  16.916   6.884   7.224 -0.2420 -0.0601 -0.0328
  815YOPS   C4A 9236  17.263   7.103   7.445 -0.0317 -0.0867  0.0925
  815YOPS   C1B 9237  16.645   7.241   6.667 -0.2098 -0.0715 -0.0552
  815YOPS   C2B 9238  16.662   7.389   7.099 -0.3203  0.1467 -0.0494
  815YOPS   D3B 9239  16.856   7.337   7.536 -0.0328 -0.2509  0.1881
  815YOPS   C4B 9240  16.831   6.937   7.723 -0.0722  0.4447  0.2206
  816YOPS   CNO 9241  16.355  15.508   6.069 -0.1606 -0.1082 -0.1412
  816YOPS   PO4 9242  16.587  15.390   6.456  0.0053 -0.1637 -0.1040
  816YOPS   GL1 9243  16.438  15.404   6.947  0.1954 -0.2026 -0.4095
  816YOPS   GL2 9244  16.536  15.163   7.087  0.2324  0.0676  0.1430
  816YOPS   C1A 9245  16.383  15.553   7.394  0.0054 -0.1972 -0.2316
  816YOPS   D2A 9246  16.347  15.721   7.653  0.1659 -0.0803 -0.1077
  816YOPS   C3A 9247  16.166  15.953   7.978 -0.1579  0.1623  0.1325
  816YOPS   C4A 9248  16.305  16.286   8.163 -0.0772  0.1606 -0.1084
  816YOPS   C1B 9249  16.771  15.265   7.395 -0.0822  0.1886 -0.2058
  816YOPS   C2B 9250  16.583  15.294   7.861 -0.0406 -0.0959 -0.1383
  816YOPS   D3B 9251  16.515  15.421   8.305  0.2164  0.0887  0.0298
  816YOPS   C4B 9252  16.402  15.892   8.561  0.1329  0.0649 -0.1415
  817YOPS   CNO 9253   1.750  13.375   6.142  0.0920  0.4042 -0.1082
  817YOPS   PO4 9254   2.091  13.289   6.480 -0.3099  0.1101 -0.3396
  817YOPS   GL1 9255   2.321  13.232   6.727 -0.0765  0.0368 -0.0529
  817YOPS   GL2 9256   2.259  13.335   7.076  0.2215 -0.1224  0.2841
  817YOPS   C1A 9257   2.437  12.880   6.999 -0.1737  0.1334  0.1848
  817YOPS   D2A 9258   2.517  12.950   7.418  0.4000 -0.1938 -0.3278
  817YOPS   C3A 9259   2.417  12.810   7.804  0.1589  0.1765  0.0303
  817YOPS   C4A 9260   2.475  12.602   8.140  0.1645 -0.1156 -0.1976
  817YOPS   C1B 9261   2.243  13.422   7.548 -0.2502  0.1503 -0.0125
  817YOPS   C2B 9262   2.378  13.333   7.834 -0.3514  0.1445  0.0545
  817YOPS   D3B 9263   2.619  13.191   8.097 -0.0579 -0.2428  0.1210
  817YOPS   C4B 9264   2.912  12.823   7.946 -0.2410 -0.2310  0.3954
  818YOPS   CNO 9265   7.088   9.959   6.335  0.0994 -0.2686 -0.4257
  818YOPS   PO4 9266   7.140   9.572   6.223  0.0684  0.1206  0.0218
  818YOPS   GL1 9267   7.245   9.497   6.561  0.1860  0.0133  0.2122
  818YOPS   GL2 9268   7.284   9.772   6.742 -0.2554  0.4127 -0.1094
  818YOPS   C1A 9269   7.371   9.296   6.878 -0.2759 -0.0192 -0.1443
  818YOPS   D2A 9270   7.118   9.246   7.215  0.0760 -0.2165 -0.2262
  818YOPS   C3A 9271   6.933   8.937   7.514 -0.0412  0.1409 -0.0714
  818YOPS   C4A 9272   6.815   9.161   7.931 -0.2562  0.0074 -0.2162
  818YOPS   C1B 9273   7.398   9.747   7.129  0.1464  0.1527 -0.0820
  818YOPS   C2B 9274   7.376  10.000   7.575 -0.0053  0.2133  0.3162
  818YOPS   D3B 9275   7.362   9.959   7.923 -0.0731 -0.0766 -0.1271
  818YOPS   C4B 9276   7.453   9.601   8.160 -0.3703 -0.3764 -0.0089
  819YOPS   CNO 9277   4.627  16.941   6.337 -0.1213  0.2133  0.3547
  819YOPS   PO4 9278   4.208  16.682   6.280  0.3196 -0.0988 -0.0353
  819YOPS   GL1 9279   4.194  16.684   6.757 -0.2159 -0.1219  0.1201
  819YOPS   GL2 9280   4.461  16.459   6.946  0.0135  0.3554 -0.1212
  819YOPS   C1A 9281   4.121  16.708   7.207  0.0040 -0.0660 -0.0318
  819YOPS   D2A 9282   4.104  16.585   7.680  0.0742 -0.3053 -0.0429
  819YOPS   C3A 9283   4.188  16.734   8.139  0.4504  0.1538 -0.4741
  819YOPS   C4A 9284   4.393  17.122   7.986  0.0116 -0.1432  0.0604
  819YOPS   C1B 9285   4.492  16.351   7.400 -0.0990  0.0237  0.3486
  819YOPS   C2B 9286   4.574  16.349   7.880 -0.0968  0.2188 -0.1592
  819YOPS   D3B 9287   4.418  16.270   8.383  0.0055 -0.2108 -0.0889
  819YOPS   C4B 9288   4.007  16.498   8.598  0.0486  0.0939 -0.1266
  820YOPS   CNO 9289   1.354   2.935   6.002  0.0354  0.0932 -0.1154
  820YOPS   PO4 9290   1.206   2.537   6.088 -0.4389  0.1932  0.2813
  820YOPS   GL1 9291   1.237   2.674   6.562 -0.4033 -0.0003  0.1728
  820YOPS   GL2 9292   1.362   2.999   6.643  0.0381  0.1228  0.0221
  820YOPS   C1A 9293   0.907   2.876   6.767  0.1492  0.2066  0.1338
  820YOPS   D2A 9294   0.982   2.909   7.210 -0.0846 -0.2634  0.0066
  820YOPS   C3A 9295   0.793   2.665   7.583  0.1943 -0.1810  0.0932
  820YOPS   C4A 9296   0.509   2.814   7.831  0.0253 -0.0499 -0.1534
  820YOPS   C1B 9297   1.443   2.741   7.024 -0.3106  0.1765  0.1827
  820YOPS   C2B 9298   1.475   2.702   7.444 -0.1968  0.0354 -0.4301
  820YOPS   D3B 9299   1.206   2.550   7.799 -0.0064  0.2730 -0.2089
  820YOPS   C4B 9300   1.271   2.308   8.168 -0.1606 -0.3072 -0.0745
  821YOPS   CNO 9301   1.203  16.170   6.784 -0.0944 -0.1999  0.0189
  821YOPS   PO4 9302   1.288  15.869   7.192 -0.1983  0.0815 -0.0684
  821YOPS   GL1 9303   1.411  15.930   7.595 -0.2896 -0.1103 -0.1391
  821YOPS   GL2 9304   1.637  15.794   7.640 -0.0738  0.1694 -0.3399
  821YOPS   C1A 9305   1.166  15.895   7.895  0.0188  0.1988 -0.1403
  821YOPS   D2A 9306   1.253  15.767   8.329  0.0072 -0.1704 -0.3067
  821YOPS   C3A 9307   1.387  15.587   8.756  0.0361 -0.3363  0.1495
  821YOPS   C4A 9308   1.530  15.276   8.834  0.1478  0.0982  0.2780
  821YOPS   C1B 9309   1.704  15.847   8.136  0.2469  0.0615  0.1398
  821YOPS   C2B 9310   1.858  15.670   8.533  0.0203  0.0649  0.1117
  821YOPS   D3B 9311   1.933  15.548   8.887 -0.2670 -0.0421  0.0247
  821YOPS   C4B 9312   1.721  15.717   9.202  0.2633 -0.1042  0.0584
  822YOPS   CNO 9313  16.292   2.899   6.321 -0.1571 -0.4090 -0.1753
  822YOPS   PO4 9314  15.846   2.669   6.223 -0.0484  0.1919  0.0395
  822YOPS   GL1 9315  16.039   2.571   6.660 -0.3342  0.1201  0.1206
  822YOPS   GL2 9316  15.957   2.310   6.873  0.0572  0.3081  0.1307
  822YOPS   C1A 9317  16.303   2.691   7.034  0.1293 -0.1488 -0.2691
  822YOPS   D2A 9318  16.380   2.709   7.372 -0.0732  0.0839  0.0282
  822YOPS   C3A 9319  16.350   2.918   7.564 -0.0191 -0.2869 -0.1156
  822YOPS   C4A 9320  16.414   2.857   7.925  0.1816 -0.0968  0.0126
  822YOPS   C1B 9321  16.156   2.280   7.328  0.0277  0.2118  0.0920
  822YOPS   C2B 9322  16.165   2.260   7.761  0.3556  0.0325 -0.0257
  822YOPS   D3B 9323  16.328   2.391   8.168 -0.0686 -0.0519 -0.1297
  822YOPS   C4B 9324  16.285   2.153   8.551  0.1428 -0.2882  0.0679
  823YOPS   CNO 9325   5.563  15.033   6.212  0.1420  0.0057  0.0573
  823YOPS   PO4 9326   5.360  15.324   6.452  0.4286  0.2337 -0.2183
  823YOPS   GL1 9327   5.341  15.420   6.928  0.1682  0.2257 -0.0619
  823YOPS   GL2 9328   5.472  15.633   6.813 -0.1608  0.1480 -0.4509
  823YOPS   C1A 9329   5.609  15.439   7.346  0.1124  0.0088  0.1930
  823YOPS   D2A 9330   5.697  15.505   7.771 -0.1746  0.1557 -0.2136
  823YOPS   C3A 9331   6.201  15.539   7.867 -0.0445  0.0504 -0.3014
  823YOPS   C4A 9332   6.485  15.757   8.144  0.1344  0.2330  0.6044
  823YOPS   C1B 9333   5.634  15.900   7.210 -0.0926  0.1651 -0.0499
  823YOPS   C2B 9334   5.785  16.041   7.594 -0.0795  0.3954 -0.1686
  823YOPS   D3B 9335   5.897  15.925   8.039 -0.0752  0.3366  0.0036
  823YOPS   C4B 9336   6.286  16.226   8.171  0.0662 -0.1590 -0.0455
  824YOPS   CNO 9337  15.265   5.170   5.275  0.0961  0.1902  0.0944
  824YOPS   PO4 9338  15.269   4.856   5.715  0.1045 -0.1886  0.0144
  824YOPS   GL1 9339  15.362   4.956   6.135 -0.0401  0.0056 -0.0921
  824YOPS   GL2 9340  15.008   5.123   6.251  0.0756 -0.2066 -0.1338
  824YOPS   C1A 9341  15.414   5.051   6.508 -0.2652  0.1854  0.1683
  824YOPS   D2A 9342  15.361   5.196   6.922 -0.1696 -0.0066 -0.0860
  824YOPS   C3A 9343  15.171   5.258   7.401  0.1801 -0.0957 -0.3473
  824YOPS   C4A 9344  15.053   5.265   7.825  0.1159  0.2750  0.0221
  824YOPS   C1B 9345  14.895   5.155   6.623 -0.1713 -0.0662  0.2585
  824YOPS   C2B 9346  14.862   5.106   6.931  0.1382  0.2613  0.2754
  824YOPS   D3B 9347  14.625   4.919   7.263  0.0657  0.2951  0.0041
  824YOPS   C4B 9348  14.748   4.416   7.483 -0.1358 -0.0775 -0.1646
  825YOPS   CNO 9349  16.384   1.312   6.117  0.1317  0.0210 -0.3804
  825YOPS   PO4 9350  16.055   1.548   6.344 -0.0658 -0.0236  0.0781
  825YOPS   GL1 9351  16.070   1.639   6.772  0.1203  0.2503 -0.1475
  825YOPS   GL2 9352  15.853   1.426   6.904  0.1235  0.1259 -0.2687
  825YOPS   C1A 9353  16.083   1.744   7.172 -0.0769 -0.2614  0.2627
  825YOPS   D2A 9354  16.207   1.785   7.567 -0.0122  0.1027  0.3004
  825YOPS   C3A 9355  16.407   1.881   7.970 -0.2102 -0.0625 -0.1845
  825YOPS   C4A 9356  16.811   2.177   8.088  0.1734  0.1743  0.0083
  825YOPS   C1B 9357  15.722   1.343   7.335  0.0746  0.2158  0.1867
  825YOPS   C2B 9358  15.728   1.560   7.669 -0.1049  0.0091  0.3544
  825YOPS   D3B 9359  15.661   1.525   8.153  0.3216  0.0802  0.0731
  825YOPS   C4B 9360  15.278   1.490   8.300 -0.0222  0.0874  0.1350
  826YOPS   CNO 9361   8.467   4.987   5.989 -0.1339  0.1496  0.0838
  826YOPS   PO4 9362   8.773   5.280   5.923  0.2916 -0.2380  0.2622
  826YOPS   GL1 9363   8.892   5.010   6.270 -0.2176 -0.1803  0.1429
  826YOPS   GL2 9364   8.680   5.027   6.476  0.0280 -0.0624 -0.0708
  826YOPS   C1A 9365   9.157   5.056   6.694 -0.0758 -0.2458 -0.2610
  826YOPS   D2A 9366   9.467   4.850   6.932  0.0969 -0.2945  0.2290
  826YOPS   C3A 9367   9.700   4.918   7.338  0.2276  0.1099  0.2334
  826YOPS   C4A 9368   9.764   4.673   7.634  0.0020  0.0414  0.2568
  826YOPS   C1B 9369   8.607   4.855   6.763  0.1613  0.1086  0.0074
  826YOPS   C2B 9370   8.433   4.729   7.169 -0.2069 -0.2426  0.0887
  826YOPS   D3B 9371   8.153   4.421   7.384  0.1488 -0.1414  0.0686
  826YOPS   C4B 9372   8.393   4.015   7.599  0.4028  0.1374 -0.1554
  827YOPS   CNO 9373   1.689  12.509   5.823  0.0477 -0.0896  0.3607
  827YOPS   PO4 9374   1.936  12.448   6.122  0.1373 -0.0044 -0.0173
  827YOPS   GL1 9375   1.917  12.295   6.518 -0.0027 -0.0709  0.0179
  827YOPS   GL2 9376   1.678  12.481   6.731  0.5042 -0.1706  0.1287
  827YOPS   C1A 9377   2.265  12.418   6.888  0.3896  0.2401 -0.2907
  827YOPS   D2A 9378   2.250  12.497   7.378  0.1499  0.1990 -0.1203
  827YOPS   C3A 9379   2.156  12.397   7.791  0.1608 -0.0082  0.0754
  827YOPS   C4A 9380   1.945  12.460   8.097  0.3104  0.1700 -0.1770
  827YOPS   C1B 9381   1.502  12.569   7.132  0.1441  0.1940  0.0864
  827YOPS   C2B 9382   1.349  12.697   7.488  0.1561  0.2854 -0.0429
  827YOPS   D3B 9383   1.081  12.910   7.772  0.0565 -0.1013  0.2591
  827YOPS   C4B 9384   1.288  13.263   8.087  0.2309 -0.0786  0.2310
  828YOPS   CNO 9385   4.348  11.531   6.234 -0.0385 -0.0492 -0.2797
  828YOPS   PO4 9386   4.192  11.973   6.474  0.2639 -0.3033 -0.1120
  828YOPS   GL1 9387   4.089  11.776   6.830  0.1828  0.2680  0.4135
  828YOPS   GL2 9388   4.284  11.533   6.843 -0.0662 -0.0556 -0.0130
  828YOPS   C1A 9389   4.303  11.790   7.290  0.0813  0.1042 -0.1477
  828YOPS   D2A 9390   4.311  11.554   7.725  0.0799  0.2848  0.4420
  828YOPS   C3A 9391   4.248  11.232   8.051  0.0763 -0.0415  0.0994
  828YOPS   C4A 9392   3.883  11.265   8.197 -0.0157 -0.1600  0.1539
  828YOPS   C1B 9393   4.304  11.285   7.245 -0.0847 -0.2497  0.1188
  828YOPS   C2B 9394   4.324  11.019   7.576  0.0277 -0.1271 -0.6060
  828YOPS   D3B 9395   4.457  10.782   7.845 -0.0073 -0.0718 -0.2947
  828YOPS   C4B 9396   4.511  10.909   8.270 -0.1012  0.0172 -0.0030
  829YOPS   CNO 9397  14.037  15.984   6.693  0.0955  0.3082 -0.3097
  829YOPS   PO4 9398  13.623  15.803   6.549 -0.1645 -0.1935 -0.2480
  829YOPS   GL1 9399  13.656  15.827   7.027  0.0560  0.1159 -0.3293
  829YOPS   GL2 9400  13.552  16.113   7.211  0.1448 -0.0318 -0.1805
  829YOPS   C1A 9401  13.694  15.673   7.395 -0.1550  0.2290 -0.0670
  829YOPS   D2A 9402  13.602  15.544   7.936 -0.0667  0.0591 -0.0805
  829YOPS   C3A 9403  13.415  15.605   8.338 -0.3413  0.4607  0.3091
  829YOPS   C4A 9404  13.633  15.498   8.620  0.1814  0.1471  0.2169
  829YOPS   C1B 9405  13.406  16.044   7.597  0.3380  0.0121 -0.3247
  829YOPS   C2B 9406  13.335  15.964   8.029  0.0331 -0.0288  0.0376
  829YOPS   D3B 9407  13.327  16.104   8.492  0.0330 -0.0919  0.0529
  829YOPS   C4B 9408  13.044  16.113   8.643 -0.0025  0.1264 -0.0615
  830YOPS   CNO 9409   5.760   9.615   6.667 -0.2404  0.2751 -0.0519
  830YOPS   PO4 9410   5.711   9.582   6.276 -0.0851  0.1229  0.1457
  830YOPS   GL1 9411   5.298   9.809   6.528 -0.1572 -0.0859  0.1955
  830YOPS   GL2 9412   5.044   9.717   6.354 -0.0347  0.1340 -0.2951
  830YOPS   C1A 9413   5.406   9.916   6.842  0.1117 -0.0594 -0.0388
  830YOPS   D2A 9414   5.318   9.846   7.292 -0.0294 -0.2792 -0.0175
  830YOPS   C3A 9415   5.487   9.593   7.603  0.0056  0.2255  0.0555
  830YOPS   C4A 9416   5.435   9.156   7.514 -0.0773  0.0322 -0.1034
  830YOPS   C1B 9417   4.851   9.823   6.704  0.1514 -0.0502 -0.2183
  830YOPS   C2B 9418   4.836   9.770   7.125  0.3196 -0.1447 -0.2938
  830YOPS   D3B 9419   4.872   9.807   7.512 -0.1265  0.2740  0.0325
  830YOPS   C4B 9420   4.570   9.627   7.825 -0.1415  0.1492  0.1192
  831YOPS   CNO 9421  16.205   5.450   5.844  0.3810 -0.1029 -0.1424
  831YOPS   PO4 9422  16.108   4.985   5.934 -0.2527  0.1439 -0.0694
  831YOPS   GL1 9423  16.262   4.979   6.347 -0.2232 -0.1167 -0.0835
  831YOPS   GL2 9424  16.438   4.766   6.346 -0.2117 -0.2451  0.1888
  831YOPS   C1A 9425  16.552   5.171   6.656  0.0038 -0.2533 -0.5031
  831YOPS   D2A 9426  16.553   5.072   7.058  0.0319 -0.1133 -0.1612
  831YOPS   C3A 9427  16.636   5.100   7.391 -0.1714 -0.2998 -0.1799
  831YOPS   C4A 9428  16.554   5.415   7.605  0.0762  0.2560 -0.1936
  831YOPS   C1B 9429  16.310   4.654   6.755 -0.4204  0.0014 -0.2197
  831YOPS   C2B 9430  16.186   4.773   7.229  0.0554  0.1947  0.2440
  831YOPS   D3B 9431  16.119   5.078   7.463 -0.0883  0.0267 -0.1385
  831YOPS   C4B 9432  15.680   5.209   7.512 -0.1323  0.0853  0.0772
  832YOPS   CNO 9433  15.504  15.378   6.486 -0.2408 -0.5790 -0.2127
  832YOPS   PO4 9434  15.496  15.187   6.906 -0.1886 -0.1101  0.0529
  832YOPS   GL1 9435  15.536  14.944   7.292  0.0481  0.0751 -0.1242
  832YOPS   GL2 9436  15.779  14.683   7.283  0.0970 -0.0740 -0.0617
  832YOPS   C1A 9437  15.238  14.859   7.589 -0.1489 -0.0753  0.1924
  832YOPS   D2A 9438  15.037  14.852   7.978  0.0153 -0.1959  0.3919
  832YOPS   C3A 9439  14.538  14.783   8.183 -0.0205 -0.1852  0.2231
  832YOPS   C4A 9440  14.651  14.833   8.630 -0.1753  0.0987 -0.1295
  832YOPS   C1B 9441  15.740  14.818   7.715 -0.3196 -0.0505  0.3441
  832YOPS   C2B 9442  15.827  14.922   8.128  0.3039  0.2676  0.2315
  832YOPS   D3B 9443  15.962  14.826   8.522  0.0170 -0.1388  0.0415
  832YOPS   C4B 9444  15.852  14.575   8.916  0.0975  0.0088  0.2841
  833YOPS   CNO 9445   1.505   0.782   6.061 -0.1461  0.0966 -0.0811
  833YOPS   PO4 9446   1.496   1.009   6.426 -0.1316  0.1292 -0.2520
  833YOPS   GL1 9447   1.409   1.042   6.892  0.1576 -0.1459  0.1143
  833YOPS   GL2 9448   1.555   1.339   7.056 -0.1757  0.1694  0.0863
  833YOPS   C1A 9449   1.101   1.064   7.197 -0.1870  0.0941 -0.3060
  833YOPS   D2A 9450   1.116   1.393   7.428 -0.2597 -0.0856  0.1919
  833YOPS   C3A 9451   1.235   1.309   7.832  0.0320 -0.1341  0.1874
  833YOPS   C4A 9452   1.262   1.281   8.242  0.1253 -0.2745 -0.2698
  833YOPS   C1B 9453   1.650   1.332   7.431  0.1011  0.0755  0.2980
  833YOPS   C2B 9454   1.790   1.217   7.904 -0.1127  0.1212  0.0337
  833YOPS   D3B 9455   1.952   1.007   8.179  0.2752  0.0033  0.0488
  833YOPS   C4B 9456   1.750   0.909   8.474  0.2510 -0.0586  0.1599
  834YOPS   CNO 9457   8.549   7.045   5.629  0.0586 -0.1827 -0.0643
  834YOPS   PO4 9458   8.609   6.884   6.112  0.3299  0.1192 -0.1938
  834YOPS   GL1 9459   8.537   7.001   6.517 -0.0505  0.0543 -0.1149
  834YOPS   GL2 9460   8.546   7.291   6.526  0.1372 -0.0961 -0.2399
  834YOPS   C1A 9461   8.427   6.807   6.911  0.0458  0.2954 -0.0945
  834YOPS   D2A 9462   8.282   6.637   7.314  0.3753  0.0679 -0.3360
  834YOPS   C3A 9463   7.876   6.519   7.691  0.0205  0.0293 -0.0233
  834YOPS   C4A 9464   7.442   6.431   7.865 -0.2524 -0.1295 -0.1254
  834YOPS   C1B 9465   8.515   7.376   7.022  0.0387  0.0284 -0.2716
  834YOPS   C2B 9466   8.446   7.579   7.364 -0.3413 -0.0000  0.0024
  834YOPS   D3B 9467   8.241   7.501   7.768 -0.3055  0.4856  0.1105
  834YOPS   C4B 9468   8.242   7.743   8.184 -0.0820  0.3247  0.0822
  835YOPS   CNO 9469   0.209  11.958   6.276  0.1929  0.0212 -0.0629
  835YOPS   PO4 9470   0.088  12.330   6.030 -0.1972 -0.1328  0.3334
  835YOPS   GL1 9471  -0.139  12.373   6.489 -0.2858 -0.1290 -0.0790
  835YOPS   GL2 9472  -0.431  12.268   6.709 -0.4642  0.1878 -0.3204
  835YOPS   C1A 9473  -0.014  12.103   6.799 -0.0288 -0.0824 -0.2047
  835YOPS   D2A 9474  -0.105  12.244   7.230  0.0141  0.1901 -0.0971
  835YOPS   C3A 9475  -0.119  12.087   7.681  0.0091  0.1090 -0.2228
  835YOPS   C4A 9476   0.371  11.983   7.899  0.2179  0.1942 -0.0181
  835YOPS   C1B 9477  -0.516  12.406   7.080  0.1285  0.2395  0.0614
  835YOPS   C2B 9478  -0.684  12.251   7.535  0.0282 -0.1181  0.4901
  835YOPS   D3B 9479  -0.711  12.356   7.867  0.1120  0.0593 -0.0497
  835YOPS   C4B 9480  -0.716  12.324   8.306  0.0114 -0.0620  0.0596
  836YOPS   CNO 9481   8.539  17.275   5.837 -0.1154 -0.1812  0.1065
  836YOPS   PO4 9482   8.571  17.651   5.862 -0.0474  0.0874 -0.1975
  836YOPS   GL1 9483   8.620  17.598   6.333 -0.0883  0.0753 -0.4383
  836YOPS   GL2 9484   8.731  17.321   6.348  0.6742  0.0160  0.4131
  836YOPS   C1A 9485   8.696  17.703   6.725 -0.2391  0.1661 -0.1752
  836YOPS   D2A 9486   8.642  17.547   7.050  0.1397  0.0300 -0.3645
  836YOPS   C3A 9487   8.633  17.509   7.386 -0.1961 -0.1752 -0.2221
  836YOPS   C4A 9488   8.467  17.264   7.612  0.1544 -0.0079 -0.2894
  836YOPS   C1B 9489   8.831  17.212   6.742 -0.1195  0.2328  0.1195
  836YOPS   C2B 9490   8.621  17.033   7.177 -0.2081  0.0413 -0.1322
  836YOPS   D3B 9491   8.861  16.856   7.494  0.3265 -0.2359 -0.1745
  836YOPS   C4B 9492   8.863  16.995   7.814 -0.0128 -0.0413 -0.0803
  837YOPS   CNO 9493   1.155   0.103   6.449 -0.0921  0.1280  0.0620
  837YOPS   PO4 9494   0.703   0.214   6.485  0.1160  0.2386  0.0773
  837YOPS   GL1 9495   0.832   0.307   6.979 -0.0784  0.3172 -0.0755
  837YOPS   GL2 9496   0.731   0.600   6.890 -0.0586  0.0015 -0.2941
  837YOPS   C1A 9497   0.869   0.099   7.395  0.1949  0.1292 -0.0762
  837YOPS   D2A 9498   0.748   0.062   7.861  0.0805  0.1567  0.2136
  837YOPS   C3A 9499   0.575   0.009   8.250 -0.1041  0.1033  0.0768
  837YOPS   C4A 9500   0.941   0.197   8.479  0.2162 -0.3095 -0.0854
  837YOPS   C1B 9501   0.618   0.512   7.380  0.1068  0.0003 -0.2006
  837YOPS   C2B 9502   0.433   0.773   7.800 -0.0024  0.1512 -0.2813
  837YOPS   D3B 9503   0.313   0.494   8.104  0.1259  0.0989 -0.0985
  837YOPS   C4B 9504   0.259   0.124   7.846  0.1255 -0.3970  0.0350
  838YOPS   CNO 9505   4.785  17.379   6.164 -0.2349  0.0683  0.1657
  838YOPS   PO4 9506   4.640  17.379   6.604 -0.0301  0.0826  0.0165
  838YOPS   GL1 9507   4.847  17.374   7.000 -0.1065  0.0910 -0.3252
  838YOPS   GL2 9508   5.058  17.135   6.965 -0.2245 -0.2117  0.2781
  838YOPS   C1A 9509   4.623  17.516   7.342 -0.1457 -0.3169  0.0516
  838YOPS   D2A 9510   4.545  17.944   7.536  0.1350  0.0517  0.0203
  838YOPS   C3A 9511   4.359  18.037   7.954  0.1522  0.1567 -0.1184
  838YOPS   C4A 9512   4.660  18.073   8.266  0.0043 -0.0168 -0.0776
  838YOPS   C1B 9513   5.112  17.260   7.398  0.0274  0.1630  0.0905
  838YOPS   C2B 9514   4.910  17.257   7.822  0.2445  0.1185 -0.2557
  838YOPS   D3B 9515   4.877  17.164   8.242 -0.3303 -0.0917  0.3143
  838YOPS   C4B 9516   4.443  17.016   8.452  0.1873 -0.0915  0.1363
  839POPE   NH3 9517   4.684  11.839   6.554 -0.1366  0.0867  0.2619
  839POPE   PO4 9518   4.838  11.404   6.367 -0.0312  0.0924  0.2013
  839POPE   GL1 9519   4.994  11.364   6.771  0.0025  0.2311 -0.0392
  839POPE   GL2 9520   4.778  11.437   7.067 -0.0767  0.0501 -0.1849
  839POPE   C1A 9521   5.116  10.982   7.101  0.2253  0.0238 -0.1681
  839POPE   D2A 9522   5.137  10.941   7.512  0.1249  0.0735  0.1151
  839POPE   C3A 9523   5.013  10.656   7.832  0.1390  0.2079 -0.0454
  839POPE   C4A 9524   5.284  10.480   8.068  0.1354 -0.1190 -0.1151
  839POPE   C1B 9525   4.773  11.252   7.469  0.0858  0.1813  0.2686
  839POPE   C2B 9526   4.846  11.112   7.907 -0.2128  0.1592 -0.3277
  839POPE   C3B 9527   5.039  10.923   8.308  0.0671 -0.0379  0.0324
  839POPE   C4B 9528   5.304  10.810   8.732 -0.1431 -0.2056  0.1436
  840POPE   NH3 9529  10.935  17.063   5.596  0.0147 -0.2346 -0.2687
  840POPE   PO4 9530  11.089  17.411   5.933  0.0809  0.0944  0.0025
  840POPE   GL1 9531  11.116  17.512   6.332  0.3270 -0.0100  0.2156
  840POPE   GL2 9532  11.477  17.586   6.439  0.0160  0.0065 -0.0654
  840POPE   C1A 9533  11.036  17.440   6.780 -0.2581 -0.2238 -0.1558
  840POPE   D2A 9534  10.805  17.466   7.088  0.0168  0.1114  0.0759
  840POPE   C3A 9535  10.590  17.155   7.473  0.0054  0.2830  0.2436
  840POPE   C4A 9536  10.652  16.692   7.575 -0.1593 -0.2914 -0.2040
  840POPE   C1B 9537  11.631  17.668   6.738 -0.1663 -0.0471 -0.1589
  840POPE   C2B 9538  11.471  17.708   7.089 -0.0599 -0.2093 -0.1720
  840POPE   C3B 9539  11.327  17.843   7.488 -0.1918  0.0235 -0.0761
  840POPE   C4B 9540  11.179  18.076   7.811  0.0700  0.0632  0.1552
  841POPE   NH3 9541  12.684  14.293   6.893  0.4139  0.2121  0.1128
  841POPE   PO4 9542  12.333  14.057   6.742  0.0433  0.1540 -0.1587
  841POPE   GL1 9543  12.311  14.020   7.171 -0.0752 -0.0731  0.1157
  841POPE   GL2 9544  12.569  13.938   7.293 -0.1066 -0.0142 -0.2164
  841POPE   C1A 9545  12.161  14.076   7.541  0.0333 -0.1205 -0.0996
  841POPE   D2A 9546  12.135  14.173   7.844  0.0992 -0.0943 -0.0107
  841POPE   C3A 9547  12.342  13.931   8.086 -0.0031  0.0255  0.1644
  841POPE   C4A 9548  12.495  13.818   8.500  0.5045 -0.0150 -0.0931
  841POPE   C1B 9549  12.681  14.054   7.700 -0.2034  0.3102 -0.0540
  841POPE   C2B 9550  12.775  14.170   8.118  0.0994  0.1815 -0.0446
  841POPE   C3B 9551  12.872  14.533   8.454 -0.0004  0.2187 -0.2774
  841POPE   C4B 9552  12.602  14.615   8.789 -0.0893  0.2148  0.0084
  842POPE   NH3 9553  13.847   1.239   5.961 -0.4805  0.1014  0.1204
  842POPE   PO4 9554  14.282   1.151   6.189 -0.1029 -0.1158 -0.2019
  842POPE   GL1 9555  14.160   1.348   6.520 -0.2380 -0.2089 -0.0837
  842POPE   GL2 9556  14.388   1.462   6.594 -0.0140  0.0170 -0.2491
  842POPE   C1A 9557  13.931   1.739   6.690 -0.1615 -0.2311 -0.3484
  842POPE   D2A 9558  13.872   1.809   7.111  0.0792  0.2814  0.2323
  842POPE   C3A 9559  13.884   2.281   7.297 -0.2237  0.2070 -0.3213
  842POPE   C4A 9560  13.920   2.446   7.737  0.2820  0.4028 -0.0231
  842POPE   C1B 9561  14.303   1.562   7.029  0.0517 -0.0514  0.2117
  842POPE   C2B 9562  14.286   1.679   7.437  0.4284  0.1794 -0.1265
  842POPE   C3B 9563  14.347   1.750   7.891 -0.0523  0.3885  0.0397
  842POPE   C4B 9564  14.333   2.004   8.361 -0.0054 -0.1338 -0.4834
  843POPE   NH3 9565   0.194   0.532   6.520  0.1294  0.4076  0.2420
  843POPE   PO4 9566  -0.100   0.238   6.534  0.5623 -0.1583 -0.1759
  843POPE   GL1 9567   0.042   0.431   6.982  0.0688 -0.2688  0.1789
  843POPE   GL2 9568   0.277   0.626   7.011  0.3950 -0.0235  0.2867
  843POPE   C1A 9569   0.193   0.174   7.361  0.2274 -0.3039  0.0064
  843POPE   D2A 9570   0.499  -0.212   7.511  0.1249 -0.0613  0.0219
  843POPE   C3A 9571   0.400  -0.387   7.912 -0.3490 -0.0159  0.1969
  843POPE   C4A 9572   0.437  -0.429   8.443  0.0224 -0.0731  0.0189
  843POPE   C1B 9573   0.231   0.814   7.396  0.2797 -0.0105  0.0791
  843POPE   C2B 9574   0.328   1.322   7.486  0.0706  0.4691 -0.0315
  843POPE   C3B 9575   0.276   1.329   8.005  0.1445 -0.1514 -0.0215
  843POPE   C4B 9576   0.202   1.461   8.466  0.1083 -0.1408  0.1662
  844POPE   NH3 9577  16.796  17.326   7.187  0.0046  0.0352 -0.1923
  844POPE   PO4 9578  16.895  16.909   7.303 -0.2461 -0.0646  0.0578
  844POPE   GL1 9579  16.829  17.168   7.701 -0.1679 -0.2298  0.2378
  844POPE   GL2 9580  16.980  17.450   7.627  0.2323  0.0886  0.1864
  844POPE   C1A 9581  16.869  17.205   8.157 -0.0932 -0.0435 -0.2233
  844POPE   D2A 9582  17.072  17.414   8.399  0.2878  0.0437  0.0453
  844POPE   C3A 9583  17.501  17.237   8.459 -0.0558  0.1414 -0.1745
  844POPE   C4A 9584  17.697  16.991   8.760 -0.2458  0.2422 -0.1359
  844POPE   C1B 9585  16.936  17.643   7.967 -0.1201 -0.3701 -0.1501
  844POPE   C2B 9586  16.882  17.866   8.368  0.1469 -0.2238 -0.3838
  844POPE   C3B 9587  16.491  17.925   8.723  0.1046  0.0493 -0.1957
  844POPE   C4B 9588  16.117  18.154   8.659 -0.0421 -0.2268 -0.1306
  845POPE   NH3 9589   6.088  11.303   5.986 -0.0588  0.0051 -0.1711
  845POPE   PO4 9590   5.764  11.501   6.293  0.0906 -0.2568 -0.1127
  845POPE   GL1 9591   5.894  11.772   6.586 -0.1661 -0.1687  0.0206
  845POPE   GL2 9592   5.797  11.984   6.619 -0.1995 -0.0044 -0.0742
  845POPE   C1A 9593   5.903  11.688   7.035  0.4593 -0.0076 -0.2689
  845POPE   D2A 9594   5.801  11.821   7.434 -0.0888  0.1436  0.5655
  845POPE   C3A 9595   5.832  11.547   7.675 -0.1582  0.1375 -0.1932
  845POPE   C4A 9596   6.055  11.210   7.960  0.1021 -0.4543  0.1205
  845POPE   C1B 9597   5.808  12.156   7.028  0.2772  0.0143  0.1263
  845POPE   C2B 9598   5.740  12.397   7.369  0.0676  0.1298 -0.1540
  845POPE   C3B 9599   5.584  12.279   7.811  0.2450 -0.0810  0.0488
  845POPE   C4B 9600   5.594  12.113   8.238 -0.2718  0.4878  0.1526
  846POPE   NH3 9601   0.570   9.004   5.852  0.0768 -0.0872  0.2303
  846POPE   PO4 9602   0.526   9.221   6.200 -0.1884 -0.3717  0.4105
  846POPE   GL1 9603   0.700   9.238   6.537 -0.2138 -0.2715 -0.0713
  846POPE   GL2 9604   0.798   8.931   6.552  0.0929 -0.0635 -0.1829
  846POPE   C1A 9605   0.940   9.384   6.878 -0.2991 -0.0817  0.1013
  846POPE   D2A 9606   0.717   9.591   7.197  0.0710  0.1365  0.0459
  846POPE   C3A 9607   0.695   9.407   7.508  0.0160  0.1466 -0.4694
  846POPE   C4A 9608   0.630   9.502   7.957 -0.1014 -0.0633 -0.0034
  846POPE   C1B 9609   0.941   8.866   6.896  0.0342  0.3122  0.2917
  846POPE   C2B 9610   1.267   9.122   7.182  0.2494 -0.1254 -0.1321
  846POPE   C3B 9611   1.424   9.024   7.603  0.1131  0.0154  0.3989
  846POPE   C4B 9612   1.587   9.094   7.928  0.4925 -0.3182  0.1032
  847POPE   NH3 9613   5.823  14.755   6.566 -0.0518  0.1292 -0.0634
  847POPE   PO4 9614   6.187  15.034   6.306  0.0222 -0.1514 -0.1310
  847POPE   GL1 9615   6.358  15.318   6.483  0.2156  0.0359 -0.3101
  847POPE   GL2 9616   6.661  15.580   6.331 -0.0778 -0.4001  0.1241
  847POPE   C1A 9617   6.568  15.473   6.869 -0.5346 -0.0768 -0.0470
  847POPE   D2A 9618   6.962  15.441   7.100  0.0269 -0.1832  0.2837
  847POPE   C3A 9619   6.707  15.739   7.417 -0.2440 -0.0378 -0.1582
  847POPE   C4A 9620   6.744  16.017   7.821  0.0881  0.0364  0.0480
  847POPE   C1B 9621   6.894  15.940   6.615 -0.2750 -0.2832 -0.0261
  847POPE   C2B 9622   7.096  15.953   6.989  0.0735  0.1153  0.1308
  847POPE   C3B 9623   7.138  16.092   7.328  0.0040 -0.1491 -0.2401
  847POPE   C4B 9624   7.430  16.372   7.657  0.0552 -0.3701  0.3089
  848POPE   NH3 9625   2.526  16.312   6.817 -0.1359  0.0867  0.0770
  848POPE   PO4 9626   2.146  16.033   6.729 -0.0738  0.1146  0.0476
  848POPE   GL1 9627   2.070  15.917   7.092  0.0800 -0.0097  0.0597
  848POPE   GL2 9628   2.245  16.191   7.178  0.2515  0.1424 -0.1727
  848POPE   C1A 9629   2.097  15.883   7.513  0.0511  0.1033 -0.2557
  848POPE   D2A 9630   2.036  16.023   7.900  0.1194 -0.3077 -0.1318
  848POPE   C3A 9631   2.267  15.828   8.211  0.1848 -0.1452  0.3144
  848POPE   C4A 9632   2.309  15.768   8.708 -0.0378 -0.2654  0.1210
  848POPE   C1B 9633   2.487  16.181   7.583 -0.0219  0.0657 -0.0462
  848POPE   C2B 9634   2.511  16.217   7.926  0.1813  0.0863 -0.1263
  848POPE   C3B 9635   2.687  16.118   8.332 -0.1037  0.2576  0.2118
  848POPE   C4B 9636   2.538  16.261   8.725 -0.0637 -0.3306 -0.1605
  849POPE   NH3 9637   9.869   8.027   6.298 -0.0474 -0.0182 -0.2184
  849POPE   PO4 9638   9.751   7.707   6.373 -0.3896 -0.2637  0.0154
  849POPE   GL1 9639   9.846   7.599   6.831  0.0543  0.0246 -0.0653
  849POPE   GL2 9640   9.776   7.904   6.816 -0.1915 -0.0174 -0.2742
  849POPE   C1A 9641  10.046   7.425   7.170  0.1782  0.0190 -0.1085
  849POPE   D2A 9642   9.927   7.283   7.472  0.0098 -0.1557 -0.0546
  849POPE   C3A 9643   9.482   7.259   7.497 -0.4544 -0.0042 -0.1520
  849POPE   C4A 9644   9.000   7.391   7.383 -0.1432 -0.0391 -0.2132
  849POPE   C1B 9645   9.945   7.927   7.223  0.0752  0.2374  0.0055
  849POPE   C2B 9646   9.999   7.773   7.548 -0.0101 -0.0357 -0.2755
  849POPE   C3B 9647  10.172   7.491   7.910 -0.3571  0.1457 -0.0808
  849POPE   C4B 9648  10.561   7.373   8.165  0.0169  0.0573 -0.2714
  850POPE   NH3 9649  13.439  12.683   6.659 -0.0750 -0.3291  0.0569
  850POPE   PO4 9650  13.373  13.152   6.604  0.2039  0.1141 -0.0867
  850POPE   GL1 9651  13.524  13.082   7.039  0.1212  0.1020 -0.1435
  850POPE   GL2 9652  13.400  12.832   7.171  0.4638  0.2885 -0.0450
  850POPE   C1A 9653  13.844  13.029   7.474 -0.1696  0.1907 -0.4746
  850POPE   D2A 9654  13.780  12.742   7.824  0.4593 -0.1449  0.2493
  850POPE   C3A 9655  13.650  12.280   7.847 -0.0981  0.1434  0.2507
  850POPE   C4A 9656  13.423  11.867   8.116 -0.0538  0.0088  0.2651
  850POPE   C1B 9657  13.386  12.602   7.575  0.2517 -0.1211  0.0862
  850POPE   C2B 9658  13.287  12.603   7.950  0.4108  0.0497  0.0620
  850POPE   C3B 9659  13.234  12.538   8.456 -0.0961 -0.1595 -0.1267
  850POPE   C4B 9660  13.052  12.776   8.724 -0.0926 -0.1552  0.1073
  851POPE   NH3 9661   7.970   4.416   5.614  0.0583  0.0095  0.0639
  851POPE   PO4 9662   8.427   4.573   5.667  0.1063  0.3238 -0.0327
  851POPE   GL1 9663   8.240   4.515   6.088  0.1322 -0.3842 -0.0052
  851POPE   GL2 9664   7.925   4.492   6.103 -0.0795 -0.3396 -0.0644
  851POPE   C1A 9665   8.085   4.782   6.447  0.0796 -0.1027  0.2800
  851POPE   D2A 9666   8.220   5.176   6.744  0.0988  0.0078 -0.0870
  851POPE   C3A 9667   8.041   5.161   7.098  0.3166 -0.1633  0.2522
  851POPE   C4A 9668   8.055   5.173   7.554 -0.2013  0.1681 -0.2661
  851POPE   C1B 9669   8.061   4.216   6.478 -0.1115  0.1114  0.1882
  851POPE   C2B 9670   8.047   4.124   6.960 -0.0354  0.1110 -0.2883
  851POPE   C3B 9671   8.172   3.784   7.241 -0.0777  0.0072 -0.0401
  851POPE   C4B 9672   8.550   3.670   7.287  0.1645  0.1402 -0.0627
  852POPE   NH3 9673  11.211  16.496   6.066 -0.0555  0.1316 -0.1765
  852POPE   PO4 9674  11.136  15.983   6.229 -0.0860 -0.1504  0.2569
  852POPE   GL1 9675  10.867  15.752   6.467  0.0756  0.2585 -0.2282
  852POPE   GL2 9676  10.573  15.963   6.504  0.1324  0.2808 -0.1896
  852POPE   C1A 9677  10.732  15.369   6.802 -0.2075  0.1966  0.0771
  852POPE   D2A 9678  10.875  15.118   7.194  0.1059 -0.0293 -0.1573
  852POPE   C3A 9679  11.148  15.262   7.466  0.2326  0.0235 -0.0700
  852POPE   C4A 9680  11.348  15.709   7.455 -0.1429 -0.1290  0.2237
  852POPE   C1B 9681  10.516  15.827   6.982 -0.2706  0.1039  0.3264
  852POPE   C2B 9682  10.421  15.804   7.460  0.2439 -0.2439  0.0510
  852POPE   C3B 9683  10.367  15.712   7.896 -0.1385  0.0317  0.1011
  852POPE   C4B 9684  10.079  15.750   8.168 -0.1922  0.1187 -0.0997
  853POPE   NH3 9685   5.124  14.452   6.433  0.1703  0.1049 -0.1918
  853POPE   PO4 9686   5.302  14.747   6.595  0.0510 -0.0656 -0.4783
  853POPE   GL1 9687   5.574  14.927   6.966  0.1644 -0.1351  0.2954
  853POPE   GL2 9688   5.837  14.873   7.082 -0.3716 -0.1377 -0.2672
  853POPE   C1A 9689   5.333  14.938   7.254  0.0011 -0.3077  0.2522
  853POPE   D2A 9690   5.496  14.947   7.693  0.0599  0.0515 -0.1237
  853POPE   C3A 9691   5.159  15.002   8.040 -0.1718  0.0369  0.3074
  853POPE   C4A 9692   4.707  14.819   7.938  0.1734  0.1297  0.1215
  853POPE   C1B 9693   5.989  15.163   7.463 -0.1969 -0.3708  0.0147
  853POPE   C2B 9694   6.018  15.032   7.855 -0.1129  0.2786 -0.0588
  853POPE   C3B 9695   5.848  15.177   8.236 -0.2803  0.3205 -0.0986
  853POPE   C4B 9696   5.819  15.141   8.686 -0.0332 -0.0053 -0.1189
  854POPE   NH3 9697   1.524  14.681   6.792 -0.1297  0.1971 -0.1657
  854POPE   PO4 9698   1.724  15.141   6.754 -0.2505 -0.0779 -0.1198
  854POPE   GL1 9699   1.756  14.973   7.171  0.0221 -0.3045 -0.3009
  854POPE   GL2 9700   1.411  15.002   7.204 -0.1310 -0.4609 -0.0341
  854POPE   C1A 9701   1.991  14.849   7.486 -0.2159 -0.1262 -0.1001
  854POPE   D2A 9702   2.047  14.847   7.939 -0.0615 -0.3250 -0.0084
  854POPE   C3A 9703   2.307  14.792   8.241  0.0553  0.2081  0.4241
  854POPE   C4A 9704   2.298  14.761   8.719  0.2094 -0.2771 -0.2173
  854POPE   C1B 9705   1.538  14.998   7.617 -0.0291 -0.2338  0.0139
  854POPE   C2B 9706   1.549  14.849   8.006  0.0756 -0.1702 -0.1085
  854POPE   C3B 9707   1.767  14.710   8.323  0.1957 -0.0378 -0.0934
  854POPE   C4B 9708   1.719  14.728   8.796 -0.2147  0.2899 -0.0170
  855POPE   NH3 9709   5.779   3.487   5.752 -0.1503  0.2181  0.0011
  855POPE   PO4 9710   5.314   3.579   5.733 -0.1141 -0.1788  0.2153
  855POPE   GL1 9711   5.249   3.604   6.167  0.0849 -0.0169  0.2502
  855POPE   GL2 9712   5.248   3.381   6.295 -0.2861  0.0780  0.1102
  855POPE   C1A 9713   5.383   3.894   6.458  0.0088 -0.1783  0.1605
  855POPE   D2A 9714   5.412   4.021   6.895 -0.3430  0.0626 -0.1983
  855POPE   C3A 9715   5.750   4.029   7.170  0.3263 -0.2325 -0.1441
  855POPE   C4A 9716   5.928   4.239   7.553  0.0615  0.0503  0.0568
  855POPE   C1B 9717   5.222   3.418   6.739  0.0881 -0.1100  0.1185
  855POPE   C2B 9718   5.321   3.596   7.132 -0.1029 -0.2385 -0.3065
  855POPE   C3B 9719   5.400   3.693   7.443  0.4723 -0.0798  0.1432
  855POPE   C4B 9720   5.612   3.866   7.779  0.0895  0.3766 -0.0362
  856POPE   NH3 9721   1.391  12.534   6.278  0.0861 -0.1345 -0.1533
  856POPE   PO4 9722   1.000  12.120   6.283 -0.0680 -0.0283  0.2101
  856POPE   GL1 9723   1.068  12.272   6.568 -0.0222 -0.2354  0.0516
  856POPE   GL2 9724   1.095  12.634   6.680  0.0829 -0.0093 -0.2403
  856POPE   C1A 9725   0.953  12.168   6.952 -0.1112 -0.2882  0.3523
  856POPE   D2A 9726   1.085  12.299   7.354  0.0109 -0.1118  0.3192
  856POPE   C3A 9727   0.982  12.371   7.704  0.2399 -0.0446  0.2873
  856POPE   C4A 9728   0.810  12.644   8.101  0.0077  0.1155 -0.1469
  856POPE   C1B 9729   0.923  12.692   7.057 -0.0721 -0.2810 -0.5414
  856POPE   C2B 9730   0.770  12.746   7.400 -0.2376  0.0982  0.0830
  856POPE   C3B 9731   0.613  13.029   7.689  0.0953 -0.0702 -0.0455
  856POPE   C4B 9732   0.735  13.147   8.167 -0.2907 -0.0306  0.0065
  857POPE   NH3 9733  13.159   1.793   6.215  0.1321  0.2911 -0.3562
  857POPE   PO4 9734  13.600   1.759   6.092 -0.0369 -0.2998 -0.0738
  857POPE   GL1 9735  13.841   2.060   6.361  0.1250  0.1129 -0.1781
  857POPE   GL2 9736  14.157   2.015   6.341 -0.0603 -0.1428 -0.0530
  857POPE   C1A 9737  13.838   2.216   6.813 -0.0874  0.3267 -0.1038
  857POPE   D2A 9738  13.495   2.377   7.010 -0.0428 -0.5023 -0.0036
  857POPE   C3A 9739  13.141   2.317   6.898 -0.2444  0.0019 -0.0678
  857POPE   C4A 9740  12.789   2.496   6.829  0.3764 -0.0168 -0.0743
  857POPE   C1B 9741  14.294   2.036   6.674  0.2350 -0.0961 -0.2234
  857POPE   C2B 9742  14.324   2.080   7.141  0.1302 -0.1526  0.0340
  857POPE   C3B 9743  14.391   2.141   7.517  0.1289  0.0566 -0.2978
  857POPE   C4B 9744  14.377   2.264   7.957 -0.1381  0.0288  0.5107
  858POPE   NH3 9745  18.054  11.964   5.960 -0.2649 -0.0321 -0.0299
  858POPE   PO4 9746  17.858  12.044   6.278 -0.0342 -0.0635 -0.0170
  858POPE   GL1 9747  17.476  11.874   6.585 -0.1967  0.0914 -0.0868
  858POPE   GL2 9748  17.127  11.939   6.468  0.1214  0.0034  0.1071
  858POPE   C1A 9749  17.576  11.441   6.693 -0.0438  0.1953  0.0360
  858POPE   D2A 9750  17.673  11.493   7.099 -0.1270 -0.0049 -0.0981
  858POPE   C3A 9751  17.528  11.316   7.557  0.2973  0.1951 -0.0548
  858POPE   C4A 9752  17.509  10.902   7.853  0.0533 -0.3045 -0.0507
  858POPE   C1B 9753  17.187  11.746   7.019  0.2565 -0.0972  0.0210
  858POPE   C2B 9754  17.102  11.448   7.341  0.3217 -0.1893  0.0301
  858POPE   C3B 9755  16.989  11.508   7.741 -0.3251 -0.2220  0.2179
  858POPE   C4B 9756  17.200  11.330   8.016 -0.0621 -0.3587  0.1073
  859POPE   NH3 9757   6.318  17.575   6.002 -0.0764  0.1866  0.3451
  859POPE   PO4 9758   6.086  18.031   6.205  0.3442 -0.0884 -0.0373
  859POPE   GL1 9759   5.918  18.176   6.508 -0.0421  0.1046  0.0881
  859POPE   GL2 9760   5.872  17.914   6.694  0.2939 -0.1778  0.0551
  859POPE   C1A 9761   5.695  18.518   6.742 -0.0482  0.2702  0.0793
  859POPE   D2A 9762   5.412  18.832   6.858  0.0252  0.1816 -0.2582
  859POPE   C3A 9763   5.501  19.073   7.204 -0.0031  0.5492  0.0276
  859POPE   C4A 9764   5.603  19.192   7.652  0.0272  0.2633  0.1656
  859POPE   C1B 9765   5.842  17.952   7.134 -0.0643 -0.3403 -0.2652
  859POPE   C2B 9766   6.048  17.796   7.577 -0.1343 -0.3158  0.0212
  859POPE   C3B 9767   5.925  17.559   7.896 -0.0707 -0.0246  0.0921
  859POPE   C4B 9768   6.065  17.364   8.209 -0.0909  0.4612 -0.0621
  860POPE   NH3 9769   7.131   8.360   5.887  0.3787  0.0595  0.1248
  860POPE   PO4 9770   6.925   8.042   6.061  0.0995  0.3594 -0.0659
  860POPE   GL1 9771   6.873   8.069   6.477 -0.0155  0.1278 -0.2725
  860POPE   GL2 9772   6.527   8.026   6.539  0.1756 -0.0842 -0.0195
  860POPE   C1A 9773   7.169   8.068   6.785  0.0618 -0.1301  0.1728
  860POPE   D2A 9774   7.115   8.298   7.144 -0.1621  0.0040 -0.0276
  860POPE   C3A 9775   6.992   8.415   7.453  0.0425  0.0939  0.0222
  860POPE   C4A 9776   7.214   8.724   7.834 -0.1402 -0.0924 -0.2131
  860POPE   C1B 9777   6.647   8.081   6.995  0.1598  0.0903  0.0682
  860POPE   C2B 9778   6.654   7.901   7.381  0.2059  0.0741  0.0429
  860POPE   C3B 9779   6.434   7.640   7.623 -0.1296  0.0164 -0.3158
  860POPE   C4B 9780   6.400   7.518   8.056  0.2061  0.0234  0.2925
  861POPE   NH3 9781  14.761   1.190   6.397 -0.5649 -0.2158  0.3100
  861POPE   PO4 9782  15.147   1.496   6.096 -0.0630 -0.0343 -0.0421
  861POPE   GL1 9783  14.957   1.644   6.525 -0.1860  0.1632 -0.1107
  861POPE   GL2 9784  15.230   1.681   6.743  0.1740  0.2060 -0.0851
  861POPE   C1A 9785  14.738   1.796   6.823 -0.0137 -0.3304 -0.0840
  861POPE   D2A 9786  14.764   1.890   7.256 -0.2767  0.1964  0.1186
  861POPE   C3A 9787  14.838   2.054   7.645 -0.0819 -0.0164  0.0743
  861POPE   C4A 9788  14.902   2.260   7.992 -0.1678 -0.1842 -0.1756
  861POPE   C1B 9789  15.156   1.592   7.100 -0.2418 -0.1755 -0.2584
  861POPE   C2B 9790  15.261   1.755   7.523 -0.0450  0.3469  0.2290
  861POPE   C3B 9791  15.318   1.897   7.908 -0.1024  0.0037  0.3207
  861POPE   C4B 9792  15.374   2.058   8.286 -0.1690 -0.0316 -0.0474
  862POPE   NH3 9793   1.495  18.102   7.016  0.4250 -0.0036 -0.1573
  862POPE   PO4 9794   1.790  18.290   7.147 -0.0888 -0.0672  0.1228
  862POPE   GL1 9795   2.105  18.549   7.341  0.2259  0.2689  0.2237
  862POPE   GL2 9796   1.863  18.675   7.565 -0.0643  0.0258  0.0221
  862POPE   C1A 9797   2.373  18.716   7.693 -0.2817  0.3331 -0.1811
  862POPE   D2A 9798   2.648  18.666   7.991  0.0772 -0.0898 -0.3353
  862POPE   C3A 9799   2.837  18.774   8.363 -0.2829  0.2701 -0.0733
  862POPE   C4A 9800   2.892  18.605   8.700 -0.0336  0.1301  0.1154
  862POPE   C1B 9801   1.811  18.662   7.990  0.2091  0.1964  0.0315
  862POPE   C2B 9802   1.742  18.701   8.417  0.2435 -0.1615 -0.0451
  862POPE   C3B 9803   2.006  18.614   8.736  0.1222 -0.0594 -0.0041
  862POPE   C4B 9804   2.268  18.466   8.967  0.0658 -0.0184  0.0023
  863POPE   NH3 9805  14.134  14.024   6.946 -0.0308  0.1912 -0.0039
  863POPE   PO4 9806  14.023  13.564   6.954 -0.2347 -0.0988 -0.0664
  863POPE   GL1 9807  13.847  13.752   7.285  0.0361 -0.1475 -0.2188
  863POPE   GL2 9808  13.571  13.487   7.391 -0.2814  0.0616  0.1556
  863POPE   C1A 9809  14.041  13.928   7.664 -0.1457 -0.2161  0.3099
  863POPE   D2A 9810  13.934  14.410   7.565  0.0830  0.3258 -0.1613
  863POPE   C3A 9811  13.677  14.667   7.883 -0.0469 -0.3310  0.0375
  863POPE   C4A 9812  13.593  15.091   8.182 -0.1759  0.0693  0.0220
  863POPE   C1B 9813  13.721  13.645   7.751 -0.2327 -0.1196  0.2199
  863POPE   C2B 9814  13.680  13.639   8.258  0.4227 -0.0619  0.0867
  863POPE   C3B 9815  13.739  13.198   8.468 -0.1764 -0.1047  0.1079
  863POPE   C4B 9816  13.646  12.814   8.315 -0.0156  0.3529  0.1534
  864POPE   NH3 9817   6.091   7.059   5.911  0.0229 -0.0622  0.3920
  864POPE   PO4 9818   5.760   6.709   5.822  0.2025 -0.0766 -0.1481
  864POPE   GL1 9819   5.566   6.751   6.280 -0.0733 -0.3379  0.2051
  864POPE   GL2 9820   5.587   6.406   6.286 -0.0055 -0.2518  0.0916
  864POPE   C1A 9821   5.503   6.912   6.651  0.1857 -0.3890  0.0105
  864POPE   D2A 9822   5.604   6.865   7.079 -0.0747  0.1536  0.0013
  864POPE   C3A 9823   5.875   6.842   7.368 -0.3115  0.1874 -0.0538
  864POPE   C4A 9824   5.848   6.472   7.524  0.1803  0.2352  0.3476
  864POPE   C1B 9825   5.515   6.252   6.610 -0.2968 -0.2197 -0.0033
  864POPE   C2B 9826   5.712   5.946   6.677  0.0667  0.1801 -0.5057
  864POPE   C3B 9827   5.745   5.876   7.047 -0.2899  0.1947  0.3027
  864POPE   C4B 9828   5.895   5.953   7.623 -0.0531 -0.0838  0.0044
  865POPE   NH3 9829  10.351  16.313   6.069 -0.1591 -0.0613 -0.2822
  865POPE   PO4 9830  10.764  16.308   6.111  0.0670 -0.1095  0.0323
  865POPE   GL1 9831  10.851  16.451   6.452  0.2961  0.2093 -0.1998
  865POPE   GL2 9832  10.931  16.249   6.746  0.0761 -0.1265  0.1264
  865POPE   C1A 9833  10.783  16.695   6.837 -0.1036 -0.2898  0.1260
  865POPE   D2A 9834  10.945  16.983   7.159 -0.2122 -0.1852  0.5132
  865POPE   C3A 9835  11.056  16.966   7.596 -0.0092 -0.1277  0.3727
  865POPE   C4A 9836  11.168  17.095   7.984 -0.0539 -0.1560  0.1491
  865POPE   C1B 9837  11.037  15.875   6.950  0.2819  0.1627  0.0847
  865POPE   C2B 9838  10.827  15.577   7.248  0.1049 -0.2516  0.1576
  865POPE   C3B 9839  10.642  15.353   7.594  0.0690  0.2385  0.1992
  865POPE   C4B 9840  10.594  15.141   7.975  0.3575  0.5489  0.1214
  866POPE   NH3 9841   4.298   6.652   5.792 -0.1873  0.4431 -0.0638
  866POPE   PO4 9842   3.815   6.631   5.730  0.0172  0.2305  0.3442
  866POPE   GL1 9843   3.842   6.687   6.136 -0.1979 -0.4325 -0.0938
  866POPE   GL2 9844   4.096   6.658   6.252  0.0834 -0.0781  0.0675
  866POPE   C1A 9845   3.621   6.773   6.608 -0.1264 -0.0586  0.2287
  866POPE   D2A 9846   3.496   6.959   7.069  0.0794 -0.1157 -0.0546
  866POPE   C3A 9847   3.680   6.790   7.430 -0.2318  0.2148  0.3182
  866POPE   C4A 9848   3.661   6.371   7.588 -0.4085  0.0767  0.0588
  866POPE   C1B 9849   4.142   6.634   6.674 -0.2202  0.1594 -0.1593
  866POPE   C2B 9850   3.844   6.500   6.975 -0.0933  0.3445 -0.0921
  866POPE   C3B 9851   4.080   6.453   7.346 -0.2423 -0.0983  0.0928
  866POPE   C4B 9852   4.206   6.418   7.721  0.0459 -0.2322  0.5668
  867POPE   NH3 9853   6.175  12.934   6.342  0.1604 -0.4296  0.2441
  867POPE   PO4 9854   6.203  12.962   6.723  0.2965  0.0913  0.0741
  867POPE   GL1 9855   6.359  13.281   7.002  0.0588  0.1152  0.1974
  867POPE   GL2 9856   6.166  13.582   7.125 -0.0632  0.2425 -0.1492
  867POPE   C1A 9857   6.663  13.357   7.267  0.3237 -0.0758 -0.0312
  867POPE   D2A 9858   6.928  13.488   7.561 -0.5289  0.1491  0.1586
  867POPE   C3A 9859   6.707  13.560   7.996 -0.1314  0.0701  0.1125
  867POPE   C4A 9860   6.882  13.244   8.275 -0.1823  0.1798  0.1954
  867POPE   C1B 9861   6.244  13.393   7.540 -0.0431 -0.3403 -0.2570
  867POPE   C2B 9862   6.181  13.599   7.941 -0.0148 -0.1060 -0.1510
  867POPE   C3B 9863   6.156  13.607   8.318 -0.0602 -0.2390  0.1381
  867POPE   C4B 9864   6.292  13.844   8.562 -0.3388  0.1881 -0.0161
  868POPE   NH3 9865   4.149  12.604   6.331 -0.3958  0.4255  0.0084
  868POPE   PO4 9866   4.542  12.308   6.189 -0.1884  0.0245  0.3059
  868POPE   GL1 9867   4.439  12.364   6.674 -0.5167  0.1706  0.1086
  868POPE   GL2 9868   4.639  12.608   6.863  0.0157 -0.1945  0.1025
  868POPE   C1A 9869   4.354  12.226   7.077  0.2606 -0.0013  0.0635
  868POPE   D2A 9870   4.295  12.140   7.579  0.1278 -0.1683 -0.1086
  868POPE   C3A 9871   4.042  12.260   7.961 -0.2042 -0.1253 -0.1648
  868POPE   C4A 9872   4.007  12.549   8.247  0.0846 -0.0089 -0.0951
  868POPE   C1B 9873   4.854  12.401   7.179 -0.1730  0.1781 -0.0151
  868POPE   C2B 9874   4.897  12.320   7.592  0.2206 -0.1357  0.1691
  868POPE   C3B 9875   5.033  12.469   8.023 -0.2384  0.1961 -0.1757
  868POPE   C4B 9876   4.856  12.601   8.420  0.0327  0.0043  0.0283
  869YOPE   NH3 9877   3.359  11.941   5.906  0.1337 -0.0592  0.0294
  869YOPE   PO4 9878   3.427  11.591   6.061 -0.0176  0.1328 -0.0576
  869YOPE   GL1 9879   3.313  11.851   6.403 -0.0276  0.1129 -0.2802
  869YOPE   GL2 9880   3.102  11.615   6.523  0.0305  0.1082  0.1668
  869YOPE   C1A 9881   3.598  11.881   6.778 -0.1755 -0.3032  0.0066
  869YOPE   D2A 9882   3.810  12.055   7.182 -0.3331  0.4110  0.0483
  869YOPE   C3A 9883   3.888  11.854   7.578 -0.1727  0.0565  0.0988
  869YOPE   C4A 9884   3.892  11.727   7.948 -0.0795  0.0490  0.2956
  869YOPE   C1B 9885   3.151  11.799   6.948 -0.2753  0.0257 -0.1828
  869YOPE   C2B 9886   3.352  11.765   7.349 -0.1104  0.3189  0.0938
  869YOPE   D3B 9887   3.414  11.537   7.641 -0.2783 -0.1540  0.0856
  869YOPE   C4B 9888   3.478  11.517   8.060  0.0905  0.0735 -0.0387
  870YOPE   NH3 9889   6.885   9.177   6.359 -0.0617  0.1005 -0.1588
  870YOPE   PO4 9890   6.566   8.885   6.215 -0.0531  0.4313  0.0043
  870YOPE   GL1 9891   6.548   8.780   6.631 -0.0931  0.2938  0.2447
  870YOPE   GL2 9892   6.721   8.531   6.728  0.3877 -0.1154 -0.0606
  870YOPE   C1A 9893   6.221   8.767   6.959  0.0236  0.0129 -0.0874
  870YOPE   D2A 9894   6.180   8.333   7.295  0.0259 -0.1996 -0.1209
  870YOPE   C3A 9895   6.274   8.127   7.672  0.1498 -0.1752 -0.2007
  870YOPE   C4A 9896   6.545   8.102   8.102 -0.0738 -0.0064  0.0754
  870YOPE   C1B 9897   6.646   8.543   7.141 -0.0967 -0.4924 -0.0465
  870YOPE   C2B 9898   6.507   8.589   7.587  0.0417  0.1261 -0.0075
  870YOPE   D3B 9899   6.788   8.636   8.039  0.4178 -0.0091  0.0324
  870YOPE   C4B 9900   7.059   8.767   8.430 -0.0722 -0.2176  0.0440
  871YOPE   NH3 9901   1.178   4.164   6.053 -0.1141 -0.1719  0.2244
  871YOPE   PO4 9902   1.237   4.655   6.076  0.0763  0.3569 -0.0453
  871YOPE   GL1 9903   0.985   4.675   6.395 -0.2253 -0.2086  0.0323
  871YOPE   GL2 9904   0.850   4.301   6.461 -0.1789  0.0071  0.2227
  871YOPE   C1A 9905   0.929   4.793   6.794 -0.0998 -0.0427 -0.3705
  871YOPE   D2A 9906   0.966   4.988   7.219  0.0205  0.0790 -0.0356
  871YOPE   C3A 9907   0.770   5.067   7.634  0.2528 -0.2690 -0.3791
  871YOPE   C4A 9908   0.446   5.229   7.941 -0.0651  0.2025 -0.4626
  871YOPE   C1B 9909   0.629   4.467   6.676  0.1882 -0.1157  0.0461
  871YOPE   C2B 9910   0.579   4.606   7.070  0.3100 -0.1749  0.1024
  871YOPE   D3B 9911   0.700   4.510   7.462  0.0361  0.0330  0.0109
  871YOPE   C4B 9912   0.508   4.292   7.805 -0.2396 -0.0233  0.0734
  872YOPE   NH3 9913   7.487   9.832   5.977 -0.0776  0.0045 -0.0603
  872YOPE   PO4 9914   7.717   9.716   6.304 -0.1302 -0.4333  0.0282
  872YOPE   GL1 9915   7.827   9.458   6.654  0.4082 -0.2572 -0.0295
  872YOPE   GL2 9916   7.852   9.103   6.479 -0.1443  0.1525 -0.1525
  872YOPE   C1A 9917   8.136   9.367   6.992 -0.1314 -0.0592 -0.2345
  872YOPE   D2A 9918   8.171   9.361   7.429  0.1082 -0.2350 -0.0041
  872YOPE   C3A 9919   8.012   9.269   7.829 -0.5202  0.4504 -0.0797
  872YOPE   C4A 9920   7.837   9.321   8.071 -0.2514  0.1866 -0.0332
  872YOPE   C1B 9921   7.813   8.950   6.848 -0.0203 -0.1333 -0.2506
  872YOPE   C2B 9922   7.742   9.118   7.303  0.1218  0.0647 -0.0833
  872YOPE   D3B 9923   7.528   9.182   7.733 -0.0677 -0.0121  0.2712
  872YOPE   C4B 9924   7.221   9.517   7.729  0.2412  0.0999 -0.4086
  873YOPE   NH3 9925  14.286  14.969   6.751 -0.0027  0.0441  0.0231
  873YOPE   PO4 9926  14.626  15.259   6.708 -0.2153 -0.0092  0.0652
  873YOPE   GL1 9927  14.575  15.224   7.063  0.0812 -0.1246  0.4232
  873YOPE   GL2 9928  14.216  15.323   7.171  0.0243 -0.0410 -0.0343
  873YOPE   C1A 9929  14.558  15.539   7.410 -0.3089  0.0313 -0.0068
  873YOPE   D2A 9930  14.560  15.926   7.748  0.2150 -0.0600 -0.2560
  873YOPE   C3A 9931  14.570  15.871   8.232 -0.1863  0.2037  0.1687
  873YOPE   C4A 9932  14.781  15.994   8.599  0.1761 -0.0219 -0.0308
  873YOPE   C1B 9933  14.120  15.492   7.621 -0.2356  0.0787 -0.0880
  873YOPE   C2B 9934  14.114  15.737   8.017 -0.0666  0.0631  0.1824
  873YOPE   D3B 9935  13.884  15.882   8.344 -0.2382  0.0571 -0.1852
  873YOPE   C4B 9936  13.800  16.232   8.609  0.1021  0.0354 -0.0769
  874YOPE   NH3 9937   8.962   8.359   6.203 -0.0364 -0.0767  0.1277
  874YOPE   PO4 9938   8.724   8.718   6.265 -0.0010 -0.3213  0.3420
  874YOPE   GL1 9939   8.740   8.939   6.634  0.0814  0.0257 -0.0522
  874YOPE   GL2 9940   8.505   9.251   6.672  0.2682 -0.4270 -0.3010
  874YOPE   C1A 9941   8.825   9.036   7.088  0.2256  0.1900 -0.0787
  874YOPE   D2A 9942   8.971   8.808   7.476 -0.1965  0.2122  0.0653
  874YOPE   C3A 9943   9.159   9.028   7.824 -0.1498  0.3276  0.1191
  874YOPE   C4A 9944   9.511   9.153   8.107 -0.1698 -0.1261  0.2261
  874YOPE   C1B 9945   8.358   8.935   6.975 -0.0313 -0.0617  0.2183
  874YOPE   C2B 9946   8.175   8.860   7.521 -0.0673  0.1001 -0.2982
  874YOPE   D3B 9947   8.115   8.441   7.702 -0.2510 -0.0111 -0.0925
  874YOPE   C4B 9948   7.926   8.147   8.079  0.3048  0.0100  0.2276
  875YOPE   NH3 9949   9.513  14.169   6.225  0.1438  0.4418  0.1315
  875YOPE   PO4 9950   9.819  14.200   6.451 -0.0115  0.0703 -0.0228
  875YOPE   GL1 9951   9.638  13.856   6.678  0.2964 -0.1446  0.1376
  875YOPE   GL2 9952   9.608  13.514   6.676 -0.0232  0.3297  0.2920
  875YOPE   C1A 9953   9.620  13.747   7.156 -0.2882 -0.1621  0.1932
  875YOPE   D2A 9954  10.022  13.814   7.255 -0.1685 -0.2793  0.2456
  875YOPE   C3A 9955  10.036  14.155   7.639  0.1014 -0.0401  0.0269
  875YOPE   C4A 9956   9.833  14.181   8.023 -0.0880  0.2360  0.2090
  875YOPE   C1B 9957   9.863  13.325   7.006 -0.1716  0.4238 -0.0405
  875YOPE   C2B 9958   9.928  13.300   7.411  0.0473 -0.1713  0.0955
  875YOPE   D3B 9959  10.132  13.555   7.741  0.1823  0.4020  0.0138
  875YOPE   C4B 9960  10.242  13.882   8.003 -0.3019 -0.0696 -0.0813
  876YOPE   NH3 9961   8.431   5.456   6.267  0.1741  0.1388  0.0882
  876YOPE   PO4 9962   8.678   5.851   6.093  0.3367 -0.1640  0.2981
  876YOPE   GL1 9963   8.534   5.944   6.508  0.0906 -0.0062 -0.2645
  876YOPE   GL2 9964   8.211   5.753   6.607  0.1422  0.1882  0.2356
  876YOPE   C1A 9965   8.558   5.876   6.988 -0.0017 -0.1551  0.1000
  876YOPE   D2A 9966   8.654   5.788   7.369 -0.0922 -0.0437  0.3735
  876YOPE   C3A 9967   8.422   5.497   7.707  0.1966 -0.1645 -0.3788
  876YOPE   C4A 9968   8.164   5.379   7.964 -0.2562  0.0304 -0.1455
  876YOPE   C1B 9969   8.108   5.658   6.984  0.0950 -0.1220 -0.0367
  876YOPE   C2B 9970   8.016   5.622   7.401 -0.0353 -0.0835 -0.0524
  876YOPE   D3B 9971   7.830   5.646   7.719 -0.0461  0.1107 -0.0683
  876YOPE   C4B 9972   7.677   5.424   8.060  0.0392  0.1711  0.1039
  877YOPE   NH3 9973   0.846   4.934   5.896 -0.1918  0.1025  0.2060
  877YOPE   PO4 9974   0.408   5.144   5.899 -0.0959 -0.1133  0.2707
  877YOPE   GL1 9975   0.246   5.331   6.172  0.0749  0.1357  0.2046
  877YOPE   GL2 9976  -0.113   5.294   6.016 -0.1066  0.1329 -0.2159
  877YOPE   C1A 9977   0.194   5.418   6.579 -0.0460 -0.0048  0.2423
  877YOPE   D2A 9978   0.019   5.548   7.000 -0.2715  0.2721 -0.0704
  877YOPE   C3A 9979   0.145   5.877   7.305 -0.0018  0.2039  0.0323
  877YOPE   C4A 9980  -0.118   6.167   7.446 -0.2428  0.2590 -0.0799
  877YOPE   C1B 9981  -0.077   5.031   6.506  0.2202  0.1003 -0.0673
  877YOPE   C2B 9982  -0.234   5.110   6.967 -0.1547  0.1073 -0.3328
  877YOPE   D3B 9983  -0.585   5.144   7.083  0.3787 -0.1481 -0.0095
  877YOPE   C4B 9984  -0.928   5.481   7.147  0.3163  0.0861 -0.0546
  878YOPE   NH3 9985  12.803  12.844   6.525  0.4186 -0.4660 -0.1756
  878YOPE   PO4 9986  12.457  12.955   6.808  0.0495 -0.0058 -0.1039
  878YOPE   GL1 9987  12.363  13.043   7.188  0.1494 -0.2250  0.0118
  878YOPE   GL2 9988  12.597  13.302   7.287  0.1000 -0.0598  0.1320
  878YOPE   C1A 9989  12.253  13.014   7.582 -0.2256 -0.5043  0.2100
  878YOPE   D2A 9990  12.132  13.007   7.970 -0.1856 -0.0105 -0.1203
  878YOPE   C3A 9991  11.923  13.068   8.335  0.1384  0.2776  0.1620
  878YOPE   C4A 9992  11.933  13.173   8.719  0.2274  0.1189 -0.3218
  878YOPE   C1B 9993  12.706  13.541   7.613 -0.1457  0.0227  0.0386
  878YOPE   C2B 9994  12.726  13.643   8.000 -0.0249  0.2766  0.1079
  878YOPE   D3B 9995  13.140  13.421   8.055 -0.2367  0.0988  0.0474
  878YOPE   C4B 9996  13.185  13.011   8.309 -0.1163 -0.0728 -0.0203
  879YOPE   NH3 9997   4.410   9.337   6.007  0.0963 -0.0939  0.1778
  879YOPE   PO4 9998   4.438   9.791   6.120 -0.1250  0.2896 -0.1463
  879YOPE   GL1 9999   4.395   9.792   6.468 -0.1469  0.0838  0.1122
  879YOPE   GL210000   4.519  10.139   6.537 -0.1404 -0.0097  0.0876
  879YOPE   C1A10001   4.411   9.676   6.892  0.1159  0.1417 -0.1016
  879YOPE   D2A10002   4.424   9.531   7.315 -0.4145 -0.0189  0.1090
  879YOPE   C3A10003   4.421   9.188   7.506 -0.1237  0.0377  0.0431
  879YOPE   C4A10004   4.409   9.159   7.850 -0.0144  0.1063  0.1039
  879YOPE   C1B10005   4.369  10.115   7.008  0.0665  0.1741 -0.0490
  879YOPE   C2B10006   4.201  10.082   7.406  0.0400  0.0748  0.2023
  879YOPE   D3B10007   3.970  10.437   7.565  0.1280 -0.0025 -0.4086
  879YOPE   C4B10008   3.935  10.816   7.911  0.2553 -0.0197  0.3747
  880YOPE   NH310009  12.858  11.286   6.141 -0.3042  0.0236 -0.2782
  880YOPE   PO410010  13.158  11.529   6.230 -0.4674  0.0341 -0.2296
  880YOPE   GL110011  13.052  11.353   6.591 -0.0651 -0.0210 -0.0640
  880YOPE   GL210012  13.211  11.480   6.794 -0.3027  0.1592  0.2553
  880YOPE   C1A10013  13.040  10.993   6.813  0.0928 -0.1280 -0.3181
  880YOPE   D2A10014  12.687  10.840   7.093  0.7200  0.1794 -0.0251
  880YOPE   C3A10015  12.742  10.545   7.480 -0.0755  0.2044  0.1664
  880YOPE   C4A10016  12.758  10.291   7.786 -0.1184  0.3648  0.1018
  880YOPE   C1B10017  13.061  11.402   7.131 -0.1318 -0.3751  0.1201
  880YOPE   C2B10018  13.078  11.074   7.340  0.3354 -0.2582 -0.2137
  880YOPE   D3B10019  12.856  11.015   7.751 -0.1609 -0.0204  0.0079
  880YOPE   C4B10020  12.688  10.939   7.991  0.1730  0.0315  0.0219
  881YOPE   NH310021  14.289  17.536   6.564 -0.1292  0.3582  0.2555
  881YOPE   PO410022  14.719  17.425   6.598  0.0700 -0.2622 -0.1318
  881YOPE   GL110023  14.695  17.548   6.996 -0.0159  0.1161 -0.0689
  881YOPE   GL210024  14.558  17.269   7.189  0.2357 -0.0885  0.0348
  881YOPE   C1A10025  14.588  17.769   7.407 -0.3594  0.2625 -0.0949
  881YOPE   D2A10026  14.389  17.828   7.839 -0.0796  0.1658  0.1860
  881YOPE   C3A10027  14.261  17.611   8.021  0.0772  0.0871 -0.1311
  881YOPE   C4A10028  13.965  17.275   8.223  0.0847 -0.0429  0.0387
  881YOPE   C1B10029  14.395  17.291   7.590  0.1833 -0.0930 -0.0793
  881YOPE   C2B10030  14.405  17.109   7.983 -0.0526  0.1720  0.1403
  881YOPE   D3B10031  14.438  16.967   8.352  0.0111  0.1483  0.0425
  881YOPE   C4B10032  14.246  16.594   8.698 -0.1401 -0.1074  0.0219
  882YOPE   NH310033  11.100   7.613   5.994  0.3311 -0.1310  0.1196
  882YOPE   PO410034  11.457   7.840   6.216 -0.1591  0.0905  0.1043
  882YOPE   GL110035  11.575   7.672   6.630  0.2733 -0.2269  0.4855
  882YOPE   GL210036  11.674   7.418   6.613 -0.3428  0.1057 -0.0376
  882YOPE   C1A10037  11.596   7.912   6.961  0.0586 -0.2832  0.1405
  882YOPE   D2A10038  11.460   7.874   7.325  0.0043  0.2692 -0.2353
  882YOPE   C3A10039  11.542   7.459   7.514  0.2937  0.0649  0.0268
  882YOPE   C4A10040  11.741   7.111   7.429 -0.0196  0.2861 -0.1387
  882YOPE   C1B10041  12.115   7.503   6.496 -0.1209  0.0477  0.1284
  882YOPE   C2B10042  12.479   7.410   6.762  0.0938  0.0737  0.0310
  882YOPE   D3B10043  12.633   7.459   7.242 -0.0808 -0.0222 -0.2635
  882YOPE   C4B10044  12.343   7.414   7.680  0.1236 -0.2239  0.1619
  883YOPE   NH310045   2.039  12.951   6.017  0.2511 -0.0244  0.1252
  883YOPE   PO410046   1.738  12.908   6.409  0.1716 -0.2797  0.2052
  883YOPE   GL110047   1.433  13.035   6.741 -0.0269  0.1746  0.2384
  883YOPE   GL210048   1.474  13.338   6.744  0.2439  0.0951  0.2233
  883YOPE   C1A10049   1.318  13.004   7.093  0.1801  0.4275 -0.1975
  883YOPE   D2A10050   1.325  13.219   7.458  0.0499  0.1572 -0.1923
  883YOPE   C3A10051   0.921  13.381   7.752 -0.3021  0.0806  0.2156
  883YOPE   C4A10052   0.572  13.558   7.475  0.2046  0.1290 -0.2790
  883YOPE   C1B10053   1.734  13.311   7.171 -0.0209  0.3851 -0.0897
  883YOPE   C2B10054   1.745  13.463   7.584 -0.2519 -0.0774 -0.0308
  883YOPE   D3B10055   1.783  13.498   8.005 -0.2345  0.0206 -0.3724
  883YOPE   C4B10056   1.738  13.562   8.394  0.0865 -0.1858 -0.0595
  884YOPE   NH310057   8.702  10.873   6.091 -0.1393 -0.0963 -0.0942
  884YOPE   PO410058   8.499  11.160   6.358  0.0191 -0.2140 -0.0903
  884YOPE   GL110059   8.710  10.914   6.633  0.3081 -0.0292 -0.2972
  884YOPE   GL210060   8.985  11.125   6.705  0.2215  0.2620 -0.0371
  884YOPE   C1A10061   8.774  10.605   6.920 -0.1138  0.2663 -0.0006
  884YOPE   D2A10062   8.657  10.408   7.185  0.0398  0.3076  0.0417
  884YOPE   C3A10063   8.278  10.579   7.186  0.1569 -0.0330 -0.0215
  884YOPE   C4A10064   7.930  10.822   7.143  0.2069  0.0467  0.1387
  884YOPE   C1B10065   9.198  11.363   6.977 -0.2375 -0.1211 -0.2246
  884YOPE   C2B10066   9.302  11.744   7.155  0.0405  0.1491  0.1400
  884YOPE   D3B10067   9.534  12.087   7.381 -0.1983  0.1141  0.0686
  884YOPE   C4B10068   9.596  12.487   7.248  0.0966 -0.4471  0.3613
  885YOPE   NH310069  11.778  14.870   6.439 -0.0625 -0.1128 -0.0760
  885YOPE   PO410070  12.009  14.628   6.539  0.1008  0.1123 -0.1852
  885YOPE   GL110071  11.909  14.354   6.955  0.0426 -0.3693  0.6168
  885YOPE   GL210072  12.078  14.507   7.109 -0.0795  0.2110  0.2125
  885YOPE   C1A10073  11.736  14.124   7.308 -0.0270  0.2590 -0.0877
  885YOPE   D2A10074  11.541  14.201   7.730 -0.1284 -0.1734 -0.0336
  885YOPE   C3A10075  11.722  13.900   8.081  0.1326  0.0216  0.0329
  885YOPE   C4A10076  11.986  14.029   8.424 -0.0397  0.0657  0.0085
  885YOPE   C1B10077  11.893  14.569   7.544  0.1484 -0.0578 -0.1692
  885YOPE   C2B10078  11.714  14.709   8.009  0.1045 -0.0629  0.4838
  885YOPE   D3B10079  11.533  14.868   8.431 -0.0789 -0.2482  0.0547
  885YOPE   C4B10080  11.180  14.835   8.634  0.1127  0.1179 -0.1650
  886YOPE   NH310081  14.768  13.318   6.766 -0.0044 -0.0069 -0.1852
  886YOPE   PO410082  14.407  13.234   6.922 -0.1632  0.0211 -0.0382
  886YOPE   GL110083  14.590  13.218   7.278  0.5220  0.1317 -0.1276
  886YOPE   GL210084  14.908  13.421   7.280 -0.3507  0.0095  0.2076
  886YOPE   C1A10085  14.434  12.967   7.596 -0.1573  0.1849  0.1545
  886YOPE   D2A10086  14.336  12.852   7.996 -0.0121 -0.1443 -0.0567
  886YOPE   C3A10087  14.316  13.078   8.355  0.0360  0.0134  0.0754
  886YOPE   C4A10088  14.085  13.073   8.809 -0.0402  0.0559 -0.2224
  886YOPE   C1B10089  14.979  13.116   7.590 -0.2459 -0.1943  0.0356
  886YOPE   C2B10090  15.135  12.869   7.853  0.0120  0.2183 -0.2036
  886YOPE   D3B10091  14.869  12.867   8.197 -0.2245  0.0790  0.1001
  886YOPE   C4B10092  14.618  12.751   8.555  0.2418 -0.0057 -0.3052
  887YOPE   NH310093  11.948   0.423   5.962 -0.1405  0.2040 -0.3284
  887YOPE   PO410094  11.735   0.878   5.919 -0.1166  0.0162 -0.2876
  887YOPE   GL110095  11.676   0.882   6.309 -0.1054  0.1784 -0.1253
  887YOPE   GL210096  12.003   1.060   6.502  0.0256  0.5614  0.0240
  887YOPE   C1A10097  11.401   0.807   6.669  0.5388 -0.1983 -0.4111
  887YOPE   D2A10098  11.414   0.417   6.871 -0.3986  0.2468  0.0071
  887YOPE   C3A10099  11.502   0.464   7.345  0.0307 -0.0381  0.2505
  887YOPE   C4A10100  11.399   0.784   7.674 -0.2166 -0.0466 -0.2364
  887YOPE   C1B10101  11.867   1.336   6.882  0.2779  0.0003  0.0748
  887YOPE   C2B10102  11.868   1.578   7.279  0.1913 -0.2175  0.0774
  887YOPE   D3B10103  11.931   1.776   7.632  0.2373 -0.0403 -0.0125
  887YOPE   C4B10104  11.935   2.162   7.799 -0.1125  0.1068 -0.1843
  888YOPE   NH310105   1.797   0.365   7.063 -0.0975  0.0495  0.1468
  888YOPE   PO410106   2.168   0.524   6.976 -0.0879  0.2663  0.2308
  888YOPE   GL110107   2.081   0.703   7.271 -0.1152  0.0715  0.0042
  888YOPE   GL210108   2.080   1.008   7.340 -0.0543 -0.1489 -0.3471
  888YOPE   C1A10109   2.067   0.692   7.775  0.0882  0.1857  0.1785
  888YOPE   D2A10110   2.254   0.527   8.115  0.0387 -0.0875  0.1656
  888YOPE   C3A10111   2.259   0.672   8.442 -0.2074 -0.0394 -0.0174
  888YOPE   C4A10112   2.549   0.545   8.757  0.0785  0.0970 -0.3964
  888YOPE   C1B10113   2.303   1.117   7.759  0.0508 -0.0274  0.0235
  888YOPE   C2B10114   2.479   1.020   8.170 -0.1305  0.1022  0.0934
  888YOPE   D3B10115   2.718   0.839   8.419 -0.2186 -0.1016 -0.2372
  888YOPE   C4B10116   3.126   0.923   8.630 -0.0132 -0.0046  0.5659
  889YOPE   NH310117  12.038  17.000   6.255  0.3000 -0.1012  0.0471
  889YOPE   PO410118  12.348  17.336   6.225 -0.0202 -0.3350 -0.0958
  889YOPE   GL110119  12.554  17.341   6.588  0.1201  0.1506 -0.2645
  889YOPE   GL210120  12.439  17.529   6.808  0.1167 -0.0295  0.0960
  889YOPE   C1A10121  12.797  17.208   6.985  0.1079  0.3044  0.1502
  889YOPE   D2A10122  12.713  17.197   7.414 -0.1353 -0.1975 -0.0506
  889YOPE   C3A10123  12.658  17.388   7.753  0.0504  0.0128  0.1342
  889YOPE   C4A10124  12.643  17.304   8.173  0.0090  0.2204 -0.3095
  889YOPE   C1B10125  12.388  17.576   7.296  0.0234 -0.1820  0.0283
  889YOPE   C2B10126  12.247  17.650   7.619  0.0948  0.1562 -0.0783
  889YOPE   D3B10127  12.053  17.725   7.912 -0.2047  0.1291  0.2643
  889YOPE   C4B10128  11.677  17.874   7.835 -0.1306  0.1552 -0.4366
  890YOPE   NH310129  17.099  15.400   6.545 -0.0020  0.0531  0.2029
  890YOPE   PO410130  16.887  15.020   6.737 -0.3465 -0.0710  0.0210
  890YOPE   GL110131  16.814  14.734   7.041 -0.1139  0.1634  0.1325
  890YOPE   GL210132  16.953  14.396   7.086 -0.0865  0.2224  0.0256
  890YOPE   C1A10133  16.903  14.765   7.505 -0.1311  0.2487 -0.0934
  890YOPE   D2A10134  16.868  14.895   7.821 -0.2133  0.3729  0.0329
  890YOPE   C3A10135  17.067  14.775   8.159 -0.0798 -0.0085 -0.1601
  890YOPE   C4A10136  17.258  14.746   8.548 -0.0971  0.0106 -0.0067
  890YOPE   C1B10137  17.101  14.307   7.469  0.2349 -0.0525  0.0347
  890YOPE   C2B10138  17.013  14.095   7.802 -0.1078 -0.0168  0.2097
  890YOPE   D3B10139  17.000  13.722   7.837  0.2564 -0.0457 -0.1466
  890YOPE   C4B10140  17.064  13.548   8.263  0.1849 -0.0251  0.2926
  891YOPE   NH310141  11.206   4.464   6.171  0.2052 -0.1548  0.0563
  891YOPE   PO410142  11.134   4.091   5.892  0.0837  0.1537 -0.1331
  891YOPE   GL110143  11.077   4.029   6.400  0.1544  0.1211  0.0815
  891YOPE   GL210144  11.309   3.727   6.453  0.1363  0.1270  0.0015
  891YOPE   C1A10145  11.087   4.261   6.757  0.0961 -0.1567  0.0577
  891YOPE   D2A10146  11.359   4.419   7.131  0.6270 -0.2093 -0.1893
  891YOPE   C3A10147  11.540   4.199   7.484 -0.2426  0.1590  0.0583
  891YOPE   C4A10148  11.788   4.470   7.707 -0.1143 -0.1078 -0.0174
  891YOPE   C1B10149  11.142   3.791   6.880 -0.1636  0.1086  0.0117
  891YOPE   C2B10150  11.092   3.961   7.273  0.2320  0.2903 -0.0687
  891YOPE   D3B10151  11.194   3.920   7.717  0.0748  0.3368  0.1890
  891YOPE   C4B10152  11.454   3.798   8.031 -0.2658 -0.0229  0.1457
  892YOPE   NH310153   8.037  12.334   6.176 -0.0442 -0.1231 -0.2488
  892YOPE   PO410154   7.533  12.457   6.222 -0.3360 -0.0715  0.0193
  892YOPE   GL110155   7.614  12.360   6.652 -0.0014  0.2882  0.4220
  892YOPE   GL210156   7.485  12.034   6.530 -0.1125  0.0496 -0.0021
  892YOPE   C1A10157   7.747  12.297   6.969 -0.4298  0.2603 -0.2199
  892YOPE   D2A10158   7.831  12.334   7.262  0.0932 -0.0361  0.1786
  892YOPE   C3A10159   7.789  11.990   7.533  0.1610  0.2507 -0.0656
  892YOPE   C4A10160   7.808  12.004   7.966 -0.1371 -0.0268 -0.0065
  892YOPE   C1B10161   7.596  11.680   6.751 -0.0225  0.1320  0.0681
  892YOPE   C2B10162   7.682  11.581   7.128 -0.0643 -0.1830 -0.1019
  892YOPE   D3B10163   7.806  11.436   7.396 -0.1197  0.2667 -0.0359
  892YOPE   C4B10164   7.858  11.403   7.844  0.0319 -0.0863  0.0820
  893YOPE   NH310165  13.459  17.058   6.149 -0.0379 -0.3245 -0.0423
  893YOPE   PO410166  13.288  17.437   6.300 -0.1378 -0.0369  0.0724
  893YOPE   GL110167  13.071  17.577   6.709 -0.2482  0.1292  0.2587
  893YOPE   GL210168  13.265  17.448   6.953 -0.2010 -0.0168  0.0378
  893YOPE   C1A10169  12.817  17.683   7.073  0.0884  0.1713  0.2415
  893YOPE   D2A10170  12.736  17.827   7.525  0.0578 -0.0424 -0.3282
  893YOPE   C3A10171  13.090  17.921   7.806 -0.1381  0.1191 -0.3430
  893YOPE   C4A10172  13.321  18.097   8.164 -0.1614 -0.0952  0.0440
  893YOPE   C1B10173  13.311  17.126   7.275 -0.1432 -0.0667  0.0156
  893YOPE   C2B10174  13.106  17.067   7.748 -0.1129  0.1068 -0.3162
  893YOPE   D3B10175  13.010  17.046   8.202  0.1106 -0.2949 -0.0089
  893YOPE   C4B10176  12.984  16.808   8.546 -0.0166 -0.0248 -0.1526
  894YOPE   NH310177  12.022   2.199   6.179  0.0916  0.1932  0.5361
  894YOPE   PO410178  12.061   1.785   6.166  0.0506  0.0587  0.0173
  894YOPE   GL110179  12.049   1.860   6.602 -0.0168  0.2558 -0.2191
  894YOPE   GL210180  12.306   1.627   6.625 -0.3281  0.1522  0.0029
  894YOPE   C1A10181  12.186   2.005   7.012  0.1299 -0.1832  0.1341
  894YOPE   D2A10182  12.347   1.957   7.369  0.1194  0.2228 -0.0566
  894YOPE   C3A10183  12.388   1.540   7.549 -0.1202  0.3486 -0.0695
  894YOPE   C4A10184  12.290   1.351   7.840  0.0413 -0.1276 -0.1393
  894YOPE   C1B10185  12.467   1.580   7.054 -0.3707  0.1182  0.1438
  894YOPE   C2B10186  12.832   1.715   7.327  0.0086  0.2999  0.0973
  894YOPE   D3B10187  12.981   1.560   7.665  0.1335 -0.0676  0.0853
  894YOPE   C4B10188  12.999   1.567   8.109  0.1130  0.2022  0.1267
  895YOPE   NH310189  15.314  16.319   7.019  0.0128  0.2802  0.1966
  895YOPE   PO410190  15.197  16.845   7.038 -0.1070 -0.0674 -0.0846
  895YOPE   GL110191  15.213  16.666   7.431  0.1231  0.0955  0.0194
  895YOPE   GL210192  14.949  16.449   7.427 -0.1635  0.0164 -0.1983
  895YOPE   C1A10193  15.252  16.797   7.753 -0.0472  0.2979 -0.1360
  895YOPE   D2A10194  15.063  17.075   8.095 -0.4358 -0.4940  0.1321
  895YOPE   C3A10195  14.836  17.225   8.479 -0.1321  0.0617  0.0222
  895YOPE   C4A10196  14.547  17.446   8.686  0.0547 -0.3476 -0.1058
  895YOPE   C1B10197  14.919  16.266   7.804 -0.1104 -0.1975  0.0326
  895YOPE   C2B10198  15.091  16.004   8.187 -0.2478 -0.1182 -0.0280
  895YOPE   D3B10199  15.394  16.043   8.517  0.0488  0.0021  0.0030
  895YOPE   C4B10200  15.329  15.999   8.889  0.3979  0.3344  0.0621
  896YOPE   NH310201   7.843   5.839   5.741 -0.0702  0.0339 -0.0294
  896YOPE   PO410202   8.163   5.962   6.133 -0.1646 -0.1305 -0.1182
  896YOPE   GL110203   7.854   6.185   6.460 -0.1886  0.0189  0.0350
  896YOPE   GL210204   8.202   6.333   6.526 -0.1746  0.7385 -0.2157
  896YOPE   C1A10205   7.657   6.310   6.866 -0.1591 -0.1663  0.0897
  896YOPE   D2A10206   7.657   6.009   7.259 -0.1992  0.3691 -0.2136
  896YOPE   C3A10207   7.704   6.090   7.607 -0.0378  0.1185 -0.0752
  896YOPE   C4A10208   7.715   6.049   8.029 -0.2577  0.0223  0.3292
  896YOPE   C1B10209   8.176   6.286   6.939 -0.2333 -0.0004  0.0673
  896YOPE   C2B10210   8.219   6.113   7.364  0.1664 -0.0356 -0.1332
  896YOPE   D3B10211   8.226   5.942   7.717  0.0624 -0.0267  0.0011
  896YOPE   C4B10212   8.206   6.175   7.965  0.0902  0.0262  0.0032
  897YOPE   NH310213  18.315  10.275   5.843 -0.0383 -0.0753 -0.1949
  897YOPE   PO410214  18.171  10.028   6.220  0.2595 -0.2271  0.1149
  897YOPE   GL110215  18.094   9.808   6.496  0.0409 -0.0676  0.1987
  897YOPE   GL210216  18.351   9.581   6.690 -0.2052 -0.3493  0.2010
  897YOPE   C1A10217  17.926   9.666   6.860 -0.2819  0.1406 -0.1831
  897YOPE   D2A10218  18.031   9.719   7.215 -0.3792  0.4509 -0.0102
  897YOPE   C3A10219  18.266   9.634   7.576  0.1020 -0.1843  0.0258
  897YOPE   C4A10220  18.563   9.476   7.760  0.1241 -0.0119 -0.1188
  897YOPE   C1B10221  18.328   9.332   6.976 -0.1495 -0.3229  0.0293
  897YOPE   C2B10222  18.420   9.144   7.426 -0.3904 -0.1404  0.1896
  897YOPE   D3B10223  18.267   9.112   7.802 -0.1938 -0.0482 -0.0759
  897YOPE   C4B10224  18.006   8.850   8.095  0.3233 -0.0498  0.0859
  898YOPE   NH310225  13.278   7.281   5.047 -0.1640  0.0147  0.1868
  898YOPE   PO410226  13.257   7.451   5.496  0.1467 -0.4304 -0.0347
  898YOPE   GL110227  13.234   7.242   5.899  0.0498 -0.0891  0.1130
  898YOPE   GL210228  12.941   7.163   6.017 -0.0741  0.0248 -0.0186
  898YOPE   C1A10229  13.439   7.085   6.320 -0.0428 -0.0439  0.1830
  898YOPE   D2A10230  13.570   6.938   6.704  0.0623  0.1068 -0.0153
  898YOPE   C3A10231  13.791   6.599   6.789 -0.1586  0.0410 -0.2344
  898YOPE   C4A10232  14.105   6.477   6.505 -0.2061  0.2175 -0.0650
  898YOPE   C1B10233  13.124   7.489   6.346  0.0397 -0.0737 -0.0024
  898YOPE   C2B10234  13.004   7.813   6.576 -0.0421  0.1651  0.0966
  898YOPE   D3B10235  12.788   8.223   6.550 -0.3225 -0.2936 -0.1404
  898YOPE   C4B10236  12.988   8.456   6.904 -0.2213  0.1750 -0.2011
  899YOPE   NH310237  11.085  13.693   6.376 -0.2338  0.1740 -0.1903
  899YOPE   PO410238  10.828  14.095   6.222  0.2547 -0.1470 -0.0911
  899YOPE   GL110239  11.042  14.145   6.651 -0.1192 -0.0406  0.0224
  899YOPE   GL210240  11.318  13.941   6.788 -0.2424  0.1732 -0.0077
  899YOPE   C1A10241  10.923  14.123   7.066 -0.0330 -0.0750  0.0428
  899YOPE   D2A10242  11.057  14.102   7.521 -0.2058  0.1654 -0.3856
  899YOPE   C3A10243  10.887  14.516   7.695  0.1998  0.2151 -0.1989
  899YOPE   C4A10244  10.862  14.903   7.679 -0.0946 -0.1387  0.1789
  899YOPE   C1B10245  11.304  13.838   7.128 -0.1633 -0.1645 -0.1248
  899YOPE   C2B10246  11.439  13.775   7.573  0.1354 -0.1457 -0.1160
  899YOPE   D3B10247  11.207  13.887   7.983 -0.0139  0.0662  0.2997
  899YOPE   C4B10248  11.181  13.794   8.343 -0.1448 -0.0882  0.4579
  900YOPE   NH310249  13.575  11.564   6.483  0.1412  0.2003  0.2450
  900YOPE   PO410250  13.819  11.860   6.712  0.2802 -0.1138 -0.1562
  900YOPE   GL110251  13.775  12.072   7.060 -0.1617  0.5325  0.0045
  900YOPE   GL210252  13.510  12.272   6.998 -0.3039  0.2188  0.1908
  900YOPE   C1A10253  13.944  11.929   7.487 -0.2115  0.1296 -0.1245
  900YOPE   D2A10254  13.933  11.747   7.965  0.3271  0.0198  0.2811
  900YOPE   C3A10255  13.930  12.086   8.194 -0.4230 -0.5984 -0.2906
  900YOPE   C4A10256  14.071  12.576   8.297 -0.4103  0.2751  0.0288
  900YOPE   C1B10257  13.413  12.133   7.423 -0.0068 -0.0668 -0.0202
  900YOPE   C2B10258  13.176  12.185   7.775  0.1236 -0.0806 -0.1007
  900YOPE   D3B10259  12.824  12.440   8.035 -0.2294 -0.2669 -0.0014
  900YOPE   C4B10260  12.383  12.542   8.074 -0.1950 -0.2517 -0.1645
  901YOPE   NH310261  11.801  18.368   5.793  0.0200 -0.0816  0.0711
  901YOPE   PO410262  12.163  18.338   6.099  0.0090  0.0481 -0.1510
  901YOPE   GL110263  12.128  18.197   6.564  0.1296 -0.2567 -0.0142
  901YOPE   GL210264  12.093  17.774   6.576 -0.1382 -0.1449 -0.0860
  901YOPE   C1A10265  11.951  18.474   6.842  0.1048  0.0748  0.0025
  901YOPE   D2A10266  11.836  18.475   7.183 -0.0199 -0.1307 -0.0563
  901YOPE   C3A10267  11.917  18.790   7.539 -0.2376  0.3268  0.2452
  901YOPE   C4A10268  11.874  19.081   7.812  0.2119 -0.0171  0.2986
  901YOPE   C1B10269  11.946  17.982   7.036 -0.1227  0.3091  0.0537
  901YOPE   C2B10270  11.857  18.004   7.404  0.0528 -0.2663  0.3389
  901YOPE   D3B10271  11.626  18.339   7.652 -0.1433 -0.0236 -0.0658
  901YOPE   C4B10272  11.461  18.703   7.893  0.2776 -0.0860  0.0269
  902YOPE   NH310273  17.427   3.542   6.425  0.1517 -0.2337 -0.3651
  902YOPE   PO410274  17.769   3.802   6.395 -0.3018  0.0640 -0.2223
  902YOPE   GL110275  17.771   3.926   6.807 -0.2939  0.1655 -0.0829
  902YOPE   GL210276  17.684   4.232   6.901 -0.0982 -0.3920 -0.0784
  902YOPE   C1A10277  17.753   3.742   7.207 -0.2504 -0.3775  0.3284
  902YOPE   D2A10278  17.956   3.657   7.532 -0.1244  0.4130  0.0571
  902YOPE   C3A10279  18.338   3.530   7.755  0.1263  0.2597 -0.0294
  902YOPE   C4A10280  18.626   3.341   8.073 -0.0901 -0.3153  0.1799
  902YOPE   C1B10281  17.562   4.332   7.270 -0.0501 -0.1659  0.1245
  902YOPE   C2B10282  17.645   4.659   7.567 -0.0654  0.0068  0.0902
  902YOPE   D3B10283  17.708   4.934   7.712  0.0610  0.0297  0.1392
  902YOPE   C4B10284  17.744   5.154   8.078  0.0228  0.0086 -0.0045
  903YOPE   NH310285  14.991  13.814   6.749 -0.0366  0.2485 -0.2749
  903YOPE   PO410286  14.596  13.809   6.665 -0.2875  0.1137  0.1144
  903YOPE   GL110287  14.497  13.730   7.150 -0.2909 -0.0513 -0.0354
  903YOPE   GL210288  14.742  13.965   7.193 -0.0416 -0.1595 -0.0234
  903YOPE   C1A10289  14.644  13.663   7.580 -0.0999 -0.0103 -0.0337
  903YOPE   D2A10290  14.696  13.399   7.899  0.2469 -0.4160 -0.2169
  903YOPE   C3A10291  14.891  13.386   8.304  0.0438 -0.0309  0.2590
  903YOPE   C4A10292  14.687  13.381   8.680  0.1392 -0.1236  0.0612
  903YOPE   C1B10293  14.500  14.131   7.538 -0.1768  0.1841  0.3543
  903YOPE   C2B10294  14.447  13.946   7.936  0.0442  0.3238  0.1328
  903YOPE   D3B10295  14.321  13.859   8.235 -0.2341  0.1418  0.1453
  903YOPE   C4B10296  14.190  13.513   8.500  0.3235  0.0575  0.0052
  904YOPE   NH310297  15.795  12.926   6.419 -0.1289 -0.1645 -0.4549
  904YOPE   PO410298  16.017  13.307   6.426 -0.0858 -0.0786  0.1144
  904YOPE   GL110299  16.103  13.300   6.939  0.3190 -0.0494 -0.1544
  904YOPE   GL210300  16.070  12.976   6.988  0.0060  0.0547 -0.1290
  904YOPE   C1A10301  16.039  13.424   7.444  0.2747  0.3222  0.0885
  904YOPE   D2A10302  16.142  13.303   7.819  0.1660  0.1518 -0.0939
  904YOPE   C3A10303  15.824  13.320   7.987  0.1475 -0.3576 -0.1188
  904YOPE   C4A10304  15.847  13.312   8.457  0.1687 -0.1026  0.0419
  904YOPE   C1B10305  15.918  12.834   7.378 -0.3561  0.2470 -0.3098
  904YOPE   C2B10306  15.702  12.805   7.736 -0.1916  0.1565 -0.0096
  904YOPE   D3B10307  15.609  12.581   8.102 -0.0589  0.1196 -0.1116
  904YOPE   C4B10308  15.653  12.471   8.418  0.3348 -0.1132 -0.0954
  905YOPE   NH310309   4.807   3.456   5.697  0.2383 -0.2612  0.0496
  905YOPE   PO410310   4.699   3.541   6.105  0.1347 -0.3946 -0.2525
  905YOPE   GL110311   4.579   3.394   6.674  0.1103 -0.2193 -0.2078
  905YOPE   GL210312   4.442   3.168   6.704  0.3752  0.2489 -0.2075
  905YOPE   C1A10313   4.856   3.400   7.103 -0.0081 -0.1281 -0.1111
  905YOPE   D2A10314   4.871   3.632   7.530  0.2120  0.2477  0.1138
  905YOPE   C3A10315   5.119   3.649   7.849  0.0135  0.0735  0.1949
  905YOPE   C4A10316   5.341   3.802   8.236  0.3189 -0.1896  0.0293
  905YOPE   C1B10317   4.445   3.142   7.218 -0.1602  0.4910  0.1154
  905YOPE   C2B10318   4.762   3.132   7.482 -0.1986  0.1732 -0.1429
  905YOPE   D3B10319   4.829   3.224   7.942 -0.0346 -0.2699 -0.0424
  905YOPE   C4B10320   4.589   3.079   8.293 -0.0571 -0.2475  0.2154
  906YOPE   NH310321  11.364   5.503   5.842 -0.2232 -0.0494 -0.2488
  906YOPE   PO410322  11.723   5.288   5.987  0.2052  0.0296  0.0313
  906YOPE   GL110323  11.536   5.498   6.327  0.1009 -0.2550  0.0701
  906YOPE   GL210324  11.702   5.805   6.207  0.0675  0.4143 -0.0790
  906YOPE   C1A10325  11.354   5.424   6.748  0.0539 -0.0490  0.0406
  906YOPE   D2A10326  11.449   5.467   7.235  0.2011  0.0834  0.0616
  906YOPE   C3A10327  11.665   5.771   7.550  0.2835  0.1415 -0.1097
  906YOPE   C4A10328  12.157   5.765   7.487  0.1454 -0.1323 -0.1054
  906YOPE   C1B10329  11.923   6.062   6.474 -0.2253  0.1652  0.0003
  906YOPE   C2B10330  12.340   6.051   6.583  0.0743 -0.0552 -0.0208
  906YOPE   D3B10331  12.548   5.669   6.652  0.1202 -0.2390  0.0493
  906YOPE   C4B10332  12.445   5.250   6.677  0.0151  0.2308 -0.1734
  907YOPE   NH310333  16.586   7.136   5.670 -0.1147 -0.0009 -0.0848
  907YOPE   PO410334  16.100   7.107   5.684  0.1812 -0.0946  0.1845
  907YOPE   GL110335  16.032   7.419   6.087  0.1193  0.2182  0.1018
  907YOPE   GL210336  16.085   7.732   5.966  0.0284  0.0916 -0.1053
  907YOPE   C1A10337  16.169   7.287   6.512 -0.4698 -0.2990  0.0405
  907YOPE   D2A10338  16.155   7.311   6.968  0.3346 -0.1027 -0.1077
  907YOPE   C3A10339  15.911   7.338   7.395  0.1525  0.1949  0.1133
  907YOPE   C4A10340  16.033   7.649   7.678  0.1626  0.2220 -0.0327
  907YOPE   C1B10341  16.072   7.940   6.412  0.0580 -0.1879 -0.1605
  907YOPE   C2B10342  15.850   8.087   6.809  0.1916  0.3380  0.0352
  907YOPE   D3B10343  15.928   8.345   6.973  0.2601 -0.0354 -0.0427
  907YOPE   C4B10344  15.863   8.626   7.242  0.0142 -0.1669  0.0251
  908YOPE   NH310345   9.753   0.499   5.967 -0.1184 -0.0799 -0.0724
  908YOPE   PO410346   9.680   0.011   6.130 -0.0430  0.3283 -0.1261
  908YOPE   GL110347   9.405  -0.040   6.498 -0.0310 -0.1312  0.1369
  908YOPE   GL210348   9.256  -0.305   6.440 -0.2892  0.1526 -0.0234
  908YOPE   C1A10349   9.274   0.102   6.909 -0.2175  0.0102  0.0250
  908YOPE   D2A10350   8.972   0.138   7.312 -0.2217 -0.1415 -0.3953
  908YOPE   C3A10351   8.917   0.345   7.669 -0.0923 -0.1022 -0.0647
  908YOPE   C4A10352   8.929   0.454   8.073 -0.0094 -0.1469 -0.2640
  908YOPE   C1B10353   8.932  -0.266   6.655  0.0567  0.1061  0.3781
  908YOPE   C2B10354   8.882  -0.300   7.099  0.0176  0.1262 -0.0243
  908YOPE   D3B10355   9.042  -0.451   7.447  0.0295 -0.0893 -0.2404
  908YOPE   C4B10356   9.251  -0.436   7.765 -0.1267  0.3636 -0.1641
  909YOPE   NH310357  12.769   8.262   6.076 -0.0448  0.0649 -0.1715
  909YOPE   PO410358  12.644   8.515   5.679 -0.0430 -0.0917  0.0852
  909YOPE   GL110359  12.565   8.771   6.084  0.2894  0.4926 -0.0905
  909YOPE   GL210360  12.264   8.467   6.250  0.0738 -0.0797 -0.2780
  909YOPE   C1A10361  12.820   8.874   6.405 -0.0526  0.0654 -0.0065
  909YOPE   D2A10362  13.123   9.173   6.751  0.3181  0.1986 -0.1507
  909YOPE   C3A10363  13.331   8.886   7.148  0.0588  0.0384 -0.2503
  909YOPE   C4A10364  13.223   8.958   7.617 -0.0602 -0.0992 -0.0482
  909YOPE   C1B10365  12.285   8.544   6.622  0.1700 -0.0625  0.2231
  909YOPE   C2B10366  12.393   8.310   6.980 -0.0568 -0.0272 -0.0063
  909YOPE   D3B10367  12.422   8.103   7.363 -0.0714  0.1989 -0.2611
  909YOPE   C4B10368  12.578   8.255   7.791 -0.1037 -0.2442  0.0103
  910YOPE   NH310369  12.942   4.499   6.005 -0.1266  0.0229 -0.4512
  910YOPE   PO410370  13.237   4.299   6.244  0.1959 -0.1154  0.1611
  910YOPE   GL110371  13.506   4.417   6.437  0.1631 -0.3960 -0.1656
  910YOPE   GL210372  13.648   4.735   6.388 -0.2538 -0.1591 -0.5845
  910YOPE   C1A10373  13.610   4.522   6.868 -0.2540 -0.3703 -0.3076
  910YOPE   D2A10374  13.836   4.909   7.026 -0.2256 -0.2520  0.1496
  910YOPE   C3A10375  13.834   5.076   7.403  0.2167 -0.2837 -0.1645
  910YOPE   C4A10376  13.677   4.971   7.862  0.1200 -0.0505  0.2690
  910YOPE   C1B10377  13.520   5.110   6.596  0.0892  0.0915 -0.3492
  910YOPE   C2B10378  13.494   5.474   6.818  0.0734  0.0087  0.3658
  910YOPE   D3B10379  13.568   5.547   7.247 -0.0367  0.1925 -0.0509
  910YOPE   C4B10380  13.533   5.421   7.655  0.2250  0.0502 -0.0158
  911YOPE   NH310381  17.393  14.281   6.775 -0.0350  0.0383 -0.0967
  911YOPE   PO410382  17.813  14.439   6.960  0.1005  0.1469 -0.1958
  911YOPE   GL110383  17.865  14.374   7.421 -0.0708 -0.1191 -0.0472
  911YOPE   GL210384  18.157  14.573   7.472  0.3104 -0.0100 -0.0760
  911YOPE   C1A10385  17.960  14.119   7.700  0.1660  0.1002 -0.0529
  911YOPE   D2A10386  18.303  14.098   7.978 -0.2402  0.0350  0.3437
  911YOPE   C3A10387  18.410  13.784   8.354  0.2024 -0.3456  0.0430
  911YOPE   C4A10388  18.409  13.315   8.545  0.1524  0.0763 -0.2244
  911YOPE   C1B10389  18.652  14.363   7.516  0.1627 -0.0977  0.0535
  911YOPE   C2B10390  18.976  14.082   7.566 -0.0805 -0.0370  0.0527
  911YOPE   D3B10391  19.237  13.811   7.887  0.2114  0.0309  0.0018
  911YOPE   C4B10392  19.330  13.557   8.303  0.0959 -0.0426 -0.0811
  912YOPE   NH310393  17.697  15.947   6.983 -0.2919  0.1786 -0.0281
  912YOPE   PO410394  17.400  15.738   7.171 -0.0660 -0.1120 -0.0912
  912YOPE   GL110395  17.371  15.448   7.401 -0.2763  0.5758  0.1847
  912YOPE   GL210396  17.264  15.113   7.357  0.1047 -0.2620  0.0993
  912YOPE   C1A10397  17.583  15.323   7.840  0.1040 -0.1458  0.1555
  912YOPE   D2A10398  17.754  15.046   8.078 -0.1700  0.1500  0.0258
  912YOPE   C3A10399  17.563  15.096   8.472 -0.1724 -0.3775  0.5799
  912YOPE   C4A10400  17.606  14.998   8.888 -0.2285  0.1536  0.0100
  912YOPE   C1B10401  17.495  14.742   7.713 -0.1903  0.2300  0.0489
  912YOPE   C2B10402  17.613  14.382   8.018 -0.2220 -0.2134 -0.0331
  912YOPE   D3B10403  17.483  14.299   8.480 -0.1450 -0.2878  0.1222
  912YOPE   C4B10404  17.211  14.088   8.792 -0.2018 -0.0172 -0.3718
  913YOPE   NH310405   8.789   2.065   5.490  0.3149  0.0019  0.0743
  913YOPE   PO410406   8.434   1.625   5.688  0.1598 -0.0895  0.1211
  913YOPE   GL110407   8.585   1.806   5.936 -0.3264  0.0360  0.4421
  913YOPE   GL210408   8.619   2.174   6.055  0.2082  0.2237 -0.3692
  913YOPE   C1A10409   8.816   1.955   6.414  0.2505  0.2576 -0.1409
  913YOPE   D2A10410   8.847   1.878   6.839  0.2601 -0.0032  0.6359
  913YOPE   C3A10411   8.873   2.153   7.145  0.3135 -0.1396  0.2218
  913YOPE   C4A10412   9.017   2.436   7.452  0.0595 -0.1609 -0.1462
  913YOPE   C1B10413   8.755   2.641   6.028 -0.3373 -0.0623  0.3013
  913YOPE   C2B10414   8.510   2.892   5.931 -0.0908 -0.2080 -0.0496
  913YOPE   D3B10415   8.191   3.159   6.024  0.1526 -0.0323 -0.2330
  913YOPE   C4B10416   7.859   3.318   6.480 -0.1795  0.2478 -0.0038
  914YOPE   NH310417   3.305  13.005   5.967  0.1073 -0.3151  0.1540
  914YOPE   PO410418   3.531  12.802   6.340 -0.2977  0.1013  0.1189
  914YOPE   GL110419   3.443  12.927   6.699 -0.0770 -0.2678 -0.0453
  914YOPE   GL210420   3.200  12.763   6.795  0.1127 -0.1667  0.3573
  914YOPE   C1A10421   3.597  13.181   6.957 -0.0631  0.4177  0.1615
  914YOPE   D2A10422   3.379  13.304   7.363 -0.2195  0.1354  0.1643
  914YOPE   C3A10423   3.666  13.392   7.724  0.1978 -0.1516  0.4642
  914YOPE   C4A10424   3.744  13.461   8.255 -0.0081 -0.0680  0.1054
  914YOPE   C1B10425   3.420  12.807   7.207  0.0911 -0.1360  0.2791
  914YOPE   C2B10426   3.839  12.954   7.449 -0.0790 -0.0020  0.3658
  914YOPE   D3B10427   4.002  12.997   7.826  0.0358  0.1202  0.1190
  914YOPE   C4B10428   4.378  13.035   8.058  0.1149 -0.0978 -0.0030
  915YOPE   NH310429  10.493  10.332   5.924 -0.2770 -0.2238  0.0739
  915YOPE   PO410430  10.332  10.702   6.100  0.2674  0.1039 -0.2744
  915YOPE   GL110431  10.608  10.664   6.465  0.0429 -0.0695  0.3377
  915YOPE   GL210432  10.713  10.396   6.374  0.1192  0.1166 -0.4799
  915YOPE   C1A10433  10.911  10.723   6.841 -0.0186  0.0316  0.2093
  915YOPE   D2A10434  11.396  10.726   6.901 -0.0434 -0.1599  0.0422
  915YOPE   C3A10435  11.707  10.490   7.057 -0.1848 -0.0600 -0.0895
  915YOPE   C4A10436  11.711  10.570   7.453  0.0369 -0.4061  0.0007
  915YOPE   C1B10437  10.649  10.116   6.756 -0.2982 -0.1499  0.1004
  915YOPE   C2B10438  10.498   9.888   7.120 -0.1455 -0.0281 -0.1652
  915YOPE   D3B10439  10.394   9.867   7.533  0.0764  0.1148 -0.1920
  915YOPE   C4B10440  10.242   9.725   7.870 -0.2392  0.0891 -0.2616
  916YOPE   NH310441  10.868   0.070   5.832 -0.1342 -0.0381  0.0756
  916YOPE   PO410442  11.312   0.141   5.675 -0.0332  0.0769  0.0108
  916YOPE   GL110443  11.301   0.084   6.135 -0.3341  0.1593  0.2656
  916YOPE   GL210444  11.472   0.418   6.185  0.0134  0.0735  0.0542
  916YOPE   C1A10445  11.144   0.150   6.512  0.1554 -0.2254  0.1512
  916YOPE   D2A10446  10.768   0.150   6.697  0.0342 -0.2099  0.1636
  916YOPE   C3A10447  10.819   0.285   7.160 -0.0512  0.1909 -0.0513
  916YOPE   C4A10448  11.000   0.416   7.547 -0.0778  0.1862  0.2076
  916YOPE   C1B10449  11.618   0.174   6.526 -0.1181 -0.1605  0.3022
  916YOPE   C2B10450  11.565  -0.177   6.706 -0.2495 -0.0739 -0.2629
  916YOPE   D3B10451  11.463  -0.204   7.113  0.1727 -0.0438  0.5446
  916YOPE   C4B10452  11.218  -0.012   7.393 -0.0564  0.1505  0.1232
  917YOPE   NH310453   3.337   1.213   6.531 -0.1352  0.2166 -0.1585
  917YOPE   PO410454   3.103   1.622   6.322 -0.4009  0.0582  0.2692
  917YOPE   GL110455   3.116   1.696   6.725  0.1692  0.0341 -0.3264
  917YOPE   GL210456   3.369   1.760   6.824 -0.1292  0.0188  0.3877
  917YOPE   C1A10457   3.043   1.422   7.028 -0.1915 -0.1430 -0.0282
  917YOPE   D2A10458   2.891   1.250   7.361  0.0996  0.0832  0.1150
  917YOPE   C3A10459   2.704   1.387   7.784 -0.0369 -0.2116  0.0198
  917YOPE   C4A10460   2.748   1.812   7.935  0.1738  0.2154 -0.0812
  917YOPE   C1B10461   3.680   1.992   6.951 -0.0017  0.1876 -0.2209
  917YOPE   C2B10462   3.765   1.940   7.331  0.1158 -0.3507 -0.1676
  917YOPE   D3B10463   4.017   1.797   7.689  0.2681  0.1204 -0.0273
  917YOPE   C4B10464   4.167   1.578   7.992 -0.1599  0.1940 -0.0650
  918YOPE   NH310465   6.678   4.934   5.688  0.2881  0.0674  0.0251
  918YOPE   PO410466   6.617   4.445   5.527  0.1910 -0.3859 -0.2034
  918YOPE   GL110467   6.640   4.453   5.931 -0.0942  0.0315  0.2462
  918YOPE   GL210468   6.967   4.255   6.050 -0.4355  0.2209 -0.1056
  918YOPE   C1A10469   6.613   4.467   6.375 -0.2958  0.0069  0.0958
  918YOPE   D2A10470   6.109   4.462   6.541 -0.4305  0.1425 -0.0899
  918YOPE   C3A10471   5.857   4.057   6.572  0.3144  0.0820 -0.1017
  918YOPE   C4A10472   5.764   3.680   6.695  0.2584  0.1578 -0.1261
  918YOPE   C1B10473   7.298   4.145   6.262 -0.0881 -0.2634  0.2620
  918YOPE   C2B10474   7.600   4.159   6.675 -0.0174 -0.1569 -0.0359
  918YOPE   D3B10475   7.661   4.355   7.117  0.2536  0.1208 -0.0510
  918YOPE   C4B10476   7.782   4.193   7.561  0.1191  0.0240  0.3593
  919YOPE   NH310477   2.221  14.163   6.512 -0.3250  0.3393  0.0319
  919YOPE   PO410478   1.870  14.336   6.616  0.1344  0.2916  0.1251
  919YOPE   GL110479   1.953  14.205   7.070 -0.2825  0.2453 -0.2470
  919YOPE   GL210480   1.784  14.510   7.190  0.0566 -0.0051 -0.4849
  919YOPE   C1A10481   1.851  13.994   7.381  0.0940 -0.1194  0.0653
  919YOPE   D2A10482   1.844  13.904   7.768  0.0669  0.1217  0.0464
  919YOPE   C3A10483   2.043  13.979   8.252  0.1335  0.4256  0.2889
  919YOPE   C4A10484   2.085  14.321   8.581 -0.1724  0.2379 -0.1105
  919YOPE   C1B10485   1.787  14.450   7.548 -0.1147  0.3269 -0.2447
  919YOPE   C2B10486   1.789  14.417   7.943 -0.0024 -0.0797 -0.1304
  919YOPE   D3B10487   1.573  14.219   8.156 -0.1577 -0.2144  0.0542
  919YOPE   C4B10488   1.334  13.787   8.150 -0.1081 -0.2514  0.3350
  920YOPE   NH310489  10.553  16.791   6.176  0.0068  0.3244 -0.0739
  920YOPE   PO410490  10.947  16.901   6.070  0.3879  0.0635  0.1677
  920YOPE   GL110491  11.214  16.841   6.447  0.1551 -0.0625  0.0681
  920YOPE   GL210492  11.482  17.051   6.485  0.0272 -0.0061  0.2855
  920YOPE   C1A10493  11.266  16.677   6.904 -0.4104  0.0245  0.0217
  920YOPE   D2A10494  10.987  16.487   7.272  0.4093  0.3252  0.3499
  920YOPE   C3A10495  10.868  16.124   7.351  0.0805 -0.1632  0.0192
  920YOPE   C4A10496  10.663  16.263   7.750  0.1405 -0.0687  0.0042
  920YOPE   C1B10497  11.480  17.120   6.927  0.0425  0.0676 -0.2363
  920YOPE   C2B10498  11.257  17.332   7.290 -0.1021  0.0187  0.2411
  920YOPE   D3B10499  10.977  17.549   7.551 -0.0105  0.2994 -0.0552
  920YOPE   C4B10500  10.747  17.474   7.958 -0.2937  0.0224 -0.2136
  921YOPE   NH310501   7.388  17.734   5.689 -0.2021 -0.1449 -0.0360
  921YOPE   PO410502   7.156  17.336   5.558  0.0436 -0.1581 -0.2962
  921YOPE   GL110503   7.313  17.299   5.966  0.1500  0.1668  0.1780
  921YOPE   GL210504   7.139  17.083   6.044 -0.1304 -0.2964  0.1993
  921YOPE   C1A10505   7.555  17.153   6.323  0.0811 -0.0335  0.2236
  921YOPE   D2A10506   7.830  17.043   6.586 -0.0015 -0.1516  0.2272
  921YOPE   C3A10507   7.791  16.983   7.024 -0.0404  0.2757 -0.0213
  921YOPE   C4A10508   7.598  16.868   7.365  0.3142 -0.1233  0.0240
  921YOPE   C1B10509   6.868  16.813   6.375  0.3394 -0.0680  0.1578
  921YOPE   C2B10510   6.643  16.531   6.599  0.1569  0.1565 -0.5898
  921YOPE   D3B10511   6.423  16.134   6.549  0.0788 -0.0300  0.0727
  921YOPE   C4B10512   6.214  15.765   6.627 -0.2736 -0.0426  0.1460
  922YOPE   NH310513  18.250  14.628   6.998 -0.0846 -0.0542 -0.1370
  922YOPE   PO410514  18.617  14.553   6.705  0.1610  0.3875 -0.3207
  922YOPE   GL110515  18.928  14.474   7.036 -0.3220  0.1780  0.0046
  922YOPE   GL210516  18.949  14.864   6.981 -0.1226  0.0766 -0.0422
  922YOPE   C1A10517  19.158  14.513   7.451  0.0163  0.0739 -0.2049
  922YOPE   D2A10518  19.082  14.541   7.854  0.0441  0.0576  0.2708
  922YOPE   C3A10519  18.818  14.229   8.013 -0.0506  0.0478  0.0930
  922YOPE   C4A10520  18.936  13.982   8.279 -0.1221  0.0488  0.1969
  922YOPE   C1B10521  18.749  14.889   7.353  0.0867 -0.3101  0.0095
  922YOPE   C2B10522  18.597  14.787   7.783  0.1206 -0.1177 -0.1769
  922YOPE   D3B10523  18.676  14.701   8.162  0.0526  0.0883 -0.0709
  922YOPE   C4B10524  18.715  14.968   8.421 -0.0608 -0.1105 -0.0572
  923YOPE   NH310525  17.125  16.986   6.787  0.2059 -0.1648 -0.0064
  923YOPE   PO410526  17.025  16.589   6.908  0.0173  0.1419 -0.0612
  923YOPE   GL110527  17.029  16.450   7.319 -0.0365  0.2450  0.3870
  923YOPE   GL210528  17.175  16.538   7.550 -0.3121 -0.5335  0.2511
  923YOPE   C1A10529  16.830  16.261   7.591  0.0641  0.1795 -0.1947
  923YOPE   D2A10530  16.666  16.066   7.926 -0.1355 -0.1244  0.2856
  923YOPE   C3A10531  16.838  15.726   8.162 -0.3048  0.1757  0.0177
  923YOPE   C4A10532  16.942  15.707   8.536  0.0900  0.0037 -0.1537
  923YOPE   C1B10533  16.894  16.636   7.959  0.1801 -0.1623  0.1492
  923YOPE   C2B10534  16.710  16.767   8.394  0.0857  0.0680  0.1077
  923YOPE   D3B10535  16.342  16.530   8.619  0.2277 -0.1047  0.0365
  923YOPE   C4B10536  16.425  16.262   9.031 -0.1800  0.1082 -0.0327
  924YOPE   NH310537  10.400   8.372   6.183 -0.0376  0.0386 -0.1424
  924YOPE   PO410538  10.253   7.877   6.016 -0.0744  0.4284 -0.3375
  924YOPE   GL110539  10.279   7.789   6.459  0.4332 -0.2434  0.1240
  924YOPE   GL210540  10.542   8.063   6.562  0.2884 -0.2522  0.1230
  924YOPE   C1A10541  10.300   7.724   6.865  0.0237  0.0362  0.0049
  924YOPE   D2A10542  10.449   7.735   7.299  0.3242 -0.3573 -0.2329
  924YOPE   C3A10543  10.476   7.928   7.740  0.1097 -0.1480  0.0364
  924YOPE   C4A10544  10.506   7.908   8.168 -0.2398  0.0836  0.4343
  924YOPE   C1B10545  10.734   8.018   6.900  0.2377 -0.1033  0.6437
  924YOPE   C2B10546  10.900   7.962   7.248 -0.1415 -0.1268 -0.0600
  924YOPE   D3B10547  11.004   7.948   7.673  0.0453  0.0112  0.1521
  924YOPE   C4B10548  10.838   7.528   7.757 -0.0811 -0.2361 -0.1879
  925YOPE   NH310549   8.804  13.643   6.413 -0.0295  0.3562  0.0995
  925YOPE   PO410550   8.530  13.327   6.232 -0.1383  0.0196  0.1048
  925YOPE   GL110551   8.281  13.417   6.578 -0.1053 -0.0982 -0.0736
  925YOPE   GL210552   8.258  13.737   6.615  0.0296 -0.2414 -0.0723
  925YOPE   C1A10553   8.058  13.222   6.886  0.0569  0.0740 -0.0184
  925YOPE   D2A10554   8.022  13.264   7.341 -0.1401  0.0598  0.2420
  925YOPE   C3A10555   7.584  13.390   7.542 -0.1113  0.3982 -0.0226
  925YOPE   C4A10556   7.270  13.310   7.931  0.0812  0.1550  0.0751
  925YOPE   C1B10557   8.317  13.762   7.119 -0.2886 -0.3238 -0.0228
  925YOPE   C2B10558   8.262  13.679   7.593  0.0745 -0.0115 -0.1554
  925YOPE   D3B10559   7.975  13.485   7.838 -0.2539  0.1239  0.0548
  925YOPE   C4B10560   7.694  13.473   8.149  0.1252  0.3233 -0.3258
  926YOPE   NH310561  13.609   4.436   5.926 -0.1301 -0.2525  0.0604
  926YOPE   PO410562  13.376   4.809   5.882 -0.2766 -0.1568 -0.0185
  926YOPE   GL110563  13.129   4.818   6.340  0.1411  0.1839 -0.0079
  926YOPE   GL210564  12.949   4.999   6.481  0.2302  0.0367  0.0367
  926YOPE   C1A10565  13.143   4.738   6.883 -0.2302 -0.0945 -0.0230
  926YOPE   D2A10566  13.300   5.020   7.115 -0.0083 -0.2955 -0.1808
  926YOPE   C3A10567  13.091   5.322   7.319  0.3001 -0.1260 -0.0159
  926YOPE   C4A10568  13.105   5.595   7.524  0.0254 -0.0425 -0.0404
  926YOPE   C1B10569  12.983   5.226   6.804 -0.0641  0.0990  0.0345
  926YOPE   C2B10570  13.020   5.590   6.793 -0.2152 -0.1688  0.0168
  926YOPE   D3B10571  13.205   5.876   7.018 -0.0261 -0.1799  0.0868
  926YOPE   C4B10572  13.455   5.965   7.423 -0.4258  0.1523  0.2357
  927YOPE   NH310573   1.365   5.473   6.008  0.2108  0.0195 -0.1567
  927YOPE   PO410574   1.787   5.269   6.054 -0.1856  0.0410 -0.3298
  927YOPE   GL110575   1.571   5.238   6.518  0.0387  0.2305  0.1553
  927YOPE   GL210576   1.401   4.874   6.613  0.0227 -0.1127  0.5521
  927YOPE   C1A10577   1.479   5.630   6.813  0.0168 -0.0058  0.0358
  927YOPE   D2A10578   1.571   5.847   7.262 -0.1873 -0.0325  0.0580
  927YOPE   C3A10579   1.695   5.634   7.590  0.0266 -0.0338  0.1669
  927YOPE   C4A10580   2.085   5.344   7.809 -0.0556  0.2835  0.2690
  927YOPE   C1B10581   1.429   5.133   6.989  0.1542 -0.3873  0.1000
  927YOPE   C2B10582   1.385   5.337   7.320  0.0720 -0.0603 -0.2462
  927YOPE   D3B10583   1.269   5.281   7.682  0.2203 -0.1078 -0.1017
  927YOPE   C4B10584   1.071   5.400   8.150  0.0901  0.2745  0.2296
  928YOPE   NH310585   1.951  17.077   6.798  0.1554 -0.3304 -0.2521
  928YOPE   PO410586   2.065  17.552   6.695  0.1336 -0.1305  0.2657
  928YOPE   GL110587   1.890  17.741   7.140 -0.2393  0.0305 -0.1106
  928YOPE   GL210588   1.592  17.732   7.309 -0.1009  0.1160 -0.0606
  928YOPE   C1A10589   2.099  17.939   7.510  0.4146  0.1569  0.1550
  928YOPE   D2A10590   2.142  18.288   7.785  0.0118 -0.0299  0.0543
  928YOPE   C3A10591   2.314  18.340   8.177 -0.1059  0.5094  0.2217
  928YOPE   C4A10592   2.434  18.527   8.531 -0.1199  0.0113 -0.1032
  928YOPE   C1B10593   1.454  17.648   7.714  0.0583 -0.1194  0.0079
  928YOPE   C2B10594   1.495  17.772   8.225  0.1356 -0.1846  0.0023
  928YOPE   D3B10595   1.608  17.467   8.537 -0.1262  0.2729  0.0419
  928YOPE   C4B10596   1.689  17.094   8.671  0.0303 -0.0600  0.1008
  929YOPE   NH310597  10.728   1.896   6.072 -0.1781  0.0329  0.1379
  929YOPE   PO410598  10.399   1.655   5.849  0.2355 -0.1709 -0.1079
  929YOPE   GL110599  10.328   1.710   6.291 -0.1334  0.0107  0.0881
  929YOPE   GL210600  10.188   1.629   6.337 -0.2221 -0.1641 -0.1292
  929YOPE   C1A10601  10.392   1.846   6.675 -0.0029 -0.0794 -0.3068
  929YOPE   D2A10602  10.316   1.720   7.082  0.1920 -0.0778  0.1971
  929YOPE   C3A10603  10.063   1.566   7.374 -0.2133 -0.1241  0.1330
  929YOPE   C4A10604   9.864   1.418   7.799 -0.0581 -0.1846  0.0533
  929YOPE   C1B10605  10.024   1.465   6.707 -0.3305  0.0416  0.2391
  929YOPE   C2B10606  10.095   1.193   7.022  0.1045  0.0118  0.0295
  929YOPE   D3B10607  10.122   1.058   7.483 -0.0832  0.1453  0.2637
  929YOPE   C4B10608   9.865   0.944   7.866  0.0031 -0.2114 -0.3334
  930YOPE   NH310609  11.905  11.359   6.322  0.2874  0.0440  0.1014
  930YOPE   PO410610  12.007  11.027   6.390  0.0863  0.3441 -0.0318
  930YOPE   GL110611  12.075  11.099   6.825 -0.0003  0.1210  0.3306
  930YOPE   GL210612  12.283  10.871   6.840 -0.1685  0.2204  0.0844
  930YOPE   C1A10613  12.146  10.896   7.307 -0.1730  0.1473  0.5729
  930YOPE   D2A10614  12.352  10.666   7.659  0.2072  0.0688 -0.0615
  930YOPE   C3A10615  11.985  10.590   7.968 -0.1687  0.0147 -0.2602
  930YOPE   C4A10616  11.746  10.743   8.255 -0.0867 -0.0887 -0.2781
  930YOPE   C1B10617  12.647  10.698   6.582 -0.0236  0.0675  0.1447
  930YOPE   C2B10618  12.987  10.431   6.634  0.0090  0.0079  0.1748
  930YOPE   D3B10619  13.240  10.032   6.924  0.2500  0.0204  0.1203
  930YOPE   C4B10620  13.323   9.820   7.284 -0.0211 -0.1032 -0.0327
  931YOPE   NH310621   4.731  17.919   6.484 -0.0455  0.1262  0.3097
  931YOPE   PO410622   5.092  18.134   6.487  0.1740  0.4368  0.2427
  931YOPE   GL110623   5.359  18.051   6.782 -0.0845 -0.2133  0.0961
  931YOPE   GL210624   5.298  17.792   6.964  0.1248 -0.3997 -0.2189
  931YOPE   C1A10625   5.464  18.301   7.210 -0.1898 -0.1890 -0.0075
  931YOPE   D2A10626   5.474  18.067   7.560  0.0809 -0.2208  0.3377
  931YOPE   C3A10627   5.526  17.726   7.451  0.0122 -0.1641 -0.0740
  931YOPE   C4A10628   5.461  17.364   7.730 -0.3134  0.0655  0.0457
  931YOPE   C1B10629   5.021  17.840   7.303 -0.0082 -0.0416  0.0303
  931YOPE   C2B10630   5.009  17.845   7.751  0.1228 -0.0665 -0.0715
  931YOPE   D3B10631   5.222  17.542   8.081 -0.1056  0.1223  0.0000
  931YOPE   C4B10632   5.595  17.444   8.368 -0.0297 -0.2458  0.2852
  932YOPE   NH310633  16.387  14.937   6.622  0.1825  0.1820 -0.0170
  932YOPE   PO410634  16.235  14.633   6.881 -0.2173 -0.1196 -0.1060
  932YOPE   GL110635  16.345  14.741   7.181 -0.0757  0.0120 -0.3346
  932YOPE   GL210636  16.503  14.474   7.291  0.1336 -0.2108  0.3594
  932YOPE   C1A10637  16.320  14.851   7.613  0.0310 -0.1456 -0.0363
  932YOPE   D2A10638  16.323  14.926   8.057  0.0667  0.1192  0.0003
  932YOPE   C3A10639  16.472  14.932   8.515 -0.1127  0.0660 -0.0282
  932YOPE   C4A10640  16.667  14.761   8.852 -0.0183  0.2926 -0.1362
  932YOPE   C1B10641  16.606  14.412   7.698  0.2497  0.2958  0.0926
  932YOPE   C2B10642  16.413  14.466   7.944  0.0797  0.2484  0.0450
  932YOPE   D3B10643  16.285  14.478   8.350 -0.2273 -0.2504 -0.2084
  932YOPE   C4B10644  16.280  14.457   8.733 -0.1849  0.0475  0.1711
  933YOPE   NH310645  10.597   9.588   5.864 -0.3842  0.0439 -0.0259
  933YOPE   PO410646  10.322   9.860   5.778 -0.2145  0.0490  0.2953
  933YOPE   GL110647  10.242   9.930   6.221  0.2369 -0.3135 -0.5635
  933YOPE   GL210648  10.255  10.250   6.384  0.0888  0.0181  0.5188
  933YOPE   C1A10649  10.270   9.805   6.643 -0.1707 -0.1554  0.1151
  933YOPE   D2A10650   9.828   9.687   7.004 -0.0568  0.2400 -0.0134
  933YOPE   C3A10651   9.952   9.805   7.446 -0.0430  0.0737 -0.0327
  933YOPE   C4A10652   9.776  10.263   7.745  0.1901 -0.0448 -0.2717
  933YOPE   C1B10653  10.140  10.259   6.897 -0.1979 -0.2868  0.1666
  933YOPE   C2B10654  10.149  10.290   7.383  0.1564 -0.1475  0.0616
  933YOPE   D3B10655  10.277  10.300   7.833 -0.3252  0.1292 -0.0969
  933YOPE   C4B10656  10.529  10.669   7.883 -0.2832  0.4496 -0.0952
  934YOPE   NH310657   7.055  12.276   6.279  0.0870  0.1280 -0.5096
  934YOPE   PO410658   7.190  11.877   6.135  0.0879 -0.1695 -0.3109
  934YOPE   GL110659   7.077  11.766   6.583 -0.1733 -0.1265 -0.2646
  934YOPE   GL210660   6.776  11.941   6.603  0.1071  0.0744  0.1724
  934YOPE   C1A10661   7.188  11.761   7.002  0.0486 -0.1219  0.2477
  934YOPE   D2A10662   7.294  11.860   7.434 -0.1126 -0.1559  0.3666
  934YOPE   C3A10663   7.418  11.583   7.753  0.0042  0.1193  0.1766
  934YOPE   C4A10664   7.334  11.514   8.197  0.1358 -0.1031 -0.0647
  934YOPE   C1B10665   6.729  11.732   6.985  0.1745  0.0164  0.1936
  934YOPE   C2B10666   6.779  11.767   7.496  0.1093  0.0452  0.1369
  934YOPE   D3B10667   7.050  11.899   7.887 -0.0381 -0.0210  0.3132
  934YOPE   C4B10668   7.363  12.236   7.879 -0.2192  0.2350  0.0106
  935YOPE   NH310669   9.621   2.285   5.701  0.0290 -0.0297 -0.0297
  935YOPE   PO410670   9.250   2.591   5.457  0.0552  0.1177  0.2934
  935YOPE   GL110671   9.055   2.389   5.822  0.1439  0.0016 -0.2842
  935YOPE   GL210672   9.171   2.071   5.921  0.1016  0.1794 -0.1888
  935YOPE   C1A10673   9.057   2.382   6.303 -0.0597 -0.1841 -0.1372
  935YOPE   D2A10674   8.795   2.510   6.496 -0.2927  0.1239 -0.2774
  935YOPE   C3A10675   8.906   2.626   6.848  0.0278  0.2629  0.0158
  935YOPE   C4A10676   9.029   3.023   6.830  0.2144 -0.0008 -0.1672
  935YOPE   C1B10677   9.036   1.675   6.086  0.6134 -0.3156 -0.2542
  935YOPE   C2B10678   8.992   1.447   6.431  0.0721  0.2839  0.1453
  935YOPE   D3B10679   8.765   1.085   6.650 -0.0591  0.0488  0.1823
  935YOPE   C4B10680   8.617   0.904   7.086  0.1344  0.0721  0.0302
  936YOPE   NH310681   7.377   1.314   6.028 -0.1900  0.0400 -0.2106
  936YOPE   PO410682   6.941   1.294   5.978 -0.0442 -0.0963  0.3927
  936YOPE   GL110683   7.007   1.208   6.396  0.4221 -0.1767 -0.1256
  936YOPE   GL210684   6.691   1.191   6.673  0.0690 -0.1432  0.1376
  936YOPE   C1A10685   7.154   1.216   6.875  0.2038  0.2030 -0.1375
  936YOPE   D2A10686   7.242   1.288   7.204  0.0546 -0.1626  0.0658
  936YOPE   C3A10687   6.989   1.312   7.612 -0.1022  0.2508  0.1315
  936YOPE   C4A10688   6.863   1.535   8.010 -0.1226  0.0544 -0.2613
  936YOPE   C1B10689   6.718   1.172   7.136  0.0669  0.0318 -0.1049
  936YOPE   C2B10690   6.543   1.152   7.580 -0.0545 -0.3167  0.6042
  936YOPE   D3B10691   6.494   1.180   7.968  0.2466 -0.1477 -0.0061
  936YOPE   C4B10692   6.675   1.158   8.279  0.0260  0.0150  0.1868
  937YOPE   NH310693   2.904  16.614   6.774  0.2360 -0.0066 -0.0223
  937YOPE   PO410694   3.372  16.474   6.689  0.0384 -0.0948 -0.1736
  937YOPE   GL110695   3.456  16.678   7.078  0.3013  0.2299 -0.0506
  937YOPE   GL210696   3.244  16.895   6.999  0.2554  0.0480 -0.1264
  937YOPE   C1A10697   3.648  16.647   7.467  0.0495 -0.0247 -0.0306
  937YOPE   D2A10698   3.675  16.808   7.747  0.2869 -0.0675  0.0264
  937YOPE   C3A10699   3.856  17.096   7.937 -0.0764  0.0986 -0.0516
  937YOPE   C4A10700   4.077  17.324   8.313  0.1014 -0.0106  0.1117
  937YOPE   C1B10701   3.268  16.976   7.479  0.0699 -0.1008  0.1120
  937YOPE   C2B10702   3.299  16.998   8.039 -0.1063 -0.2550 -0.1059
  937YOPE   D3B10703   3.547  17.251   8.326  0.4185  0.0293 -0.0094
  937YOPE   C4B10704   3.701  17.588   8.482  0.0203  0.0191 -0.0897
  938YOPE   NH310705   8.438   6.381   6.098  0.0672  0.0600 -0.2210
  938YOPE   PO410706   8.036   6.683   6.230 -0.0019 -0.0151 -0.0766
  938YOPE   GL110707   7.694   6.705   6.570 -0.1914 -0.1991 -0.3003
  938YOPE   GL210708   7.929   6.714   6.777 -0.0949 -0.1517 -0.2537
  938YOPE   C1A10709   7.447   6.899   6.913  0.0016  0.0406  0.4687
  938YOPE   D2A10710   7.083   7.088   6.994 -0.2143  0.0440  0.2164
  938YOPE   C3A10711   7.039   7.000   7.481  0.0783  0.2743  0.2907
  938YOPE   C4A10712   7.022   6.648   7.619 -0.0361  0.0111 -0.3830
  938YOPE   C1B10713   7.862   6.667   7.174  0.5028 -0.0369 -0.0134
  938YOPE   C2B10714   7.524   6.851   7.451 -0.0600 -0.1207 -0.1674
  938YOPE   D3B10715   7.333   6.942   7.916  0.1096  0.1411  0.0561
  938YOPE   C4B10716   7.382   7.316   8.154  0.1187  0.0781  0.0750
  939POPC   NC310717   5.733   5.914   5.314  0.1322 -0.0351  0.1937
  939POPC   PO410718   5.586   5.938   5.772 -0.0659  0.1513  0.0271
  939POPC   GL110719   5.568   5.780   6.183 -0.0291 -0.0791 -0.3845
  939POPC   GL210720   5.865   5.720   6.276 -0.0205  0.0864  0.1442
  939POPC   C1A10721   5.267   5.776   6.473 -0.1264 -0.0483  0.0104
  939POPC   D2A10722   5.209   5.959   6.908  0.0157  0.1578 -0.4280
  939POPC   C3A10723   5.180   5.937   7.340 -0.2181 -0.1236 -0.1196
  939POPC   C4A10724   5.036   5.899   7.757  0.0076  0.1112  0.0643
  939POPC   C1B10725   5.980   5.508   6.631  0.0292  0.1778 -0.0546
  939POPC   C2B10726   5.886   5.390   7.049  0.2040 -0.0536  0.2870
  939POPC   C3B10727   5.755   5.522   7.380  0.0833  0.0340  0.1413
  939POPC   C4B10728   5.506   5.625   7.703  0.0701  0.2618 -0.2978
  940POPC   NC310729   2.198   3.213   6.472 -0.0837 -0.1049 -0.2862
  940POPC   PO410730   2.651   3.159   6.469 -0.1851  0.1595 -0.0217
  940POPC   GL110731   2.561   3.228   6.879  0.0372  0.1139 -0.0161
  940POPC   GL210732   2.427   3.501   6.790  0.3402 -0.1942  0.1137
  940POPC   C1A10733   2.270   3.168   7.141 -0.2863  0.0426  0.2197
  940POPC   D2A10734   2.217   3.202   7.571  0.0801  0.1042 -0.0635
  940POPC   C3A10735   2.059   3.505   7.987  0.2575  0.1273  0.0397
  940POPC   C4A10736   1.955   3.716   8.350 -0.2915 -0.4801 -0.1304
  940POPC   C1B10737   2.228   3.640   7.194  0.0746 -0.0512  0.0492
  940POPC   C2B10738   2.065   3.837   7.626 -0.2817  0.3035 -0.1193
  940POPC   C3B10739   1.858   3.983   7.955 -0.1774  0.0834 -0.1804
  940POPC   C4B10740   1.439   3.881   8.024  0.1338 -0.1190  0.1132
  941POPC   NC310741   5.709   7.348   5.695  0.3355  0.0653  0.1272
  941POPC   PO410742   5.446   7.755   5.671  0.1761  0.0973 -0.0007
  941POPC   GL110743   5.502   7.650   6.081  0.4792  0.3318  0.0307
  941POPC   GL210744   5.283   7.384   6.223  0.0605  0.1117 -0.0826
  941POPC   C1A10745   5.321   7.850   6.456 -0.0550 -0.0630  0.0389
  941POPC   D2A10746   4.900   7.965   6.653  0.3549  0.1844  0.3314
  941POPC   C3A10747   4.912   8.143   7.044 -0.2753  0.2175  0.0469
  941POPC   C4A10748   5.100   8.237   7.413  0.0437  0.3743 -0.1662
  941POPC   C1B10749   5.362   7.324   6.608  0.1245 -0.2072 -0.2337
  941POPC   C2B10750   5.364   7.260   7.000  0.1464 -0.3427 -0.3242
  941POPC   C3B10751   5.559   7.244   7.413 -0.0137  0.1469 -0.0102
  941POPC   C4B10752   5.527   7.416   7.815 -0.2573 -0.0761  0.1605
  942POPC   NC310753   2.565   1.733   5.641 -0.1202  0.0769 -0.0733
  942POPC   PO410754   2.366   1.744   6.084  0.2775  0.2756 -0.0707
  942POPC   GL110755   2.554   1.810   6.522  0.2445  0.0870 -0.0577
  942POPC   GL210756   2.217   1.811   6.690 -0.1509 -0.0963  0.0048
  942POPC   C1A10757   2.636   1.670   7.011 -0.4072  0.5415 -0.0637
  942POPC   D2A10758   2.867   1.758   7.362 -0.0976 -0.1897 -0.0724
  942POPC   C3A10759   2.755   2.105   7.506  0.1098 -0.0919  0.0195
  942POPC   C4A10760   2.620   2.494   7.352 -0.2188  0.0490 -0.0280
  942POPC   C1B10761   2.319   2.050   7.066 -0.0586  0.1431 -0.2424
  942POPC   C2B10762   2.221   2.166   7.523  0.0942 -0.2165  0.5284
  942POPC   C3B10763   2.292   2.250   7.940 -0.0729  0.2512 -0.1123
  942POPC   C4B10764   2.429   2.030   8.263  0.1972  0.1597 -0.0206
  943POPC   NC310765  15.046   8.008   5.975  0.1967  0.0215 -0.0385
  943POPC   PO410766  15.202   7.612   5.751 -0.1414  0.2074  0.0793
  943POPC   GL110767  14.934   7.383   5.816 -0.3039  0.0075  0.0900
  943POPC   GL210768  15.182   7.100   5.845 -0.1285 -0.2141  0.0695
  943POPC   C1A10769  14.799   7.331   6.260  0.2727 -0.0965  0.2614
  943POPC   D2A10770  14.438   7.277   6.494 -0.4557  0.0819  0.1575
  943POPC   C3A10771  14.306   7.505   6.881 -0.0683 -0.2073  0.3390
  943POPC   C4A10772  14.525   7.661   7.194 -0.1188  0.0918  0.1941
  943POPC   C1B10773  15.246   7.187   6.232  0.3205 -0.1647  0.0627
  943POPC   C2B10774  15.113   7.263   6.623  0.0493  0.4419  0.0446
  943POPC   C3B10775  14.828   7.281   6.909  0.1507 -0.4285 -0.0755
  943POPC   C4B10776  14.514   7.101   7.153  0.1538 -0.0502 -0.2182
  944POPC   NC310777  16.235  16.302   6.829  0.0212 -0.1232  0.0634
  944POPC   PO410778  16.621  16.215   6.817  0.0262 -0.0103 -0.2404
  944POPC   GL110779  16.615  16.182   7.198  0.4527 -0.0061  0.0335
  944POPC   GL210780  16.755  15.893   7.253  0.2111  0.2531  0.0068
  944POPC   C1A10781  16.225  16.226   7.495  0.2452  0.2690 -0.1494
  944POPC   D2A10782  15.979  16.547   7.597 -0.4628  0.0677  0.1213
  944POPC   C3A10783  15.884  16.463   7.997  0.1261 -0.3079  0.1714
  944POPC   C4A10784  15.810  16.232   8.395 -0.0247  0.1160 -0.0608
  944POPC   C1B10785  16.872  15.706   7.577  0.2628 -0.2314 -0.3026
  944POPC   C2B10786  17.082  15.373   7.868  0.2689  0.2989  0.0738
  944POPC   C3B10787  16.949  15.241   8.297 -0.2396 -0.1307  0.3012
  944POPC   C4B10788  16.962  15.197   8.662 -0.2022 -0.0254  0.0817
  945POPC   NC310789  14.841   0.262   6.256 -0.3673 -0.1921 -0.0151
  945POPC   PO410790  15.107   0.148   6.649  0.0566  0.1077  0.0415
  945POPC   GL110791  15.087   0.001   6.985  0.1806 -0.0597  0.2058
  945POPC   GL210792  15.281   0.203   7.243 -0.0841  0.2091 -0.3808
  945POPC   C1A10793  14.947  -0.147   7.398 -0.1054  0.1175  0.2182
  945POPC   D2A10794  14.854  -0.365   7.773 -0.0789 -0.0324  0.1395
  945POPC   C3A10795  14.672  -0.145   8.084  0.2115  0.0508 -0.0478
  945POPC   C4A10796  14.507   0.187   8.143 -0.2788  0.0082 -0.0876
  945POPC   C1B10797  15.454   0.302   7.579 -0.3254 -0.1253 -0.1104
  945POPC   C2B10798  15.549   0.318   7.991  0.0304 -0.2362  0.0511
  945POPC   C3B10799  15.532   0.171   8.403  0.1512 -0.1318 -0.0373
  945POPC   C4B10800  15.395  -0.113   8.704  0.4020  0.0047 -0.1224
  946POPC   NC310801   1.401  14.266   6.441 -0.0261 -0.0030  0.3329
  946POPC   PO410802   1.158  14.693   6.471  0.3173 -0.1364 -0.0362
  946POPC   GL110803   1.026  14.594   6.927  0.0330 -0.1492  0.2014
  946POPC   GL210804   1.001  14.809   7.164  0.3879  0.0200  0.1770
  946POPC   C1A10805   0.918  14.204   7.102  0.3183 -0.0603  0.4066
  946POPC   D2A10806   0.871  13.893   7.251 -0.0237 -0.0406  0.1237
  946POPC   C3A10807   0.991  13.489   7.197  0.1720 -0.1049 -0.0437
  946POPC   C4A10808   0.642  13.121   7.144 -0.2166 -0.2362 -0.2841
  946POPC   C1B10809   1.045  14.856   7.701  0.3719 -0.0441  0.3457
  946POPC   C2B10810   1.058  14.699   8.108 -0.0655 -0.0548  0.1167
  946POPC   C3B10811   0.751  14.650   8.312  0.2282  0.3743  0.0106
  946POPC   C4B10812   0.402  14.437   8.583  0.2426 -0.3117 -0.1223
  947POPC   NC310813  16.824   5.704   5.672  0.0316  0.1175  0.0678
  947POPC   PO410814  16.644   5.288   5.725 -0.2137  0.1135 -0.5282
  947POPC   GL110815  16.650   5.425   6.198 -0.1499  0.1485 -0.0468
  947POPC   GL210816  16.354   5.514   6.314  0.0274  0.0228 -0.1796
  947POPC   C1A10817  16.893   5.583   6.547 -0.0707 -0.1443  0.2819
  947POPC   D2A10818  17.016   5.327   6.940  0.3281  0.0873 -0.6153
  947POPC   C3A10819  17.027   5.604   7.423 -0.0456  0.0657 -0.1626
  947POPC   C4A10820  17.061   5.716   7.803 -0.3076 -0.0557  0.2426
  947POPC   C1B10821  16.302   5.622   6.725  0.2376 -0.2459 -0.4468
  947POPC   C2B10822  16.080   5.903   6.965  0.0239 -0.0476  0.0108
  947POPC   C3B10823  15.901   6.004   7.304  0.2850  0.0823 -0.4680
  947POPC   C4B10824  15.971   5.862   7.805  0.3099  0.1082  0.2797
  948POPC   NC310825  16.474   6.361   6.004  0.1154 -0.0964  0.0413
  948POPC   PO410826  16.722   6.213   5.703 -0.0559 -0.2123 -0.1442
  948POPC   GL110827  17.039   6.326   6.114  0.2071 -0.0994 -0.0075
  948POPC   GL210828  17.282   6.193   6.216  0.1027 -0.0722  0.1044
  948POPC   C1A10829  16.853   6.254   6.529  0.0957  0.0106  0.0489
  948POPC   D2A10830  16.832   6.361   6.984 -0.1798  0.4241  0.0269
  948POPC   C3A10831  16.953   6.106   7.391  0.0770  0.0404  0.1358
  948POPC   C4A10832  16.737   6.061   7.759 -0.0359 -0.2538  0.0074
  948POPC   C1B10833  17.274   5.933   6.472  0.2313 -0.0481  0.3464
  948POPC   C2B10834  17.141   5.836   6.954 -0.3750  0.0912  0.3352
  948POPC   C3B10835  17.444   5.948   7.324 -0.0890  0.3011 -0.0507
  948POPC   C4B10836  17.425   6.081   7.703  0.0164  0.2922  0.1092
  949POPC   NC310837  16.994   2.966   6.178 -0.1305 -0.1590 -0.0975
  949POPC   PO410838  17.320   3.080   6.367 -0.0546 -0.2947  0.1070
  949POPC   GL110839  17.370   3.166   6.763  0.1343 -0.4177 -0.3601
  949POPC   GL210840  17.103   3.105   6.882  0.1653  0.1677  0.0387
  949POPC   C1A10841  17.492   3.323   7.174  0.1056 -0.4622 -0.0330
  949POPC   D2A10842  17.480   3.443   7.569 -0.1057 -0.1293 -0.0772
  949POPC   C3A10843  17.398   3.034   7.874 -0.1354  0.0355 -0.0377
  949POPC   C4A10844  17.233   2.906   8.149 -0.1919  0.2353 -0.2781
  949POPC   C1B10845  17.023   3.366   7.250 -0.0042  0.0757 -0.0932
  949POPC   C2B10846  16.954   3.503   7.665 -0.1548 -0.1243 -0.3202
  949POPC   C3B10847  17.285   3.563   7.966 -0.1397  0.3191 -0.1492
  949POPC   C4B10848  17.583   3.477   8.120  0.0573 -0.1110  0.0251
  950POPC   NC310849  12.064   6.366   4.902 -0.0334 -0.2386 -0.1118
  950POPC   PO410850  12.121   6.430   5.411 -0.0044  0.0741  0.0740
  950POPC   GL110851  12.405   6.391   5.748  0.0667  0.2735  0.1261
  950POPC   GL210852  12.103   6.459   6.001 -0.1937  0.1988  0.3433
  950POPC   C1A10853  12.629   6.312   6.287  0.1298 -0.1475  0.0372
  950POPC   D2A10854  12.900   6.052   6.575 -0.1347 -0.0977 -0.1320
  950POPC   C3A10855  12.749   6.013   6.960 -0.1841 -0.1822  0.0165
  950POPC   C4A10856  12.609   5.924   7.407  0.2235 -0.2479 -0.0993
  950POPC   C1B10857  12.024   6.573   6.394  0.1106  0.0571  0.1774
  950POPC   C2B10858  12.102   6.498   6.767 -0.0110 -0.1660 -0.2302
  950POPC   C3B10859  12.148   6.218   7.245  0.0034  0.3569 -0.0902
  950POPC   C4B10860  12.305   6.213   7.637 -0.1332 -0.2120  0.1583
  951POPC   NC310861  18.329   7.385   5.728  0.0371  0.1940 -0.1338
  951POPC   PO410862  18.718   7.622   5.877  0.0276 -0.0424 -0.1505
  951POPC   GL110863  18.542   7.566   6.218 -0.3178 -0.2569  0.1428
  951POPC   GL210864  18.683   7.842   6.447 -0.0633 -0.0958 -0.5844
  951POPC   C1A10865  18.595   7.378   6.563 -0.1247 -0.2633 -0.1259
  951POPC   D2A10866  18.707   7.274   6.937  0.0589 -0.0485  0.0300
  951POPC   C3A10867  19.066   7.505   7.025 -0.2000  0.0184  0.1062
  951POPC   C4A10868  19.229   7.652   7.409 -0.1571 -0.1100  0.0243
  951POPC   C1B10869  18.847   7.882   6.778 -0.0374 -0.2465  0.2155
  951POPC   C2B10870  18.886   7.991   7.213 -0.0425  0.0114 -0.2249
  951POPC   C3B10871  18.778   7.913   7.686 -0.1689 -0.0839  0.0661
  951POPC   C4B10872  18.547   8.121   8.002 -0.2919 -0.2206 -0.1392
  952POPC   NC310873   9.246  16.499   5.369 -0.2074  0.1670 -0.2171
  952POPC   PO410874   9.559  16.163   5.420 -0.2941  0.0886  0.1017
  952POPC   GL110875   9.440  16.453   5.833 -0.0072  0.0946  0.1205
  952POPC   GL210876   9.594  16.689   5.984 -0.1124  0.0640 -0.1338
  952POPC   C1A10877   9.284  16.333   6.255  0.0270  0.0740  0.1319
  952POPC   D2A10878   9.119  15.989   6.457 -0.0124  0.2146  0.5358
  952POPC   C3A10879   9.063  16.217   6.871  0.0587  0.0391 -0.3610
  952POPC   C4A10880   8.875  16.250   7.307 -0.0103 -0.1392 -0.1856
  952POPC   C1B10881   9.557  16.813   6.429 -0.1123 -0.0743  0.0003
  952POPC   C2B10882   9.766  16.925   6.793 -0.1970  0.1538  0.1048
  952POPC   C3B10883   9.722  16.882   7.259 -0.0499 -0.0288  0.3468
  952POPC   C4B10884   9.445  17.021   7.618  0.2231  0.0455 -0.0349
  953POPC   NC310885  18.368   6.824   5.114  0.0012  0.0432 -0.3735
  953POPC   PO410886  18.162   7.040   5.431 -0.0132  0.1413  0.3627
  953POPC   GL110887  18.206   6.922   5.921  0.2950 -0.1221  0.0275
  953POPC   GL210888  18.124   7.106   6.215 -0.3927  0.0025  0.1380
  953POPC   C1A10889  18.404   6.707   6.233 -0.0977  0.0644  0.3137
  953POPC   D2A10890  18.573   6.475   6.377 -0.0015  0.1534  0.0553
  953POPC   C3A10891  18.627   6.083   6.519  0.0555  0.1710 -0.0848
  953POPC   C4A10892  18.719   5.914   6.734  0.0815  0.1929  0.1951
  953POPC   C1B10893  18.208   6.979   6.585 -0.2500 -0.1518 -0.0610
  953POPC   C2B10894  18.375   6.910   6.908 -0.2418  0.0294  0.0506
  953POPC   C3B10895  18.761   6.796   7.154 -0.1878  0.0534  0.2466
  953POPC   C4B10896  18.751   6.879   7.601 -0.0929  0.1605 -0.3165
  954POPC   NC310897  15.108  16.522   6.575 -0.2791  0.1745  0.1029
  954POPC   PO410898  15.316  16.062   6.581  0.2575  0.1001  0.0072
  954POPC   GL110899  14.950  15.925   6.991  0.0706 -0.0431 -0.0545
  954POPC   GL210900  14.586  15.693   6.924  0.1016 -0.3432 -0.1020
  954POPC   C1A10901  14.699  16.005   7.235 -0.2595 -0.1669 -0.0740
  954POPC   D2A10902  14.408  16.333   7.399  0.1137 -0.3208 -0.3605
  954POPC   C3A10903  14.335  16.312   7.877  0.1165  0.1195 -0.4710
  954POPC   C4A10904  14.154  16.315   8.274 -0.1496 -0.2732  0.3616
  954POPC   C1B10905  14.232  15.809   7.173  0.4373 -0.0404 -0.1365
  954POPC   C2B10906  13.965  16.024   7.537  0.0621  0.2394  0.0732
  954POPC   C3B10907  13.788  16.132   7.858 -0.1337 -0.0295 -0.0571
  954POPC   C4B10908  13.630  16.330   8.164 -0.2099 -0.1324 -0.1715
  955POPC   NC310909   7.025   5.971   5.493 -0.0768 -0.3392  0.1360
  955POPC   PO410910   7.309   6.065   5.858 -0.2730 -0.0945  0.1987
  955POPC   GL110911   7.523   6.020   6.184  0.0124 -0.1439  0.4469
  955POPC   GL210912   7.719   5.742   6.267 -0.1235  0.1516 -0.1057
  955POPC   C1A10913   7.330   6.078   6.580  0.3126  0.1233 -0.2097
  955POPC   D2A10914   7.195   5.808   6.867  0.2473 -0.1313  0.1811
  955POPC   C3A10915   7.060   6.052   7.273  0.2426  0.0698 -0.1465
  955POPC   C4A10916   7.054   6.146   7.659  0.3402  0.1740  0.0003
  955POPC   C1B10917   7.748   5.529   6.689  0.3664 -0.0722  0.0568
  955POPC   C2B10918   7.670   5.485   7.074 -0.1195  0.1787 -0.0351
  955POPC   C3B10919   7.399   5.652   7.473  0.1554  0.3097 -0.1493
  955POPC   C4B10920   7.315   5.730   7.876  0.2183  0.1600 -0.1236
  956POPC   NC310921  12.310   7.212   5.296  0.3001 -0.0887 -0.1048
  956POPC   PO410922  12.189   7.374   5.780 -0.0641  0.0718  0.1462
  956POPC   GL110923  12.534   7.451   6.166  0.3539  0.2003 -0.2621
  956POPC   GL210924  12.563   7.784   6.265  0.1436 -0.0908  0.2639
  956POPC   C1A10925  12.784   7.129   6.491 -0.0282  0.2771  0.0114
  956POPC   D2A10926  12.995   6.952   6.819  0.3284 -0.1369 -0.0847
  956POPC   C3A10927  13.138   7.254   7.070 -0.0137  0.2091  0.2009
  956POPC   C4A10928  13.089   7.307   7.403 -0.0728  0.1393 -0.2641
  956POPC   C1B10929  12.377   7.882   6.657  0.0457  0.0884  0.2599
  956POPC   C2B10930  12.183   7.852   7.031 -0.1512 -0.0864  0.1480
  956POPC   C3B10931  11.946   7.858   7.341  0.1071 -0.2246 -0.1532
  956POPC   C4B10932  12.055   8.081   7.774  0.0799 -0.0965  0.0542
  957POPC   NC310933   8.164   8.065   5.799  0.1832 -0.1271 -0.0227
  957POPC   PO410934   8.387   8.384   6.032  0.0446  0.0734  0.3770
  957POPC   GL110935   8.514   8.055   6.383  0.1278 -0.1486  0.4092
  957POPC   GL210936   8.344   7.699   6.356 -0.0070  0.2532 -0.3663
  957POPC   C1A10937   8.693   7.950   6.696 -0.2259  0.0719 -0.0994
  957POPC   D2A10938   8.835   7.805   7.072  0.0232 -0.0534 -0.0838
  957POPC   C3A10939   8.800   7.950   7.508 -0.0527 -0.0488  0.2393
  957POPC   C4A10940   8.727   7.705   7.840  0.2666 -0.1165 -0.0116
  957POPC   C1B10941   8.227   7.698   6.731 -0.0756 -0.2939  0.1094
  957POPC   C2B10942   7.949   7.698   7.030 -0.0975 -0.1085 -0.0457
  957POPC   C3B10943   7.755   7.660   7.438 -0.3028 -0.0466  0.0486
  957POPC   C4B10944   7.665   7.735   7.906 -0.0573  0.1485 -0.1827
  958POPC   NC310945   0.075   2.158   6.271  0.2891  0.2021  0.0093
  958POPC   PO410946  -0.343   2.045   6.222  0.2402  0.3342  0.0470
  958POPC   GL110947  -0.633   2.023   6.583  0.2206 -0.0580  0.2706
  958POPC   GL210948  -0.721   1.686   6.702 -0.0493  0.2550  0.1603
  958POPC   C1A10949  -0.968   2.122   6.994  0.0181  0.1761 -0.0394
  958POPC   D2A10950  -1.123   2.352   7.402  0.1039  0.0899 -0.0186
  958POPC   C3A10951  -1.032   2.205   7.906 -0.0334  0.2435 -0.4205
  958POPC   C4A10952  -1.173   2.420   8.299 -0.2218 -0.1392  0.4715
  958POPC   C1B10953  -0.608   1.799   7.072 -0.2162 -0.1154 -0.1129
  958POPC   C2B10954  -0.286   1.932   7.325 -0.0631  0.1766 -0.0673
  958POPC   C3B10955  -0.295   2.063   7.783  0.0606 -0.1420  0.3431
  958POPC   C4B10956  -0.267   2.527   7.891 -0.3068  0.0396  0.0857
  959POPC   NC310957   3.350   6.797   5.955  0.0869 -0.0271 -0.0647
  959POPC   PO410958   2.893   6.825   5.776  0.2883 -0.3972 -0.0377
  959POPC   GL110959   2.870   6.780   6.245 -0.2166 -0.0151  0.1553
  959POPC   GL210960   2.774   6.522   6.416 -0.4289  0.1121 -0.1205
  959POPC   C1A10961   3.031   6.903   6.712  0.0439  0.1026 -0.1246
  959POPC   D2A10962   2.910   7.023   7.176  0.4299  0.1912  0.0820
  959POPC   C3A10963   2.551   7.071   7.427 -0.1241  0.2084 -0.0756
  959POPC   C4A10964   2.427   7.154   7.819  0.0973  0.1175 -0.0742
  959POPC   C1B10965   2.722   6.561   6.923  0.2236 -0.1318 -0.1497
  959POPC   C2B10966   2.701   6.528   7.385 -0.1051  0.0846  0.0068
  959POPC   C3B10967   2.782   6.750   7.754  0.3002  0.0225 -0.0898
  959POPC   C4B10968   2.782   6.745   8.129 -0.1511  0.3358  0.0350
  960POPC   NC310969  10.741   7.749   5.708  0.1517  0.0183  0.1912
  960POPC   PO410970  10.814   8.045   6.104  0.1291 -0.1270 -0.1629
  960POPC   GL110971  11.016   7.799   6.442  0.0889 -0.1729 -0.2972
  960POPC   GL210972  10.768   7.599   6.518 -0.1435 -0.2341  0.0216
  960POPC   C1A10973  11.148   7.704   6.898 -0.0198  0.0987  0.0453
  960POPC   D2A10974  11.087   7.441   7.318 -0.1324 -0.2560  0.1134
  960POPC   C3A10975  11.234   7.133   7.671  0.1948 -0.2562  0.0017
  960POPC   C4A10976  11.375   6.817   7.991 -0.0142 -0.0175  0.0752
  960POPC   C1B10977  10.677   7.477   6.985  0.0156 -0.0193 -0.0404
  960POPC   C2B10978  10.579   7.276   7.405  0.1531 -0.0798  0.0187
  960POPC   C3B10979  10.289   7.066   7.751  0.0470  0.2012 -0.1261
  960POPC   C4B10980  10.312   6.912   8.125  0.1519  0.2600  0.1617
  961POPC   NC310981   8.081  17.693   5.678  0.2370  0.1688 -0.2144
  961POPC   PO410982   7.804  17.486   5.853  0.1552  0.2879  0.0718
  961POPC   GL110983   7.962  17.185   6.089 -0.2093 -0.2148  0.2607
  961POPC   GL210984   7.729  16.996   5.922 -0.2785 -0.1560 -0.2966
  961POPC   C1A10985   8.295  17.046   6.279  0.4638 -0.0083  0.0811
  961POPC   D2A10986   8.410  16.886   6.680  0.0216  0.2766  0.1152
  961POPC   C3A10987   8.239  16.754   7.013  0.1297 -0.1520  0.1068
  961POPC   C4A10988   8.135  16.859   7.420 -0.3351  0.1382 -0.0284
  961POPC   C1B10989   7.931  16.719   6.226  0.1417 -0.2615 -0.1622
  961POPC   C2B10990   7.920  16.299   6.391 -0.0875  0.1998 -0.0000
  961POPC   C3B10991   8.327  16.221   6.680 -0.3822  0.0695  0.0988
  961POPC   C4B10992   8.483  16.120   6.990 -0.3818  0.3604  0.1375
  962POPC   NC310993   2.310   0.513   6.428 -0.1855  0.2196  0.0180
  962POPC   PO410994   2.340   0.872   6.640 -0.0993 -0.1954  0.2869
  962POPC   GL110995   2.373   1.230   6.915 -0.2461 -0.1736 -0.1174
  962POPC   GL210996   2.087   1.397   6.913 -0.0167 -0.2041  0.1891
  962POPC   C1A10997   2.398   1.387   7.350 -0.1615 -0.0025 -0.1485
  962POPC   D2A10998   2.436   1.717   7.559  0.0335  0.0851 -0.2323
  962POPC   C3A10999   2.265   1.660   7.902 -0.2691  0.0743  0.2093
  962POPC   C4A11000   2.239   1.429   8.156  0.1297  0.0190  0.1036
  962POPC   C1B11001   1.986   1.702   7.277 -0.2101 -0.1456  0.1110
  962POPC   C2B11002   1.798   1.772   7.736 -0.1086  0.1635  0.0611
  962POPC   C3B11003   1.816   1.957   8.179  0.1051 -0.0654  0.0946
  962POPC   C4B11004   2.072   1.808   8.601 -0.1530  0.1478 -0.0735
  963POPC   NC311005   8.715   1.311   5.424 -0.0059 -0.0731  0.2572
  963POPC   PO411006   8.691   1.053   5.734  0.2395  0.0428  0.1918
  963POPC   GL111007   8.760   1.310   6.022 -0.0964 -0.1445 -0.1080
  963POPC   GL211008   8.854   1.038   6.174 -0.0198  0.0578 -0.1768
  963POPC   C1A11009   8.474   1.353   6.356  0.0825 -0.0840  0.0819
  963POPC   D2A11010   8.439   1.532   6.660 -0.0786 -0.1377 -0.0130
  963POPC   C3A11011   8.690   1.393   7.084  0.4080  0.1063  0.0105
  963POPC   C4A11012   8.809   1.521   7.393  0.1292  0.0321 -0.2082
  963POPC   C1B11013   9.192   0.927   6.483  0.0227 -0.0793 -0.0238
  963POPC   C2B11014   9.127   0.938   6.924 -0.0707 -0.0120 -0.2889
  963POPC   C3B11015   9.128   1.172   7.285  0.1713  0.1419  0.2166
  963POPC   C4B11016   9.298   1.425   7.567  0.2768  0.0455 -0.2731
  964POPC   NC311017   0.038  16.305   7.163 -0.3686 -0.0005  0.1936
  964POPC   PO411018   0.155  16.647   7.268 -0.2331 -0.0436 -0.4361
  964POPC   GL111019   0.390  16.764   7.591 -0.0385  0.1191 -0.1318
  964POPC   GL211020   0.322  16.568   7.904 -0.0184 -0.0821 -0.2856
  964POPC   C1A11021   0.725  16.975   7.898  0.0113 -0.3597 -0.1824
  964POPC   D2A11022   0.704  17.054   8.155 -0.0536  0.0000 -0.2295
  964POPC   C3A11023   0.346  17.212   8.433  0.0965 -0.0818  0.0856
  964POPC   C4A11024   0.100  17.399   8.790  0.1949  0.0535 -0.2403
  964POPC   C1B11025   0.437  16.637   8.270 -0.0101 -0.1224  0.1127
  964POPC   C2B11026   0.757  16.767   8.602 -0.1015 -0.2441  0.2642
  964POPC   C3B11027   0.839  17.144   8.846  0.2023 -0.1662  0.1253
  964POPC   C4B11028   0.542  17.387   9.189 -0.0851  0.2371  0.0694
  965POPC   NC311029  12.806   2.851   6.170  0.0863 -0.0036  0.0165
  965POPC   PO411030  12.424   2.576   6.275  0.0948 -0.0161  0.0571
  965POPC   GL111031  12.179   2.824   6.535  0.2501 -0.1049  0.3672
  965POPC   GL211032  11.961   2.817   6.709  0.5092 -0.0082 -0.1600
  965POPC   C1A11033  12.477   2.874   6.833 -0.0332  0.0463  0.1202
  965POPC   D2A11034  12.506   2.956   7.186 -0.2938  0.3752  0.2288
  965POPC   C3A11035  12.747   2.798   7.536 -0.3342 -0.2147 -0.1122
  965POPC   C4A11036  12.751   2.794   7.984 -0.1613 -0.0120  0.3371
  965POPC   C1B11037  12.184   2.548   7.001  0.0315  0.0284 -0.3124
  965POPC   C2B11038  12.439   2.487   7.207 -0.3010 -0.0694  0.2511
  965POPC   C3B11039  12.477   2.427   7.706  0.1810 -0.1270  0.0116
  965POPC   C4B11040  12.220   2.545   8.087 -0.0158 -0.3218  0.2401
  966POPC   NC311041  16.423  14.142   6.854 -0.0403 -0.0216  0.2542
  966POPC   PO411042  16.843  13.918   6.753 -0.1801  0.1712  0.2244
  966POPC   GL111043  17.063  13.767   7.082  0.0095 -0.3554 -0.0221
  966POPC   GL211044  17.321  13.946   7.204 -0.1247  0.2443 -0.1853
  966POPC   C1A11045  16.959  13.547   7.352 -0.1808  0.2401 -0.1717
  966POPC   D2A11046  16.646  13.459   7.648  0.0645  0.1083  0.0863
  966POPC   C3A11047  16.570  13.412   8.012 -0.0947  0.1540 -0.3121
  966POPC   C4A11048  16.315  13.358   8.358  0.0484  0.4379  0.2909
  966POPC   C1B11049  17.521  14.020   7.558  0.2829 -0.1985 -0.2228
  966POPC   C2B11050  17.393  13.938   8.052 -0.2260 -0.0301  0.2383
  966POPC   C3B11051  17.080  14.055   8.295  0.1499 -0.1641  0.1479
  966POPC   C4B11052  16.879  14.451   8.395  0.1649  0.2112 -0.2656
  967POPC   NC311053  16.082   0.829   6.302 -0.2747  0.0617 -0.3193
  967POPC   PO411054  16.035   1.096   6.568  0.1717 -0.0688  0.1458
  967POPC   GL111055  16.104   1.024   7.068 -0.0364  0.3231  0.2874
  967POPC   GL211056  16.380   1.242   7.095  0.2871 -0.2474 -0.2783
  967POPC   C1A11057  16.308   0.780   7.332  0.0945 -0.1178 -0.3247
  967POPC   D2A11058  16.193   0.441   7.615  0.1578 -0.1041 -0.1368
  967POPC   C3A11059  15.985   0.512   8.070 -0.1268  0.2834  0.2747
  967POPC   C4A11060  15.999   0.228   8.424 -0.1090  0.0081  0.0366
  967POPC   C1B11061  16.124   1.223   7.534 -0.4010 -0.1999  0.0099
  967POPC   C2B11062  16.131   1.387   7.955  0.0299  0.2296 -0.1356
  967POPC   C3B11063  16.068   1.724   8.335 -0.0009  0.0244  0.2133
  967POPC   C4B11064  15.823   2.056   8.549  0.0765 -0.1663 -0.0123
  968POPC   NC311065   5.136   2.004   6.147  0.4337 -0.2183 -0.0244
  968POPC   PO411066   4.777   1.770   6.326  0.0915  0.0639 -0.0497
  968POPC   GL111067   4.808   2.020   6.645 -0.2027  0.0119  0.3845
  968POPC   GL211068   4.565   2.005   6.830  0.1004  0.0500 -0.1395
  968POPC   C1A11069   5.061   1.948   6.993 -0.4405  0.2113  0.0410
  968POPC   D2A11070   5.191   1.915   7.453  0.3273 -0.0386  0.0633
  968POPC   C3A11071   5.003   1.909   7.816 -0.1509 -0.0349 -0.1684
  968POPC   C4A11072   5.298   1.901   8.201  0.1813 -0.0793 -0.0466
  968POPC   C1B11073   4.617   1.882   7.208  0.4415  0.0457  0.2924
  968POPC   C2B11074   4.496   1.775   7.596 -0.3055 -0.2215  0.0687
  968POPC   C3B11075   4.735   1.442   7.916  0.1381 -0.1102 -0.1164
  968POPC   C4B11076   5.054   1.460   8.217 -0.0382  0.0535 -0.0665
  969POPC   NC311077  17.824  12.581   6.323  0.2542  0.2105  0.0445
  969POPC   PO411078  17.909  13.020   6.346 -0.2547  0.0197 -0.1063
  969POPC   GL111079  17.935  12.971   6.773 -0.2063 -0.0159  0.0458
  969POPC   GL211080  18.198  13.221   6.907  0.1558  0.1194 -0.2038
  969POPC   C1A11081  17.749  12.900   7.191  0.0986 -0.2296  0.1970
  969POPC   D2A11082  17.581  12.761   7.551  0.0664 -0.1812 -0.1418
  969POPC   C3A11083  17.353  12.914   7.806  0.3863 -0.1424  0.0085
  969POPC   C4A11084  17.049  13.204   7.836 -0.2071  0.0797 -0.2219
  969POPC   C1B11085  18.113  13.251   7.347 -0.0609 -0.0478 -0.0954
  969POPC   C2B11086  18.006  13.047   7.701 -0.0426  0.1453  0.0119
  969POPC   C3B11087  17.788  12.900   8.001  0.3183  0.2258 -0.0750
  969POPC   C4B11088  17.674  12.818   8.395  0.3086 -0.4059 -0.1426
  970POPC   NC311089   7.518  15.970   5.157 -0.1635 -0.0665 -0.0376
  970POPC   PO411090   7.523  16.204   5.606 -0.5400  0.3121  0.1371
  970POPC   GL111091   7.319  16.303   5.830 -0.2321 -0.0957  0.0541
  970POPC   GL211092   7.512  16.439   6.102  0.0557  0.1030 -0.0579
  970POPC   C1A11093   7.057  16.326   6.193  0.0285  0.3888 -0.0774
  970POPC   D2A11094   7.124  16.371   6.647  0.0670  0.3875  0.1377
  970POPC   C3A11095   6.909  16.454   7.012 -0.1697  0.0991 -0.2928
  970POPC   C4A11096   6.833  16.859   7.016  0.1795 -0.1212 -0.2664
  970POPC   C1B11097   7.482  16.669   6.440 -0.2081  0.1999 -0.1412
  970POPC   C2B11098   7.804  16.582   6.768  0.0618  0.1569 -0.0697
  970POPC   C3B11099   7.886  16.455   7.168 -0.1130  0.1053  0.1460
  970POPC   C4B11100   8.004  16.209   7.582 -0.1413 -0.0994 -0.2752
  971POPC   NC311101   6.433   3.032   5.471 -0.2454  0.1206  0.0709
  971POPC   PO411102   6.041   3.023   5.713  0.1674  0.0946 -0.0140
  971POPC   GL111103   5.991   3.108   6.063 -0.3249  0.2894 -0.0885
  971POPC   GL211104   5.892   2.825   6.212  0.1683  0.1142 -0.1624
  971POPC   C1A11105   6.073   3.205   6.443 -0.2214  0.1042 -0.1448
  971POPC   D2A11106   6.028   3.317   6.913  0.4348  0.0539 -0.2806
  971POPC   C3A11107   6.015   3.613   7.182  0.4095  0.1917 -0.3307
  971POPC   C4A11108   6.047   3.746   7.590  0.0103  0.0537  0.0679
  971POPC   C1B11109   6.048   2.812   6.691 -0.1928  0.1850  0.0986
  971POPC   C2B11110   6.409   2.991   6.810  0.0124 -0.2335 -0.0545
  971POPC   C3B11111   6.599   2.922   7.243 -0.2694 -0.0067 -0.1125
  971POPC   C4B11112   6.419   2.682   7.563  0.2979 -0.0066 -0.4083
  972POPC   NC311113  13.856  10.815   6.090  0.1247 -0.1026  0.1600
  972POPC   PO411114  13.500  11.148   6.171  0.0514  0.1058  0.0663
  972POPC   GL111115  13.462  11.075   6.527 -0.0025  0.4985  0.1597
  972POPC   GL211116  13.797  10.929   6.630 -0.0458  0.1930  0.0079
  972POPC   C1A11117  13.517  11.085   7.000  0.4630  0.0477  0.1888
  972POPC   D2A11118  13.669  10.932   7.402 -0.3483  0.0975 -0.3378
  972POPC   C3A11119  13.359  10.761   7.622  0.0905 -0.3857  0.1020
  972POPC   C4A11120  13.088  10.634   7.946  0.0710 -0.1061  0.2762
  972POPC   C1B11121  14.230  11.105   6.900 -0.1115 -0.1830  0.0634
  972POPC   C2B11122  14.219  10.926   7.375 -0.4659  0.2076 -0.0003
  972POPC   C3B11123  14.041  10.669   7.670  0.0656  0.3558  0.1493
  972POPC   C4B11124  13.808  10.824   8.021 -0.0007  0.1962  0.0948
  973POPC   NC311125  11.735   3.119   5.916  0.1356  0.1499  0.1732
  973POPC   PO411126  11.851   2.721   6.050  0.3692 -0.0306  0.2013
  973POPC   GL111127  11.738   2.529   6.409 -0.1242  0.1561 -0.0996
  973POPC   GL211128  11.498   2.507   6.418 -0.0549 -0.1568 -0.2615
  973POPC   C1A11129  11.788   2.365   6.823  0.0310  0.0914  0.3495
  973POPC   D2A11130  11.845   2.296   7.282  0.0967 -0.2411  0.3219
  973POPC   C3A11131  11.583   2.390   7.490 -0.0079  0.3108 -0.0223
  973POPC   C4A11132  11.343   2.402   7.906  0.3276 -0.2744  0.1468
  973POPC   C1B11133  11.215   2.367   6.749 -0.0495  0.3606 -0.0143
  973POPC   C2B11134  11.269   2.437   7.120 -0.5233  0.1124  0.3517
  973POPC   C3B11135  11.050   2.284   7.521  0.2441  0.1061 -0.1661
  973POPC   C4B11136  10.814   2.071   7.906 -0.0468 -0.0599 -0.1905
  974POPC   NC311137  17.726   9.445   5.688 -0.0095 -0.3487 -0.1988
  974POPC   PO411138  17.461   9.858   5.668  0.2808 -0.1585 -0.1048
  974POPC   GL111139  17.233   9.601   6.076  0.1238 -0.1134  0.0625
  974POPC   GL211140  16.954   9.347   6.117 -0.2962  0.0836 -0.1196
  974POPC   C1A11141  17.069   9.714   6.465 -0.0201 -0.0694 -0.1910
  974POPC   D2A11142  16.966   9.711   6.870  0.1216  0.0045  0.0813
  974POPC   C3A11143  16.899   9.632   7.252 -0.0400 -0.0969  0.1519
  974POPC   C4A11144  17.027   9.588   7.607 -0.1433 -0.0281 -0.2635
  974POPC   C1B11145  16.676   9.349   6.519  0.0246 -0.2092  0.2544
  974POPC   C2B11146  16.692   9.187   6.834 -0.3234 -0.2314 -0.2003
  974POPC   C3B11147  16.908   8.861   6.972 -0.2806  0.0934  0.2048
  974POPC   C4B11148  17.248   8.823   6.968  0.0203 -0.2362 -0.3011
  975POPC   NC311149   6.636  13.533   5.899 -0.0967 -0.0348 -0.2094
  975POPC   PO411150   6.850  13.911   5.877 -0.0589 -0.0265  0.0044
  975POPC   GL111151   7.078  13.864   6.283  0.0120  0.3084  0.0993
  975POPC   GL211152   7.138  14.181   6.389 -0.0241 -0.0325 -0.0708
  975POPC   C1A11153   7.188  13.874   6.776  0.3034 -0.1943  0.0879
  975POPC   D2A11154   7.024  13.955   7.260  0.0235 -0.0411  0.2195
  975POPC   C3A11155   7.319  14.066   7.465 -0.1882  0.0027 -0.1315
  975POPC   C4A11156   7.364  14.243   7.884 -0.2400  0.1086  0.1645
  975POPC   C1B11157   7.152  14.603   6.592  0.0938  0.1989 -0.0580
  975POPC   C2B11158   7.000  14.980   6.868  0.0215  0.3677 -0.2201
  975POPC   C3B11159   7.081  15.095   7.421  0.2164 -0.1178  0.1041
  975POPC   C4B11160   7.254  15.301   7.757 -0.0928  0.0845 -0.1535
  976POPC   NC311161  14.175   8.423   5.714  0.0753 -0.1521  0.0010
  976POPC   PO411162  14.266   8.103   5.751  0.4414 -0.1595 -0.1155
  976POPC   GL111163  14.538   8.283   6.019 -0.0408  0.1393  0.0400
  976POPC   GL211164  14.798   8.374   6.126 -0.2301 -0.0629 -0.2299
  976POPC   C1A11165  14.399   8.541   6.321  0.3793 -0.1115 -0.1560
  976POPC   D2A11166  14.315   8.883   6.584 -0.0401  0.0509 -0.2523
  976POPC   C3A11167  14.633   9.142   6.817 -0.0781 -0.0503  0.4429
  976POPC   C4A11168  14.710   9.127   7.249 -0.1718 -0.1817 -0.5082
  976POPC   C1B11169  14.635   8.137   6.524  0.0409 -0.3288  0.2474
  976POPC   C2B11170  14.334   8.036   6.871  0.2224 -0.1150 -0.0231
  976POPC   C3B11171  14.210   8.091   7.241 -0.0568  0.1366  0.1124
  976POPC   C4B11172  14.216   8.486   7.443 -0.0248 -0.1001  0.2961
  977POPC   NC311173  14.794  10.430   5.856 -0.1466 -0.1678 -0.2348
  977POPC   PO411174  15.002  10.021   6.010 -0.0381  0.1644 -0.0042
  977POPC   GL111175  14.914   9.942   6.468  0.0446 -0.0383 -0.1357
  977POPC   GL211176  14.750   9.849   6.716  0.0561 -0.0309 -0.1619
  977POPC   C1A11177  15.134  10.102   6.780 -0.3782  0.0491 -0.0051
  977POPC   D2A11178  15.239  10.029   7.208 -0.0876  0.0718  0.0034
  977POPC   C3A11179  15.236  10.078   7.632 -0.0236  0.0235 -0.2692
  977POPC   C4A11180  15.103  10.327   7.955  0.1761 -0.1174 -0.1090
  977POPC   C1B11181  14.868   9.684   7.115  0.0545 -0.2090 -0.0015
  977POPC   C2B11182  15.062   9.570   7.521  0.2585 -0.3177 -0.0256
  977POPC   C3B11183  15.385   9.229   7.680 -0.0359 -0.0310 -0.1343
  977POPC   C4B11184  15.760   9.191   7.953  0.0672 -0.1354 -0.1810
  978POPC   NC311185   2.975   7.283   5.982  0.1431 -0.2065  0.1667
  978POPC   PO411186   2.706   7.629   5.795  0.0491 -0.0832 -0.3341
  978POPC   GL111187   2.729   7.704   6.236  0.3664  0.0597 -0.1422
  978POPC   GL211188   2.375   7.653   6.383 -0.0767 -0.0293  0.1686
  978POPC   C1A11189   2.715   8.100   6.470 -0.1413  0.2898  0.1722
  978POPC   D2A11190   2.567   8.421   6.693 -0.0062 -0.0985  0.2281
  978POPC   C3A11191   2.467   8.545   7.098  0.0762  0.1186 -0.1810
  978POPC   C4A11192   2.308   8.785   7.421  0.0903 -0.2497  0.4359
  978POPC   C1B11193   2.273   7.994   6.732  0.0371  0.1482  0.0436
  978POPC   C2B11194   2.177   8.064   7.110  0.5074 -0.0522 -0.0857
  978POPC   C3B11195   1.909   8.418   7.259 -0.2582  0.0022 -0.1733
  978POPC   C4B11196   1.833   8.856   7.385  0.5095 -0.0209 -0.1121
  979YOPC   NC311197   6.656   6.686   5.621  0.0967  0.2476  0.0882
  979YOPC   PO411198   6.295   6.617   5.777  0.1181 -0.1205  0.2100
  979YOPC   GL111199   6.124   6.691   6.210 -0.1008 -0.1757  0.1212
  979YOPC   GL211200   6.165   6.945   6.457  0.2354  0.0122 -0.1658
  979YOPC   C1A11201   5.902   6.603   6.611  0.1607 -0.1390 -0.2379
  979YOPC   D2A11202   5.846   6.380   6.917  0.0112  0.0659 -0.1312
  979YOPC   C3A11203   5.456   6.361   7.110  0.1409  0.1086  0.0165
  979YOPC   C4A11204   5.445   6.184   7.622  0.1932  0.0333 -0.1181
  979YOPC   C1B11205   6.408   6.573   6.573  0.2656  0.1515  0.0730
  979YOPC   C2B11206   6.766   6.601   6.692 -0.2281 -0.0511  0.0311
  979YOPC   D3B11207   7.151   6.477   6.922 -0.0804  0.1178  0.2671
  979YOPC   C4B11208   7.389   6.402   7.314 -0.0157  0.0654 -0.1035
  980YOPC   NC311209   1.524   3.709   5.666  0.5032 -0.2496  0.1484
  980YOPC   PO411210   1.504   3.726   6.068 -0.1670  0.0029  0.2954
  980YOPC   GL111211   1.363   3.741   6.471 -0.1433 -0.0415 -0.0848
  980YOPC   GL211212   1.447   3.925   6.679  0.1677 -0.2395 -0.0850
  980YOPC   C1A11213   1.496   3.513   6.794  0.2770  0.3203  0.0736
  980YOPC   D2A11214   1.824   3.273   6.825 -0.2255 -0.1809  0.0029
  980YOPC   C3A11215   1.792   3.036   7.231  0.1171  0.2043 -0.0436
  980YOPC   C4A11216   1.807   3.020   7.719  0.1800 -0.1925  0.0688
  980YOPC   C1B11217   1.297   3.906   7.162  0.2697  0.0265  0.1280
  980YOPC   C2B11218   1.555   4.008   7.549 -0.1387 -0.0523 -0.0974
  980YOPC   D3B11219   1.354   4.322   7.804  0.0995  0.0238 -0.0275
  980YOPC   C4B11220   0.954   4.574   7.826 -0.2794 -0.0956 -0.2729
  981YOPC   NC311221  15.545  14.301   7.144 -0.2457 -0.0358  0.1258
  981YOPC   PO411222  16.047  14.282   7.166  0.0664  0.2004  0.3528
  981YOPC   GL111223  15.920  14.362   7.601  0.1371 -0.0742 -0.1421
  981YOPC   GL211224  15.527  14.359   7.684 -0.0446  0.0228 -0.0668
  981YOPC   C1A11225  15.911  14.460   8.056 -0.0256  0.1648  0.3110
  981YOPC   D2A11226  15.799  14.243   8.445  0.1612  0.0467  0.0710
  981YOPC   C3A11227  15.999  13.965   8.492  0.1640 -0.0005 -0.2788
  981YOPC   C4A11228  16.141  13.642   8.813  0.1505 -0.1608  0.4895
  981YOPC   C1B11229  15.365  14.481   7.999  0.0277  0.5039 -0.4315
  981YOPC   C2B11230  15.269  14.724   8.369 -0.2221  0.1362 -0.0540
  981YOPC   D3B11231  15.438  14.726   8.687 -0.0958  0.2201  0.0406
  981YOPC   C4B11232  15.423  14.485   9.107 -0.2724  0.0555  0.1654
  982YOPC   NC311233   0.836  16.389   7.051  0.2444 -0.1209  0.0083
  982YOPC   PO411234   0.501  16.204   7.244  0.1259  0.0465 -0.1560
  982YOPC   GL111235   0.343  16.224   7.583  0.2592 -0.0453 -0.0365
  982YOPC   GL211236   0.101  16.017   7.588  0.2445 -0.0856  0.0857
  982YOPC   C1A11237   0.472  16.065   7.915 -0.0060  0.0044 -0.2938
  982YOPC   D2A11238   0.807  16.211   8.195 -0.1385 -0.0728  0.0989
  982YOPC   C3A11239   0.593  16.298   8.604  0.0465 -0.0997 -0.2566
  982YOPC   C4A11240   0.567  16.380   9.056 -0.0062 -0.0030 -0.2786
  982YOPC   C1B11241   0.055  16.227   8.076  0.1008 -0.2013  0.1960
  982YOPC   C2B11242   0.013  16.405   8.495  0.1444  0.1176  0.1486
  982YOPC   D3B11243   0.179  16.098   8.828  0.0519  0.0112 -0.1022
  982YOPC   C4B11244   0.593  15.843   9.094  0.0047 -0.0501  0.1685
  983YOPC   NC311245   4.520   7.569   5.162 -0.1983  0.3663 -0.0903
  983YOPC   PO411246   4.406   7.198   5.476  0.0643 -0.1277  0.0815
  983YOPC   GL111247   4.591   7.104   5.884 -0.0017  0.2243 -0.0516
  983YOPC   GL211248   4.519   6.925   6.172 -0.1326 -0.0138  0.1115
  983YOPC   C1A11249   4.775   7.328   6.202  0.2204  0.2864  0.1664
  983YOPC   D2A11250   4.627   7.576   6.469  0.0176 -0.0409 -0.1473
  983YOPC   C3A11251   4.468   7.546   6.880  0.2512  0.3220 -0.4145
  983YOPC   C4A11252   4.169   7.660   7.188  0.1838 -0.2456  0.1271
  983YOPC   C1B11253   4.471   7.126   6.581 -0.0027  0.0134 -0.1617
  983YOPC   C2B11254   4.630   7.068   7.074  0.0143 -0.0839  0.2794
  983YOPC   D3B11255   4.590   7.334   7.371 -0.0507 -0.3156  0.0583
  983YOPC   C4B11256   4.755   7.691   7.274  0.2069 -0.2639  0.0805
  984YOPC   NC311257  10.859   4.884   6.205 -0.0127 -0.1888 -0.1038
  984YOPC   PO411258  10.482   4.659   6.308 -0.3140  0.2148  0.1730
  984YOPC   GL111259  10.496   4.688   6.767 -0.3166  0.0033 -0.1984
  984YOPC   GL211260  10.592   5.014   6.821  0.2553  0.1545  0.1178
  984YOPC   C1A11261  10.648   4.382   7.115 -0.0081  0.3340 -0.2906
  984YOPC   D2A11262  10.650   4.162   7.534  0.1166  0.2412 -0.0617
  984YOPC   C3A11263  10.343   4.068   7.829  0.2110 -0.3304 -0.0206
  984YOPC   C4A11264  10.438   4.141   8.372  0.0906 -0.0380  0.2145
  984YOPC   C1B11265  10.485   5.024   7.137  0.1952  0.0042 -0.1305
  984YOPC   C2B11266  10.219   5.060   7.538  0.1284  0.1118 -0.1382
  984YOPC   D3B11267  10.655   5.173   7.736  0.2746  0.1276  0.1717
  984YOPC   C4B11268  10.828   5.583   7.871 -0.0713 -0.2131 -0.4080
  985YOPC   NC311269  14.163  18.079   5.852  0.0310  0.2376  0.2927
  985YOPC   PO411270  14.163  17.884   6.271  0.1553 -0.1079  0.1065
  985YOPC   GL111271  14.130  18.056   6.730 -0.3099  0.4549 -0.0672
  985YOPC   GL211272  13.913  18.290   6.845  0.2769 -0.0399  0.2249
  985YOPC   C1A11273  14.162  17.845   7.119 -0.1062 -0.1686  0.2339
  985YOPC   D2A11274  13.997  17.805   7.587 -0.0585 -0.0749  0.0574
  985YOPC   C3A11275  13.627  17.635   7.855 -0.0911  0.0225  0.2782
  985YOPC   C4A11276  13.269  17.569   8.130  0.2521 -0.0472  0.0029
  985YOPC   C1B11277  13.680  18.203   7.270  0.0488  0.0645  0.0660
  985YOPC   C2B11278  13.610  18.140   7.715  0.1855 -0.2713  0.2116
  985YOPC   D3B11279  13.345  18.466   7.856 -0.0588 -0.0299  0.1235
  985YOPC   C4B11280  13.252  18.744   8.175  0.2204 -0.2512  0.0890
  986YOPC   NC311281  13.819   2.924   6.180  0.1604  0.5705 -0.0445
  986YOPC   PO411282  14.099   3.147   5.875 -0.0339  0.1964 -0.1746
  986YOPC   GL111283  14.349   3.291   6.308  0.2602 -0.4307 -0.3028
  986YOPC   GL211284  14.157   3.102   6.523  0.2405 -0.0417  0.0855
  986YOPC   C1A11285  14.552   3.358   6.657 -0.0002 -0.0426 -0.0806
  986YOPC   D2A11286  14.665   3.447   7.090  0.0029  0.2125  0.0380
  986YOPC   C3A11287  14.815   3.677   7.401  0.0282  0.1711 -0.0568
  986YOPC   C4A11288  14.716   3.978   7.802 -0.2940 -0.1079 -0.2462
  986YOPC   C1B11289  14.130   3.089   6.978  0.0635 -0.1175 -0.0253
  986YOPC   C2B11290  14.214   3.262   7.351 -0.0389  0.0263 -0.0631
  986YOPC   D3B11291  13.899   3.389   7.567  0.0114 -0.0747 -0.2356
  986YOPC   C4B11292  13.495   3.509   7.575 -0.2684 -0.0610 -0.0898
  987YOPC   NC311293  11.249   0.664   5.746 -0.0010 -0.1104 -0.1200
  987YOPC   PO411294  10.986   0.587   6.018  0.2861  0.1168  0.1665
  987YOPC   GL111295  10.811   0.534   6.376 -0.0025  0.3326 -0.1330
  987YOPC   GL211296  10.578   0.742   6.375  0.1823  0.1144 -0.4282
  987YOPC   C1A11297  10.901   0.799   6.757  0.0786  0.0531 -0.2471
  987YOPC   D2A11298  11.166   0.819   7.190 -0.2361  0.1270 -0.0219
  987YOPC   C3A11299  10.964   1.038   7.453  0.0678 -0.1030 -0.2334
  987YOPC   C4A11300  10.615   1.297   7.577 -0.3288  0.1839 -0.1334
  987YOPC   C1B11301  10.478   0.622   6.774  0.0982 -0.1118  0.2794
  987YOPC   C2B11302  10.539   0.867   7.130 -0.0910 -0.0618  0.1210
  987YOPC   D3B11303  10.558   0.696   7.626  0.2856 -0.0953 -0.4713
  987YOPC   C4B11304  10.863   0.856   7.959  0.1264  0.0298  0.0009
  988YOPC   NC311305   3.909   4.802   6.131 -0.0716 -0.0865  0.0693
  988YOPC   PO411306   4.059   5.260   6.100 -0.2983 -0.0645 -0.2936
  988YOPC   GL111307   3.998   5.131   6.467  0.3070 -0.1004 -0.1052
  988YOPC   GL211308   3.651   5.145   6.441  0.4196  0.0220  0.1430
  988YOPC   C1A11309   3.830   5.317   6.811  0.1009 -0.0235  0.3328
  988YOPC   D2A11310   3.596   5.620   7.161  0.3410 -0.1408 -0.1989
  988YOPC   C3A11311   3.618   5.387   7.581 -0.0583  0.0284  0.2217
  988YOPC   C4A11312   3.340   5.425   7.846  0.2331 -0.0336  0.3535
  988YOPC   C1B11313   3.441   5.337   6.388  0.0826  0.1494  0.1874
  988YOPC   C2B11314   3.378   5.641   6.678  0.0253 -0.2733  0.0099
  988YOPC   D3B11315   3.492   6.032   6.478 -0.0353  0.2390 -0.4451
  988YOPC   C4B11316   3.742   6.315   6.509 -0.0289  0.3248  0.0506
  989YOPC   NC311317  11.058   5.907   5.713 -0.3568 -0.0826 -0.0330
  989YOPC   PO411318  11.436   6.018   5.804 -0.0976  0.1277  0.1467
  989YOPC   GL111319  11.599   6.325   6.234  0.0487  0.1785 -0.0191
  989YOPC   GL211320  11.595   6.715   6.234 -0.0213  0.0194 -0.1477
  989YOPC   C1A11321  11.556   6.397   6.645 -0.2410  0.2368  0.1023
  989YOPC   D2A11322  11.701   6.415   6.932  0.1022  0.1546 -0.1678
  989YOPC   C3A11323  11.630   6.284   7.382 -0.0260  0.3912 -0.2654
  989YOPC   C4A11324  11.801   6.189   7.860 -0.1385 -0.1426  0.2786
  989YOPC   C1B11325  11.713   6.860   6.664 -0.0626  0.1053  0.0315
  989YOPC   C2B11326  11.943   6.898   7.010  0.2781 -0.0189 -0.0253
  989YOPC   D3B11327  12.111   6.714   7.291 -0.3059  0.0183  0.2337
  989YOPC   C4B11328  12.249   6.946   7.503  0.0155  0.0958 -0.1503
  990YOPC   NC311329  11.917   7.875   5.719  0.3687 -0.1016 -0.0557
  990YOPC   PO411330  11.650   8.284   5.917  0.0827  0.2332 -0.0720
  990YOPC   GL111331  11.748   8.382   6.306  0.1538 -0.1582 -0.1716
  990YOPC   GL211332  11.645   8.691   6.281 -0.0096 -0.0850 -0.0949
  990YOPC   C1A11333  11.971   8.136   6.612 -0.0135 -0.0616  0.1112
  990YOPC   D2A11334  11.903   8.264   6.979  0.1239  0.2084 -0.0313
  990YOPC   C3A11335  11.878   8.366   7.427  0.1777 -0.0339 -0.3413
  990YOPC   C4A11336  11.828   8.718   7.535 -0.0687  0.0894 -0.1250
  990YOPC   C1B11337  11.786   8.651   6.673 -0.1238 -0.1511 -0.3302
  990YOPC   C2B11338  12.051   8.761   7.084 -0.1557  0.0634  0.1958
  990YOPC   D3B11339  12.317   8.647   7.489  0.1966 -0.1135  0.1537
  990YOPC   C4B11340  12.655   8.788   7.763  0.3970  0.1543 -0.5362
  991YOPC   NC311341  18.004   5.903   4.957 -0.0330 -0.2191 -0.1588
  991YOPC   PO411342  18.118   6.023   5.466  0.1305  0.2407 -0.0752
  991YOPC   GL111343  17.863   5.831   5.790 -0.2103 -0.1053 -0.1755
  991YOPC   GL211344  17.812   6.020   6.135 -0.0608  0.4179  0.0430
  991YOPC   C1A11345  17.656   5.572   6.174 -0.0403  0.2628 -0.1564
  991YOPC   D2A11346  17.362   5.394   6.567 -0.2369 -0.1130 -0.1825
  991YOPC   C3A11347  17.426   5.084   6.799 -0.0486  0.3099 -0.1993
  991YOPC   C4A11348  17.564   4.751   6.986  0.1636 -0.0200  0.0425
  991YOPC   C1B11349  17.798   6.169   6.520 -0.1927  0.0531 -0.0792
  991YOPC   C2B11350  17.673   5.927   6.881  0.0751  0.2686  0.3218
  991YOPC   D3B11351  17.898   5.712   7.173 -0.3688  0.1748  0.0298
  991YOPC   C4B11352  17.914   5.477   7.490 -0.1361  0.2123 -0.0528
  992YOPC   NC311353   2.532  17.359   6.480  0.1472 -0.0888 -0.0644
  992YOPC   PO411354   2.738  17.205   6.689  0.1099 -0.1924  0.3859
  992YOPC   GL111355   2.743  17.631   6.881 -0.0632 -0.4717 -0.3084
  992YOPC   GL211356   3.043  17.839   6.943  0.0970 -0.0539 -0.0412
  992YOPC   C1A11357   2.494  17.739   7.218 -0.1711 -0.0911  0.0622
  992YOPC   D2A11358   2.383  17.530   7.646 -0.0322  0.3207 -0.1635
  992YOPC   C3A11359   2.367  17.780   8.033  0.3189  0.2623  0.3061
  992YOPC   C4A11360   2.554  17.953   8.415 -0.0629 -0.0757 -0.1456
  992YOPC   C1B11361   3.026  17.594   7.300  0.1169 -0.2452 -0.3074
  992YOPC   C2B11362   2.860  17.733   7.676  0.2642  0.0781  0.4713
  992YOPC   D3B11363   2.892  17.809   8.143 -0.1391 -0.3702 -0.2519
  992YOPC   C4B11364   3.162  17.661   8.483 -0.0647 -0.1466  0.4226
  993YOPC   NC311365   7.605   5.403   5.866 -0.1035 -0.3321  0.0139
  993YOPC   PO411366   7.209   5.615   5.969  0.0177  0.0219  0.0340
  993YOPC   GL111367   7.194   5.409   6.371  0.0716 -0.0433 -0.0297
  993YOPC   GL211368   7.431   5.097   6.363 -0.3038  0.1990 -0.1510
  993YOPC   C1A11369   7.163   5.315   6.839  0.1057 -0.3566  0.2146
  993YOPC   D2A11370   7.238   5.218   7.199  0.0934 -0.2794 -0.3685
  993YOPC   C3A11371   6.819   5.178   7.592  0.1761  0.1348 -0.0192
  993YOPC   C4A11372   6.453   5.052   7.836 -0.3204 -0.0671 -0.4581
  993YOPC   C1B11373   7.661   5.029   6.715  0.1615  0.4590 -0.0458
  993YOPC   C2B11374   7.934   4.726   6.943  0.1231 -0.0689  0.0462
  993YOPC   D3B11375   7.646   4.804   7.352 -0.0165  0.1420 -0.1530
  993YOPC   C4B11376   7.479   5.051   7.667 -0.3104  0.3488  0.1687
  994YOPC   NC311377   1.184  15.398   7.046  0.1319  0.1077  0.1407
  994YOPC   PO411378   0.826  15.317   7.211  0.2859 -0.2213  0.0101
  994YOPC   GL111379   0.979  15.441   7.581  0.0167 -0.0555 -0.1378
  994YOPC   GL211380   1.320  15.436   7.529 -0.2396 -0.1655 -0.0330
  994YOPC   C1A11381   0.704  15.585   7.941  0.0133 -0.2997 -0.1302
  994YOPC   D2A11382   0.805  15.739   8.246  0.0876  0.2052  0.1375
  994YOPC   C3A11383   0.584  15.562   8.658 -0.1065 -0.1936  0.0424
  994YOPC   C4A11384   0.480  15.200   8.927 -0.3870 -0.2575 -0.1680
  994YOPC   C1B11385   1.332  15.410   7.938 -0.3775 -0.2406 -0.1310
  994YOPC   C2B11386   1.567  15.305   8.328  0.2144 -0.0748 -0.1922
  994YOPC   D3B11387   1.349  14.937   8.521  0.1698 -0.0402  0.0520
  994YOPC   C4B11388   1.286  14.468   8.584 -0.1974  0.0567 -0.0999
  995YOPC   NC311389  18.112  10.990   5.794 -0.1195  0.3337 -0.1366
  995YOPC   PO411390  18.214  11.418   5.951 -0.1001 -0.0656  0.2458
  995YOPC   GL111391  18.447  11.505   6.351 -0.4125 -0.2525  0.0686
  995YOPC   GL211392  18.168  11.723   6.445 -0.1337 -0.1471 -0.1945
  995YOPC   C1A11393  18.584  11.668   6.712 -0.3845  0.1244 -0.0953
  995YOPC   D2A11394  18.478  11.715   7.053  0.0592 -0.0153  0.4310
  995YOPC   C3A11395  18.688  11.793   7.376  0.0101  0.0488 -0.2958
  995YOPC   C4A11396  19.062  11.931   7.499  0.5557  0.2041 -0.3731
  995YOPC   C1B11397  18.042  11.701   6.812  0.3389 -0.2715 -0.0096
  995YOPC   C2B11398  18.021  11.812   7.249 -0.1733  0.0807 -0.0452
  995YOPC   D3B11399  17.980  11.597   7.604 -0.2205  0.0684  0.2503
  995YOPC   C4B11400  17.769  11.424   8.023  0.1452  0.0423  0.0354
  996YOPC   NC311401  17.059   8.884   5.436  0.1230 -0.0579  0.2582
  996YOPC   PO411402  17.455   8.835   5.674  0.0842 -0.0601  0.2500
  996YOPC   GL111403  17.320   8.983   6.118  0.4465 -0.1481  0.1434
  996YOPC   GL211404  17.608   9.272   6.195  0.1297 -0.0101  0.0440
  996YOPC   C1A11405  17.244   9.192   6.552  0.0354  0.1566  0.0467
  996YOPC   D2A11406  17.197   9.307   6.987 -0.0313 -0.1163 -0.2779
  996YOPC   C3A11407  17.189   9.160   7.408  0.2175 -0.2470 -0.1817
  996YOPC   C4A11408  16.866   9.147   7.767 -0.1600 -0.0700 -0.3614
  996YOPC   C1B11409  17.649   9.526   6.530 -0.0615 -0.1206  0.1840
  996YOPC   C2B11410  17.456   9.755   6.877 -0.0166  0.2102 -0.0156
  996YOPC   D3B11411  17.510   9.725   7.350  0.2327  0.2065  0.2243
  996YOPC   C4B11412  17.784   9.849   7.668  0.1853 -0.2205  0.3433
  997YOPC   NC311413  17.094  11.731   5.192  0.3901 -0.2491  0.0800
  997YOPC   PO411414  16.942  11.782   5.691 -0.2675  0.0969 -0.0425
  997YOPC   GL111415  16.899  11.558   6.131  0.0547  0.2098  0.0255
  997YOPC   GL211416  16.687  11.725   6.548 -0.0662 -0.0268  0.1729
  997YOPC   C1A11417  17.070  11.412   6.569 -0.1527 -0.2011  0.1539
  997YOPC   D2A11418  17.147  11.121   6.965  0.1075 -0.0286 -0.1393
  997YOPC   C3A11419  17.547  11.020   7.027  0.1415 -0.0203 -0.0602
  997YOPC   C4A11420  17.757  10.820   7.298  0.1618  0.3978 -0.1779
  997YOPC   C1B11421  16.673  11.765   7.028  0.3741  0.1083 -0.0614
  997YOPC   C2B11422  16.386  12.096   7.197 -0.2559 -0.0876 -0.1065
  997YOPC   D3B11423  16.171  12.325   7.551 -0.0384 -0.1514  0.5489
  997YOPC   C4B11424  16.140  12.725   7.816 -0.1679  0.0174  0.0679
  998YOPC   NC311425  13.300   3.799   6.144 -0.1883  0.3155  0.3294
  998YOPC   PO411426  13.645   3.950   6.221 -0.2771  0.0806 -0.0027
  998YOPC   GL111427  14.060   3.761   6.398  0.1562 -0.1607  0.0366
  998YOPC   GL211428  14.341   3.949   6.376  0.1045 -0.1047 -0.0224
  998YOPC   C1A11429  14.016   3.586   6.767 -0.1884  0.1185  0.2217
  998YOPC   D2A11430  13.743   3.448   7.089  0.5675 -0.0651 -0.1460
  998YOPC   C3A11431  13.321   3.657   7.076 -0.0445 -0.0388  0.1549
  998YOPC   C4A11432  12.920   3.815   7.168 -0.0241 -0.2189  0.0961
  998YOPC   C1B11433  14.367   3.940   6.774  0.0717  0.3687 -0.2086
  998YOPC   C2B11434  14.270   3.792   7.109  0.1177 -0.1013  0.1295
  998YOPC   D3B11435  14.385   4.072   7.408  0.0121  0.1220 -0.1868
  998YOPC   C4B11436  14.248   4.277   7.722 -0.1691 -0.3125  0.0921
  999YOPC   NC311437  15.186   9.238   5.420 -0.2142 -0.0316 -0.2154
  999YOPC   PO411438  15.106   9.539   5.702 -0.0461 -0.1361 -0.1694
  999YOPC   GL111439  15.209   9.631   6.260  0.0717  0.0725  0.0361
  999YOPC   GL211440  15.524   9.552   6.390 -0.0435  0.3127  0.2604
  999YOPC   C1A11441  15.162   9.581   6.732  0.2559  0.1068  0.0736
  999YOPC   D2A11442  15.182   9.311   7.109 -0.1343 -0.0200  0.0449
  999YOPC   C3A11443  15.162   9.011   7.323  0.1029  0.2450  0.1207
  999YOPC   C4A11444  15.042   8.710   7.607  0.2884 -0.4017 -0.1102
  999YOPC   C1B11445  15.623   9.301   6.831 -0.0539  0.1099 -0.2589
  999YOPC   C2B11446  15.637   9.083   7.231  0.0529 -0.1291 -0.1586
  999YOPC   D3B11447  15.950   9.071   7.523  0.0741 -0.0465 -0.0170
  999YOPC   C4B11448  16.335   9.233   7.702 -0.2492 -0.0767 -0.2325
 1000YOPC   NC311449  17.271   0.110   6.746  0.1995  0.3428  0.0948
 1000YOPC   PO411450  16.898   0.081   6.601 -0.3386 -0.0504 -0.3310
 1000YOPC   GL111451  16.728   0.228   6.986 -0.0416  0.0476 -0.0711
 1000YOPC   GL211452  16.624  -0.116   7.174 -0.2791 -0.1545  0.0220
 1000YOPC   C1A11453  16.786   0.667   7.198  0.2056  0.0598 -0.3142
 1000YOPC   D2A11454  16.802   0.977   7.472  0.2082 -0.4653  0.0092
 1000YOPC   C3A11455  16.532   0.959   7.798 -0.0661 -0.0187 -0.1451
 1000YOPC   C4A11456  16.277   0.899   8.060  0.1271 -0.1758 -0.1854
 1000YOPC   C1B11457  16.490   0.106   7.443  0.1403 -0.0446  0.0463
 1000YOPC   C2B11458  16.377  -0.038   7.778 -0.1733  0.0306  0.0860
 1000YOPC   D3B11459  16.269  -0.003   8.110 -0.1102  0.1214  0.3340
 1000YOPC   C4B11460  16.523   0.021   8.528  0.2078  0.0027  0.1013
 1001YOPC   NC311461  15.594   1.344   6.415 -0.1794  0.1409 -0.2034
 1001YOPC   PO411462  15.235   1.133   6.617 -0.3578 -0.1630  0.1704
 1001YOPC   GL111463  15.191   0.974   7.064 -0.1666 -0.1049 -0.0446
 1001YOPC   GL211464  15.186   0.661   7.055 -0.0645 -0.0376 -0.1786
 1001YOPC   C1A11465  15.257   1.206   7.398 -0.1053 -0.1302  0.0209
 1001YOPC   D2A11466  15.272   1.315   7.792 -0.0549  0.2036  0.1515
 1001YOPC   C3A11467  14.967   1.135   8.147 -0.2459  0.0959 -0.1007
 1001YOPC   C4A11468  14.626   1.025   8.408 -0.3467 -0.4472  0.1153
 1001YOPC   C1B11469  15.137   0.629   7.408  0.2761  0.1691 -0.2640
 1001YOPC   C2B11470  15.203   0.876   7.733 -0.2260  0.1854 -0.0121
 1001YOPC   D3B11471  15.311   0.680   8.118  0.0826  0.0477  0.0928
 1001YOPC   C4B11472  15.510   0.631   8.467 -0.0331  0.1488 -0.1594
 1002YOPC   NC311473   6.050  13.467   6.659 -0.2244  0.2911 -0.2574
 1002YOPC   PO411474   6.085  13.733   6.383 -0.0624  0.1139  0.4865
 1002YOPC   GL111475   6.317  13.934   6.649 -0.1913 -0.0868  0.2158
 1002YOPC   GL211476   6.569  13.984   6.595  0.1328 -0.0888  0.3975
 1002YOPC   C1A11477   6.544  13.951   7.098  0.1526 -0.0371 -0.0865
 1002YOPC   D2A11478   6.530  13.821   7.507 -0.0143  0.1157 -0.0489
 1002YOPC   C3A11479   6.954  13.948   7.770  0.0299  0.1438  0.2447
 1002YOPC   C4A11480   7.363  13.768   7.864 -0.2752  0.0270 -0.0658
 1002YOPC   C1B11481   6.873  14.278   6.842  0.0753  0.2434 -0.3460
 1002YOPC   C2B11482   7.058  14.559   7.094 -0.2716  0.3361 -0.1187
 1002YOPC   D3B11483   7.296  14.565   7.401  0.0462  0.0159 -0.4745
 1002YOPC   C4B11484   7.481  14.682   7.784  0.2674 -0.0638  0.1536
 1003YOPC   NC311485   2.934  11.685   5.946 -0.0238  0.0471 -0.0816
 1003YOPC   PO411486   2.644  11.745   6.318 -0.0341 -0.0994  0.0296
 1003YOPC   GL111487   2.362  11.893   6.641  0.2018 -0.0564 -0.0683
 1003YOPC   GL211488   2.008  11.881   6.749 -0.2179 -0.1009  0.1392
 1003YOPC   C1A11489   2.247  11.701   7.162 -0.1040  0.1098  0.0310
 1003YOPC   D2A11490   2.378  11.471   7.503  0.1122 -0.1924  0.1023
 1003YOPC   C3A11491   2.193  11.627   7.962  0.0363 -0.4751 -0.2535
 1003YOPC   C4A11492   2.009  11.728   8.321  0.0628 -0.1013 -0.0862
 1003YOPC   C1B11493   1.912  12.105   7.092 -0.1005 -0.4719 -0.1334
 1003YOPC   C2B11494   2.074  12.047   7.494 -0.3248 -0.1053  0.1962
 1003YOPC   D3B11495   1.831  11.975   7.828  0.1927 -0.1097 -0.1486
 1003YOPC   C4B11496   1.538  11.794   8.187 -0.2946 -0.0026  0.1527
 1004YOPC   NC311497   5.037  15.707   6.142  0.1138 -0.4596  0.0415
 1004YOPC   PO411498   4.955  16.104   5.984  0.2682  0.1622 -0.0172
 1004YOPC   GL111499   5.041  16.171   6.485 -0.1921 -0.1183 -0.0875
 1004YOPC   GL211500   4.922  16.323   6.688 -0.3148  0.1132  0.1250
 1004YOPC   C1A11501   5.340  16.072   6.759 -0.1586  0.2851 -0.1621
 1004YOPC   D2A11502   5.814  16.015   6.745  0.2135 -0.3301  0.0150
 1004YOPC   C3A11503   6.070  16.119   7.019  0.2060 -0.2182  0.0033
 1004YOPC   C4A11504   6.470  15.983   7.038  0.1303  0.0166 -0.1421
 1004YOPC   C1B11505   5.016  16.498   7.079  0.1824 -0.2179  0.0124
 1004YOPC   C2B11506   4.979  16.376   7.518  0.2013  0.0215  0.1412
 1004YOPC   D3B11507   5.052  16.418   7.891 -0.0220 -0.1613 -0.1582
 1004YOPC   C4B11508   5.137  16.325   8.303 -0.0837  0.1379  0.0660
 1005YOPC   NC311509   4.972  15.097   6.691  0.0289 -0.6070 -0.1669
 1005YOPC   PO411510   4.795  14.743   6.727 -0.0259 -0.2623 -0.0237
 1005YOPC   GL111511   4.787  14.905   7.108  0.3589  0.0081  0.0756
 1005YOPC   GL211512   4.543  14.803   7.406 -0.0230  0.0731  0.0263
 1005YOPC   C1A11513   5.007  15.012   7.606  0.3451  0.0787  0.2231
 1005YOPC   D2A11514   5.178  15.440   7.800 -0.1953  0.2103  0.1172
 1005YOPC   C3A11515   5.391  15.437   8.204 -0.2379 -0.0126  0.0400
 1005YOPC   C4A11516   5.628  15.685   8.423 -0.1000  0.0451  0.2984
 1005YOPC   C1B11517   4.216  14.942   7.690  0.1454 -0.2084  0.0864
 1005YOPC   C2B11518   4.178  14.825   8.080  0.3576  0.0826  0.0345
 1005YOPC   D3B11519   4.483  14.807   8.447 -0.2399  0.0624  0.1173
 1005YOPC   C4B11520   4.647  14.410   8.689  0.2555 -0.2226 -0.0198
 1006YOPC   NC311521  11.696   4.351   6.072  0.0841  0.0306  0.4082
 1006YOPC   PO411522  11.576   4.027   6.149  0.3680  0.2880  0.2481
 1006YOPC   GL111523  11.605   4.308   6.555 -0.0019 -0.2184 -0.1183
 1006YOPC   GL211524  11.826   4.606   6.442  0.0361 -0.1455 -0.2630
 1006YOPC   C1A11525  11.784   4.425   6.895  0.0439  0.2132 -0.5293
 1006YOPC   D2A11526  11.856   4.632   7.167 -0.1419  0.0045 -0.1070
 1006YOPC   C3A11527  12.228   4.605   7.412  0.3249  0.0878  0.0229
 1006YOPC   C4A11528  12.327   4.752   7.828  0.0749  0.1246 -0.2066
 1006YOPC   C1B11529  12.023   4.908   6.618  0.0340  0.3484 -0.2207
 1006YOPC   C2B11530  12.193   4.932   7.026  0.0938  0.1637  0.3885
 1006YOPC   D3B11531  12.461   5.251   7.152 -0.0443  0.2335 -0.2439
 1006YOPC   C4B11532  12.670   5.486   7.126  0.2315  0.0803  0.2976
 1007YOPC   NC311533  16.310   3.148   5.841  0.1344 -0.0335  0.0595
 1007YOPC   PO411534  16.626   3.266   6.160  0.2272 -0.2211  0.2895
 1007YOPC   GL111535  16.272   3.433   6.507  0.3720 -0.2549  0.0130
 1007YOPC   GL211536  16.236   3.662   6.763 -0.1821  0.0307  0.3513
 1007YOPC   C1A11537  16.092   3.173   6.811 -0.0079 -0.3473  0.0036
 1007YOPC   D2A11538  16.013   3.084   7.222  0.1755  0.0362  0.0479
 1007YOPC   C3A11539  15.888   3.201   7.658 -0.2091 -0.1456 -0.1691
 1007YOPC   C4A11540  15.733   3.541   7.912  0.2008  0.2360 -0.0625
 1007YOPC   C1B11541  15.928   3.548   7.075 -0.1287 -0.1606 -0.0476
 1007YOPC   C2B11542  15.767   3.625   7.401  0.0076  0.1180 -0.2398
 1007YOPC   D3B11543  15.769   3.962   7.616 -0.1635 -0.0472 -0.0508
 1007YOPC   C4B11544  15.676   4.316   7.734 -0.1180 -0.0243 -0.0766
 1008YOPC   NC311545  10.503   0.387   5.936  0.0706  0.1492 -0.0769
 1008YOPC   PO411546  10.206   0.737   6.032  0.2368  0.5027  0.0060
 1008YOPC   GL111547  10.191   0.495   6.382 -0.4532 -0.1360  0.0236
 1008YOPC   GL211548  10.249   0.207   6.372  0.2076 -0.2612 -0.1332
 1008YOPC   C1A11549   9.966   0.529   6.712 -0.1116  0.0296 -0.0863
 1008YOPC   D2A11550   9.990   0.689   7.060 -0.1277  0.0378  0.2529
 1008YOPC   C3A11551  10.040   0.579   7.521  0.0118  0.0727 -0.0723
 1008YOPC   C4A11552  10.309   0.369   7.917  0.2705  0.3464  0.0430
 1008YOPC   C1B11553  10.293   0.181   6.893  0.0492  0.0064 -0.1234
 1008YOPC   C2B11554  10.345   0.340   7.213 -0.2309 -0.2766 -0.3788
 1008YOPC   D3B11555  10.605   0.176   7.579  0.2350  0.0236  0.1142
 1008YOPC   C4B11556  10.785   0.177   7.922  0.3481 -0.2674  0.4555
 1009YOPC   NC311557   7.979  16.831   5.218  0.4198 -0.4083  0.3576
 1009YOPC   PO411558   8.253  16.564   5.455  0.1023  0.0597 -0.0385
 1009YOPC   GL111559   8.312  16.461   5.923  0.0637 -0.0717  0.0962
 1009YOPC   GL211560   8.389  16.600   6.179  0.0005 -0.2480  0.1938
 1009YOPC   C1A11561   8.431  16.113   6.167  0.0833  0.0701  0.0752
 1009YOPC   D2A11562   8.637  15.865   6.460  0.1122 -0.0527 -0.0697
 1009YOPC   C3A11563   8.382  15.541   6.752 -0.4364 -0.0846  0.0266
 1009YOPC   C4A11564   8.303  15.432   7.085  0.0114 -0.2721  0.1633
 1009YOPC   C1B11565   8.663  16.458   6.516 -0.4295 -0.4997 -0.3171
 1009YOPC   C2B11566   8.759  16.609   6.973 -0.4825  0.1635  0.0337
 1009YOPC   D3B11567   8.494  16.495   7.375 -0.2484  0.2503  0.3033
 1009YOPC   C4B11568   8.360  16.582   7.789 -0.2345  0.1323 -0.1033
 1010YOPC   NC311569   4.303   1.577   6.011 -0.0199  0.2226 -0.2067
 1010YOPC   PO411570   4.120   1.449   6.301  0.3464 -0.2262 -0.3336
 1010YOPC   GL111571   3.943   1.473   6.765  0.1086  0.0421 -0.0395
 1010YOPC   GL211572   4.102   1.688   6.870 -0.0045 -0.2660  0.0841
 1010YOPC   C1A11573   3.690   1.482   7.108  0.3019  0.0735 -0.2086
 1010YOPC   D2A11574   3.354   1.565   7.396  0.2329 -0.2361 -0.1084
 1010YOPC   C3A11575   3.591   1.652   7.770  0.2260 -0.1840 -0.1233
 1010YOPC   C4A11576   3.672   1.632   8.178 -0.0273 -0.0606 -0.2364
 1010YOPC   C1B11577   4.191   1.617   7.263  0.3956  0.0513 -0.2409
 1010YOPC   C2B11578   4.333   1.247   7.542 -0.1102  0.1254 -0.1618
 1010YOPC   D3B11579   4.402   1.157   8.043 -0.0593 -0.2513  0.3694
 1010YOPC   C4B11580   4.540   1.497   8.393 -0.0468  0.2966  0.1338
 1011YOPC   NC311581  10.773   6.590   6.000 -0.1729  0.0800  0.2230
 1011YOPC   PO411582  10.399   6.884   6.168 -0.0139  0.1730  0.0323
 1011YOPC   GL111583  10.305   6.696   6.545 -0.0870 -0.5067 -0.1407
 1011YOPC   GL211584  10.120   6.417   6.518 -0.2662 -0.1157 -0.0134
 1011YOPC   C1A11585  10.523   6.514   6.933  0.2795  0.2434 -0.0369
 1011YOPC   D2A11586  10.301   6.261   7.219  0.1471 -0.1499 -0.1390
 1011YOPC   C3A11587  10.426   6.085   7.636  0.0564 -0.0175 -0.1203
 1011YOPC   C4A11588  10.474   5.963   8.059  0.1322  0.1831  0.0115
 1011YOPC   C1B11589   9.945   6.418   6.896  0.2345  0.1336 -0.0990
 1011YOPC   C2B11590   9.816   6.254   7.265 -0.0390 -0.1856 -0.0100
 1011YOPC   D3B11591   9.968   6.452   7.621 -0.6070  0.0178  0.1843
 1011YOPC   C4B11592   9.952   6.688   7.798 -0.2949 -0.1354 -0.0045
 1012YOPC   NC311593  17.135  16.089   6.985  0.4551  0.1139 -0.1874
 1012YOPC   PO411594  17.436  16.240   7.251 -0.0921  0.1314 -0.0244
 1012YOPC   GL111595  17.700  16.502   7.532 -0.3311 -0.1017  0.2258
 1012YOPC   GL211596  17.695  16.350   7.780 -0.0300  0.1264  0.1062
 1012YOPC   C1A11597  17.901  16.791   7.870  0.0838 -0.1055 -0.3126
 1012YOPC   D2A11598  17.995  16.645   8.350 -0.1266  0.0288  0.1157
 1012YOPC   C3A11599  17.896  16.567   8.684 -0.0185  0.1950 -0.1952
 1012YOPC   C4A11600  17.771  16.558   9.136  0.0420 -0.0996  0.4014
 1012YOPC   C1B11601  17.328  16.322   8.018 -0.2510  0.2748  0.1642
 1012YOPC   C2B11602  17.046  16.163   8.287  0.0834 -0.2206 -0.0846
 1012YOPC   D3B11603  16.943  16.428   8.724  0.0246  0.2833 -0.0172
 1012YOPC   C4B11604  16.684  16.764   8.957 -0.4235  0.2293  0.1160
 1013YOPC   NC311605   3.529   7.461   5.419 -0.1113  0.3858  0.0359
 1013YOPC   PO411606   3.666   7.750   5.653  0.1204  0.3536 -0.2018
 1013YOPC   GL111607   3.653   7.798   6.076 -0.0540 -0.0332 -0.1454
 1013YOPC   GL211608   3.839   7.696   6.247 -0.1739  0.1922 -0.2289
 1013YOPC   C1A11609   3.482   7.917   6.458 -0.1101  0.2469 -0.1053
 1013YOPC   D2A11610   3.311   8.320   6.742  0.0849  0.1328 -0.2961
 1013YOPC   C3A11611   3.298   8.091   7.164 -0.1552  0.0606  0.1685
 1013YOPC   C4A11612   3.208   7.726   7.462 -0.2385 -0.1887 -0.1587
 1013YOPC   C1B11613   3.955   7.713   6.628  0.0112 -0.0987 -0.0024
 1013YOPC   C2B11614   3.619   7.728   6.956 -0.0055  0.3976  0.0163
 1013YOPC   D3B11615   3.727   7.419   7.264  0.1026 -0.1400 -0.2687
 1013YOPC   C4B11616   3.981   7.378   7.636 -0.2923 -0.2399 -0.2183
 1014YOPC   NC311617  16.907  13.287   5.639  0.3015  0.2061  0.0343
 1014YOPC   PO411618  17.034  13.206   6.142 -0.0157  0.0122  0.0626
 1014YOPC   GL111619  16.879  13.141   6.556 -0.0181  0.2746 -0.0880
 1014YOPC   GL211620  17.067  13.284   6.834  0.1391  0.0475  0.1805
 1014YOPC   C1A11621  16.634  13.147   7.026  0.0865  0.2156  0.3795
 1014YOPC   D2A11622  16.386  13.113   7.383 -0.2115 -0.0279  0.2005
 1014YOPC   C3A11623  16.610  12.953   7.757  0.2700 -0.0245 -0.0039
 1014YOPC   C4A11624  16.605  12.843   8.133 -0.0933 -0.1486 -0.3343
 1014YOPC   C1B11625  17.227  13.094   7.220  0.0988  0.3585 -0.0662
 1014YOPC   C2B11626  16.940  12.851   7.437 -0.3530  0.0023  0.1225
 1014YOPC   D3B11627  16.975  12.629   7.875  0.0911  0.0179 -0.0329
 1014YOPC   C4B11628  17.094  12.907   8.353 -0.3262 -0.1767 -0.1262
 1015YOPC   NC311629  14.961  12.532   6.540  0.1311  0.2468  0.0877
 1015YOPC   PO411630  14.738  12.082   6.507  0.0287 -0.2087  0.0560
 1015YOPC   GL111631  14.925  11.948   6.980 -0.0576  0.1581 -0.1329
 1015YOPC   GL211632  14.910  11.617   6.899 -0.0069  0.0394 -0.1146
 1015YOPC   C1A11633  14.902  11.971   7.494  0.0457 -0.0195  0.1082
 1015YOPC   D2A11634  14.961  11.909   7.973  0.2063 -0.0630 -0.0810
 1015YOPC   C3A11635  15.159  11.587   8.189 -0.0844 -0.1266 -0.1207
 1015YOPC   C4A11636  15.395  11.533   8.514 -0.2207 -0.1137 -0.0888
 1015YOPC   C1B11637  15.012  11.502   7.345 -0.0565  0.0286 -0.2192
 1015YOPC   C2B11638  14.993  11.462   7.764  0.1925 -0.0353  0.0322
 1015YOPC   D3B11639  14.640  11.233   7.820  0.1495 -0.1777  0.2409
 1015YOPC   C4B11640  14.414  10.941   7.968 -0.0529  0.0748 -0.1606
 1016YOPC   NC311641   3.199  14.524   6.525 -0.0341  0.3406 -0.1960
 1016YOPC   PO411642   3.395  14.786   6.820 -0.3362  0.1170 -0.1178
 1016YOPC   GL111643   3.290  14.743   7.250 -0.0792  0.4716 -0.2694
 1016YOPC   GL211644   3.185  14.395   7.198  0.0880 -0.1615  0.0010
 1016YOPC   C1A11645   3.362  14.816   7.736 -0.1085 -0.2357 -0.2483
 1016YOPC   D2A11646   3.379  14.810   8.154 -0.0460  0.0413 -0.1461
 1016YOPC   C3A11647   3.733  14.902   8.304  0.1222  0.0066 -0.1174
 1016YOPC   C4A11648   3.988  15.112   8.562 -0.0262 -0.3742  0.1116
 1016YOPC   C1B11649   3.339  14.337   7.587 -0.1217 -0.1428 -0.0645
 1016YOPC   C2B11650   3.396  14.256   8.038  0.2568  0.1709 -0.1442
 1016YOPC   D3B11651   3.737  14.381   8.369 -0.0701  0.0790  0.2977
 1016YOPC   C4B11652   4.018  14.595   8.634  0.2128  0.0370  0.0591
 1017YOPC   NC311653  12.996  11.986   6.238  0.0657  0.0117  0.1644
 1017YOPC   PO411654  13.123  12.358   6.408  0.1214  0.0832 -0.2547
 1017YOPC   GL111655  12.965  12.397   6.782  0.3177 -0.1761  0.2013
 1017YOPC   GL211656  12.623  12.476   6.815 -0.1707  0.0922 -0.3049
 1017YOPC   C1A11657  13.019  12.408   7.232 -0.0233  0.0329 -0.1562
 1017YOPC   D2A11658  12.756  12.381   7.564  0.0813  0.4882  0.2382
 1017YOPC   C3A11659  12.341  12.443   7.598 -0.3557 -0.0957 -0.1771
 1017YOPC   C4A11660  11.961  12.613   7.771  0.2112  0.0900 -0.1952
 1017YOPC   C1B11661  12.598  12.153   7.160 -0.2354 -0.0554  0.0427
 1017YOPC   C2B11662  12.422  11.909   7.516  0.0507  0.0284  0.0086
 1017YOPC   D3B11663  12.617  12.033   7.965  0.5081  0.0770 -0.1044
 1017YOPC   C4B11664  12.932  12.039   8.242 -0.1500 -0.2061  0.1448
 1018YOPC   NC311665  17.030  13.661   6.359 -0.3211  0.0187 -0.0358
 1018YOPC   PO411666  17.367  13.727   6.706  0.0646 -0.2331 -0.1467
 1018YOPC   GL111667  17.880  13.808   6.906 -0.1464  0.1125 -0.0152
 1018YOPC   GL211668  17.793  13.933   7.080 -0.3448  0.0701  0.0345
 1018YOPC   C1A11669  18.331  13.679   7.128  0.1017  0.2953 -0.1217
 1018YOPC   D2A11670  18.578  13.380   7.228 -0.2023  0.1263 -0.0031
 1018YOPC   C3A11671  18.528  13.355   7.616 -0.0991 -0.1959  0.0303
 1018YOPC   C4A11672  18.323  13.195   8.026 -0.0233 -0.1187 -0.1124
 1018YOPC   C1B11673  17.945  13.722   7.408 -0.1840  0.0411 -0.0043
 1018YOPC   C2B11674  18.092  13.630   7.825 -0.0030 -0.3836  0.2589
 1018YOPC   D3B11675  17.900  13.770   8.119 -0.2020 -0.3378  0.1508
 1018YOPC   C4B11676  17.973  14.031   8.404  0.0636  0.0489  0.2933
 1019YOPC   NC311677  16.546   1.319   6.606  0.0465 -0.0040 -0.3353
 1019YOPC   PO411678  16.824   1.113   6.743 -0.3224  0.0969 -0.0475
 1019YOPC   GL111679  17.124   0.971   6.981 -0.3163 -0.0807 -0.2564
 1019YOPC   GL211680  17.390   1.179   6.913  0.0302  0.2511  0.0828
 1019YOPC   C1A11681  17.215   0.721   7.386 -0.3145  0.1470  0.1286
 1019YOPC   D2A11682  17.239   0.740   7.897  0.0351 -0.0151 -0.2688
 1019YOPC   C3A11683  17.602   0.823   8.184  0.0067  0.2529 -0.0912
 1019YOPC   C4A11684  17.969   0.721   8.150  0.3505  0.0072  0.2093
 1019YOPC   C1B11685  17.277   1.248   7.408  0.1428  0.2259  0.1545
 1019YOPC   C2B11686  17.341   1.338   7.883  0.0081  0.2244  0.0036
 1019YOPC   D3B11687  17.133   1.166   8.247  0.2200 -0.2037  0.0567
 1019YOPC   C4B11688  16.799   0.857   8.391  0.2055  0.0197 -0.0473
 1020YOPC   NC311689  15.384   3.256   5.954  0.1009  0.0569 -0.1167
 1020YOPC   PO411690  15.763   3.142   5.919 -0.0618  0.3552 -0.0544
 1020YOPC   GL111691  15.761   3.261   6.300  0.2510 -0.0865  0.3495
 1020YOPC   GL211692  15.719   3.015   6.558  0.0477 -0.0607  0.0433
 1020YOPC   C1A11693  15.779   3.572   6.547  0.0579  0.0090 -0.2594
 1020YOPC   D2A11694  15.469   3.821   6.719  0.1632 -0.0290  0.0825
 1020YOPC   C3A11695  15.328   4.152   6.900 -0.0143 -0.3381  0.1032
 1020YOPC   C4A11696  15.270   4.342   7.413  0.2307  0.1773  0.1680
 1020YOPC   C1B11697  15.593   3.188   6.950 -0.0825 -0.1278 -0.2173
 1020YOPC   C2B11698  15.402   3.251   7.448  0.2045  0.0401  0.0146
 1020YOPC   D3B11699  15.272   3.003   7.784  0.1927  0.0537 -0.4458
 1020YOPC   C4B11700  15.221   2.626   8.166 -0.1307 -0.1688  0.2372
 1021YOPC   NC311701  15.607  13.279   6.679  0.3233 -0.1110  0.0222
 1021YOPC   PO411702  15.286  13.441   6.897  0.1278  0.0688 -0.0789
 1021YOPC   GL111703  15.340  13.174   7.129 -0.1308  0.0124 -0.1596
 1021YOPC   GL211704  15.678  13.253   7.188 -0.3835 -0.0074  0.3102
 1021YOPC   C1A11705  15.239  12.765   7.330 -0.3051 -0.2333 -0.0200
 1021YOPC   D2A11706  15.201  12.379   7.568 -0.1123  0.1847 -0.0102
 1021YOPC   C3A11707  15.175  12.373   8.030 -0.2366  0.0848 -0.0974
 1021YOPC   C4A11708  15.141  12.520   8.427 -0.3018  0.1079 -0.0874
 1021YOPC   C1B11709  15.510  13.352   7.611 -0.0685  0.0056 -0.2067
 1021YOPC   C2B11710  15.297  13.328   7.961 -0.0512  0.0701 -0.0559
 1021YOPC   D3B11711  15.416  13.009   8.322  0.0048  0.2515  0.1084
 1021YOPC   C4B11712  15.486  12.837   8.660 -0.2162 -0.2741 -0.1364
 1022YOPC   NC311713  13.617  15.324   6.365  0.0410 -0.1372 -0.1395
 1022YOPC   PO411714  13.351  14.968   6.551  0.1044 -0.2149 -0.0884
 1022YOPC   GL111715  13.192  14.956   6.940  0.0375  0.2460  0.0918
 1022YOPC   GL211716  13.011  14.785   7.097  0.0236  0.1588  0.1495
 1022YOPC   C1A11717  12.876  15.209   7.221 -0.1462 -0.0756 -0.0209
 1022YOPC   D2A11718  12.632  15.503   7.421  0.1686 -0.2984  0.2426
 1022YOPC   C3A11719  12.467  15.536   7.824 -0.2308 -0.0953 -0.3010
 1022YOPC   C4A11720  12.313  15.870   8.003  0.0246 -0.0077 -0.0901
 1022YOPC   C1B11721  12.876  14.800   7.492  0.3779  0.0311  0.1606
 1022YOPC   C2B11722  12.761  15.130   7.728  0.3113 -0.2226  0.0017
 1022YOPC   D3B11723  12.674  15.106   8.063  0.0537 -0.2453 -0.1188
 1022YOPC   C4B11724  13.099  15.138   8.366 -0.1956 -0.1168  0.0789
 1023YOPC   NC311725  15.861   3.850   5.589 -0.2441  0.0732  0.1741
 1023YOPC   PO411726  15.858   4.138   5.941  0.4080 -0.0160 -0.1729
 1023YOPC   GL111727  15.483   4.110   6.281  0.0918 -0.2641  0.0302
 1023YOPC   GL211728  15.229   3.869   6.274  0.0103  0.0925 -0.0799
 1023YOPC   C1A11729  15.265   4.372   6.463 -0.0822 -0.3192 -0.2074
 1023YOPC   D2A11730  15.049   4.688   6.773 -0.1229  0.0734 -0.0153
 1023YOPC   C3A11731  15.118   4.818   7.220  0.2047 -0.2548  0.0560
 1023YOPC   C4A11732  15.118   4.798   7.643 -0.0390  0.2542 -0.0414
 1023YOPC   C1B11733  14.884   3.890   6.635 -0.0046  0.0970  0.0960
 1023YOPC   C2B11734  14.816   4.056   7.053 -0.1802 -0.0312  0.3380
 1023YOPC   D3B11735  14.620   4.500   7.025  0.1544 -0.2242  0.1907
 1023YOPC   C4B11736  14.446   4.943   6.824 -0.0311 -0.3886  0.0120
 1024YOPC   NC311737  13.486   7.901   5.526  0.4711  0.0605  0.1573
 1024YOPC   PO411738  13.131   8.219   5.732 -0.0969 -0.4390  0.1204
 1024YOPC   GL111739  13.266   8.293   6.079  0.0440 -0.0870 -0.0397
 1024YOPC   GL211740  13.167   8.465   6.231 -0.1428  0.1106 -0.0227
 1024YOPC   C1A11741  13.421   7.996   6.335 -0.1871  0.3610 -0.0808
 1024YOPC   D2A11742  13.383   8.084   6.734  0.0491 -0.3564  0.0963
 1024YOPC   C3A11743  13.785   8.025   6.903  0.0998  0.2358 -0.0712
 1024YOPC   C4A11744  13.911   7.755   7.063 -0.0471 -0.1912  0.0702
 1024YOPC   C1B11745  13.329   8.695   6.599  0.1114 -0.2591 -0.1937
 1024YOPC   C2B11746  13.560   8.482   6.964 -0.1727  0.1541 -0.2914
 1024YOPC   D3B11747  13.450   8.478   7.430 -0.1186  0.1314  0.2259
 1024YOPC   C4B11748  13.694   8.355   7.712 -0.2429  0.2497 -0.2998
 1025YOPC   NC311749   6.659  17.396   5.395 -0.0550 -0.0156  0.1473
 1025YOPC   PO411750   6.634  17.157   5.774 -0.0463  0.4050 -0.1572
 1025YOPC   GL111751   6.529  16.969   6.109  0.2204  0.0506 -0.0015
 1025YOPC   GL211752   6.561  17.231   6.267 -0.0038  0.1949 -0.0821
 1025YOPC   C1A11753   6.193  16.707   6.290 -0.2896  0.0037 -0.0682
 1025YOPC   D2A11754   6.110  16.492   6.672  0.1790 -0.2902 -0.0727
 1025YOPC   C3A11755   6.407  16.495   7.117  0.4038  0.0134 -0.0826
 1025YOPC   C4A11756   6.704  16.323   7.454  0.1042  0.0841  0.0141
 1025YOPC   C1B11757   6.546  17.149   6.617 -0.1568  0.3417  0.5379
 1025YOPC   C2B11758   6.633  17.438   6.868 -0.2484  0.1084  0.1275
 1025YOPC   D3B11759   6.851  17.373   7.234  0.0979  0.2017  0.0264
 1025YOPC   C4B11760   6.920  17.211   7.677 -0.0267  0.3638 -0.3436
 1026YOPC   NC311761  15.631  10.614   6.319  0.2242  0.3076  0.0257
 1026YOPC   PO411762  15.973  10.764   6.332 -0.0582 -0.0322 -0.0082
 1026YOPC   GL111763  15.991  10.658   6.766 -0.2307  0.1568 -0.1000
 1026YOPC   GL211764  15.810  10.348   6.811 -0.1980 -0.2981  0.5221
 1026YOPC   C1A11765  15.807  10.937   7.089 -0.0988  0.1861 -0.0831
 1026YOPC   D2A11766  15.761  10.937   7.474  0.0933  0.2934 -0.2547
 1026YOPC   C3A11767  15.961  10.930   7.930  0.1233 -0.1923  0.0369
 1026YOPC   C4A11768  16.039  10.646   8.234 -0.0912  0.4295  0.0571
 1026YOPC   C1B11769  16.069  10.511   7.234 -0.1624  0.1007 -0.2609
 1026YOPC   C2B11770  16.019  10.439   7.706 -0.1586 -0.3080  0.2504
 1026YOPC   D3B11771  16.307  10.325   7.860  0.0061 -0.2653 -0.0220
 1026YOPC   C4B11772  16.714  10.180   7.666  0.1533 -0.2327  0.0806
 1027YOPC   NC311773  17.357  10.466   5.742  0.3181  0.3046  0.0867
 1027YOPC   PO411774  16.972  10.644   5.807 -0.1724  0.0150 -0.2225
 1027YOPC   GL111775  16.917  10.365   6.120 -0.2908  0.3017 -0.0254
 1027YOPC   GL211776  16.772  10.094   6.099 -0.7184 -0.2583 -0.1262
 1027YOPC   C1A11777  16.980  10.366   6.518  0.0198 -0.0268 -0.4939
 1027YOPC   D2A11778  17.167  10.172   6.911 -0.0282  0.0944 -0.0956
 1027YOPC   C3A11779  17.109  10.117   7.301 -0.2415 -0.2181  0.3861
 1027YOPC   C4A11780  17.305  10.050   7.671  0.3413  0.2148 -0.2559
 1027YOPC   C1B11781  16.558   9.824   6.308  0.0301  0.1693  0.4416
 1027YOPC   C2B11782  16.463   9.784   6.742  0.1098 -0.1436 -0.0024
 1027YOPC   D3B11783  16.106   9.989   7.039  0.0061  0.1776 -0.3310
 1027YOPC   C4B11784  15.808  10.060   7.232 -0.1376 -0.1991 -0.1473
 1028YOPC   NC311785   2.655   9.493   5.269 -0.1942 -0.1880 -0.1402
 1028YOPC   PO411786   2.546   9.286   5.665  0.3150 -0.0372 -0.0655
 1028YOPC   GL111787   2.629   9.439   5.963 -0.0161 -0.2260  0.3177
 1028YOPC   GL211788   2.494   9.384   6.265  0.0034 -0.0828 -0.0572
 1028YOPC   C1A11789   3.001   9.492   6.200 -0.3416 -0.2136 -0.3306
 1028YOPC   D2A11790   3.136   9.742   6.479  0.2173  0.3410  0.1434
 1028YOPC   C3A11791   2.852  10.029   6.728  0.1875  0.1693  0.0934
 1028YOPC   C4A11792   2.778  10.479   6.941  0.2756  0.0130 -0.0197
 1028YOPC   C1B11793   2.660   9.562   6.628 -0.3315  0.3433  0.2819
 1028YOPC   C2B11794   2.625   9.711   7.005 -0.2292 -0.0896 -0.0634
 1028YOPC   D3B11795   2.438  10.158   7.129  0.2352  0.2549 -0.0252
 1028YOPC   C4B11796   2.667  10.476   7.471  0.3168  0.0933  0.1074
 1029YOPC   NC311797   5.465  13.922   7.040 -0.0445  0.0487  0.2240
 1029YOPC   PO411798   5.578  13.414   6.842  0.1234  0.0808 -0.0152
 1029YOPC   GL111799   5.506  13.524   7.269 -0.3241 -0.0795 -0.2652
 1029YOPC   GL211800   5.167  13.492   7.325 -0.1776  0.0172  0.0415
 1029YOPC   C1A11801   5.494  13.761   7.725  0.0250 -0.1140 -0.0730
 1029YOPC   D2A11802   5.621  13.627   8.114  0.0073 -0.0407 -0.1465
 1029YOPC   C3A11803   5.822  13.956   8.307  0.1965  0.1297 -0.2446
 1029YOPC   C4A11804   5.934  14.318   8.333  0.1283  0.0949 -0.3361
 1029YOPC   C1B11805   5.181  13.358   7.767 -0.0806 -0.0807 -0.0437
 1029YOPC   C2B11806   5.189  13.447   8.171  0.0034 -0.0012 -0.1212
 1029YOPC   D3B11807   4.905  13.575   8.433 -0.1552  0.0462  0.0524
 1029YOPC   C4B11808   4.788  13.967   8.527  0.1296  0.1785 -0.1839
 1030YOPC   NC311809   0.133   9.536   6.241  0.0633  0.0140  0.2220
 1030YOPC   PO411810   0.322   9.905   6.005  0.0171  0.2068  0.0632
 1030YOPC   GL111811   0.592   9.703   6.396 -0.0017 -0.1093 -0.2998
 1030YOPC   GL211812   0.875   9.748   6.558  0.2641  0.0861 -0.6106
 1030YOPC   C1A11813   0.410   9.658   6.816  0.1146 -0.1719 -0.1555
 1030YOPC   D2A11814   0.260   9.536   7.214  0.1343 -0.2100 -0.3866
 1030YOPC   C3A11815   0.445   9.791   7.510  0.2322 -0.1387 -0.0461
 1030YOPC   C4A11816   0.571  10.016   7.878  0.0463  0.1450 -0.0882
 1030YOPC   C1B11817   1.081   9.955   7.081 -0.4129 -0.1820  0.0802
 1030YOPC   C2B11818   1.427  10.175   7.198  0.2815  0.0878  0.0711
 1030YOPC   D3B11819   1.715   9.874   7.377 -0.2868  0.0298 -0.0499
 1030YOPC   C4B11820   2.127   9.736   7.209  0.0498  0.0448 -0.0871
 1031YOPC   NC311821   2.459  10.150   6.131  0.0881 -0.0386 -0.0179
 1031YOPC   PO411822   2.288   9.790   6.000  0.3507  0.2432  0.1607
 1031YOPC   GL111823   2.265   9.797   6.494 -0.2726 -0.0138  0.0229
 1031YOPC   GL211824   2.043  10.016   6.732 -0.1683  0.1302  0.0965
 1031YOPC   C1A11825   2.233   9.417   6.764  0.0971  0.3265 -0.0645
 1031YOPC   D2A11826   2.332   9.283   7.265  0.3064 -0.3374 -0.3535
 1031YOPC   C3A11827   2.464   9.534   7.478 -0.1883 -0.0340  0.0210
 1031YOPC   C4A11828   2.270   9.866   7.701  0.0152  0.1513  0.3442
 1031YOPC   C1B11829   1.805   9.701   6.851  0.0798 -0.4154  0.1706
 1031YOPC   C2B11830   1.442   9.572   7.054  0.1783  0.0395 -0.0849
 1031YOPC   D3B11831   1.289   9.670   7.582 -0.0802 -0.1298 -0.0675
 1031YOPC   C4B11832   0.946   9.793   7.675 -0.1313  0.2404  0.0258
 1032YOPC   NC311833   5.342   6.477   5.863  0.2855  0.0820  0.3214
 1032YOPC   PO411834   5.364   6.987   5.866  0.2214  0.2490  0.2309
 1032YOPC   GL111835   5.075   6.860   6.221  0.1869  0.1252  0.0994
 1032YOPC   GL211836   5.080   6.533   6.291  0.1148  0.0081 -0.0442
 1032YOPC   C1A11837   4.978   7.063   6.639 -0.4003 -0.0416  0.0002
 1032YOPC   D2A11838   4.962   7.473   6.907  0.2217  0.0161 -0.4304
 1032YOPC   C3A11839   5.081   7.336   7.393  0.0586 -0.0974 -0.0437
 1032YOPC   C4A11840   4.963   7.373   7.823 -0.1525 -0.1200  0.0129
 1032YOPC   C1B11841   5.134   6.597   6.795  0.1584  0.1362  0.1312
 1032YOPC   C2B11842   5.037   6.784   7.127 -0.2217  0.0033  0.2255
 1032YOPC   D3B11843   5.343   6.806   7.479  0.1260  0.0985 -0.1135
 1032YOPC   C4B11844   5.614   6.911   7.887  0.1311  0.3269 -0.0743
 1033YOPC   NC311845   6.416   0.943   6.167  0.2164  0.2416 -0.1245
 1033YOPC   PO411846   6.437   1.303   6.190  0.0217  0.2835  0.1178
 1033YOPC   GL111847   6.239   1.392   6.579  0.1793  0.1173  0.1015
 1033YOPC   GL211848   6.323   1.713   6.442 -0.3919 -0.4652 -0.1311
 1033YOPC   C1A11849   6.270   1.230   7.001 -0.0784  0.0223  0.2316
 1033YOPC   D2A11850   6.084   1.505   7.289 -0.3313  0.1336  0.1802
 1033YOPC   C3A11851   6.278   1.586   7.594 -0.1095 -0.1245 -0.2107
 1033YOPC   C4A11852   6.002   1.910   7.816  0.2769 -0.1082 -0.4257
 1033YOPC   C1B11853   6.316   1.827   6.873 -0.3912 -0.1112  0.2179
 1033YOPC   C2B11854   6.299   1.972   7.299 -0.5858  0.0714  0.0676
 1033YOPC   D3B11855   6.058   2.279   7.472 -0.3238 -0.1663  0.1043
 1033YOPC   C4B11856   5.958   2.465   7.718 -0.3058  0.0732  0.2465
 1034YOPC   NC311857  11.647  10.926   6.066  0.1243 -0.0235  0.1260
 1034YOPC   PO411858  11.439  10.650   5.892  0.0147  0.2354  0.0811
 1034YOPC   GL111859  11.651  10.440   6.160 -0.0013  0.0546  0.2133
 1034YOPC   GL211860  12.030  10.584   6.152  0.0104 -0.3510 -0.0240
 1034YOPC   C1A11861  11.617  10.488   6.548  0.1732  0.0381 -0.1687
 1034YOPC   D2A11862  11.220  10.241   6.770  0.2494 -0.3601  0.0190
 1034YOPC   C3A11863  11.461  10.056   7.108  0.1177  0.4105  0.0612
 1034YOPC   C4A11864  11.405  10.159   7.520  0.3197  0.3246 -0.0761
 1034YOPC   C1B11865  12.173  10.449   6.578  0.0434  0.0381  0.0358
 1034YOPC   C2B11866  12.347  10.483   7.112 -0.1681  0.2267 -0.1250
 1034YOPC   D3B11867  12.234  10.256   7.386  0.1004 -0.1601 -0.0267
 1034YOPC   C4B11868  11.899  10.057   7.518  0.1192 -0.1812 -0.3569
 1035YOPC   NC311869  15.008   6.584   4.974 -0.0203  0.3386  0.1198
 1035YOPC   PO411870  15.213   6.677   5.497  0.2142 -0.2854  0.2715
 1035YOPC   GL111871  15.185   6.623   5.998 -0.0073  0.2923 -0.0166
 1035YOPC   GL211872  15.028   6.368   6.062 -0.2088  0.0857 -0.0974
 1035YOPC   C1A11873  15.278   6.606   6.439 -0.1463 -0.0913  0.0922
 1035YOPC   D2A11874  15.303   6.835   6.714 -0.1350 -0.1820  0.1269
 1035YOPC   C3A11875  15.277   7.168   7.088 -0.0314  0.0564  0.2460
 1035YOPC   C4A11876  15.030   7.468   7.312 -0.1805 -0.0819  0.0672
 1035YOPC   C1B11877  14.975   6.227   6.524 -0.0148 -0.0490 -0.0335
 1035YOPC   C2B11878  15.124   6.337   6.848  0.0343 -0.2453 -0.0766
 1035YOPC   D3B11879  15.424   6.554   7.105 -0.0958  0.0212  0.0312
 1035YOPC   C4B11880  15.502   6.889   7.471  0.4215  0.0553  0.3442
 1036YOPC   NC311881  11.727   4.824   5.904 -0.0122  0.1865 -0.1797
 1036YOPC   PO411882  11.320   5.015   6.072  0.4038  0.0094 -0.0691
 1036YOPC   GL111883  11.384   4.900   6.374 -0.1651 -0.1885 -0.0773
 1036YOPC   GL211884  11.168   4.733   6.607  0.4239 -0.0406 -0.0951
 1036YOPC   C1A11885  11.574   4.864   6.847  0.0408  0.0150 -0.1359
 1036YOPC   D2A11886  11.453   4.907   7.162 -0.0276 -0.1352 -0.1219
 1036YOPC   C3A11887  11.375   4.864   7.642 -0.0749  0.0182  0.1943
 1036YOPC   C4A11888  11.053   4.865   7.931  0.0872 -0.2802  0.0262
 1036YOPC   C1B11889  10.951   4.732   7.018 -0.0119 -0.0585 -0.0782
 1036YOPC   C2B11890  10.921   4.791   7.443  0.0559 -0.2173 -0.3482
 1036YOPC   D3B11891  11.084   4.446   7.647  0.1302 -0.0742 -0.1447
 1036YOPC   C4B11892  11.359   4.299   7.920 -0.1088 -0.0593  0.1194
 1037YOPC   NC311893  13.946  14.373   6.322  0.0440 -0.0130 -0.2237
 1037YOPC   PO411894  14.069  14.519   6.793 -0.0608  0.2477 -0.2808
 1037YOPC   GL111895  14.117  14.597   7.187  0.0331 -0.1712  0.0324
 1037YOPC   GL211896  14.547  14.702   7.171  0.3351 -0.0051  0.0118
 1037YOPC   C1A11897  14.119  14.876   7.502 -0.0845 -0.0663  0.1694
 1037YOPC   D2A11898  13.976  15.077   7.838  0.1562  0.0329  0.0831
 1037YOPC   C3A11899  14.070  14.878   8.174  0.1643  0.0094 -0.1209
 1037YOPC   C4A11900  14.229  14.968   8.602  0.3360 -0.3995 -0.0597
 1037YOPC   C1B11901  14.499  14.625   7.621  0.1108  0.3807 -0.1500
 1037YOPC   C2B11902  14.214  14.443   7.978  0.0072 -0.0184  0.0146
 1037YOPC   D3B11903  14.333  14.349   8.244  0.2132 -0.0554  0.0032
 1037YOPC   C4B11904  14.322  14.486   8.604 -0.0440  0.0069 -0.2324
 1038YOPC   NC311905   5.461   8.613   5.767 -0.2144 -0.1491 -0.0586
 1038YOPC   PO411906   5.796   8.777   5.978 -0.0088  0.1024  0.2254
 1038YOPC   GL111907   5.479   8.492   6.304 -0.1556  0.0180 -0.0177
 1038YOPC   GL211908   5.196   8.325   6.316 -0.2239 -0.0184 -0.1027
 1038YOPC   C1A11909   5.257   8.422   6.784 -0.0159  0.1146  0.0593
 1038YOPC   D2A11910   5.403   8.034   6.898  0.1817 -0.2211  0.3043
 1038YOPC   C3A11911   5.394   7.687   7.256  0.1427  0.4518  0.0139
 1038YOPC   C4A11912   5.237   7.749   7.643 -0.0775 -0.1493 -0.0461
 1038YOPC   C1B11913   4.762   8.486   6.409  0.1303  0.2806 -0.1326
 1038YOPC   C2B11914   4.695   8.706   6.786  0.0033 -0.0978 -0.3155
 1038YOPC   D3B11915   5.038   8.686   7.132 -0.1804  0.0909 -0.3444
 1038YOPC   C4B11916   5.362   8.677   7.471  0.1686  0.1288  0.2365
 1039YOPC   NC311917  14.300   4.337   5.447  0.0852 -0.0123 -0.1503
 1039YOPC   PO411918  14.079   4.608   5.824 -0.0721 -0.0111  0.3348
 1039YOPC   GL111919  14.107   4.786   6.219 -0.3053 -0.3972 -0.0074
 1039YOPC   GL211920  14.109   4.405   6.372 -0.1891 -0.0922 -0.0075
 1039YOPC   C1A11921  14.047   5.137   6.489 -0.0552 -0.1228 -0.2346
 1039YOPC   D2A11922  14.128   5.296   6.866  0.1428  0.3209  0.2460
 1039YOPC   C3A11923  13.996   5.584   7.017 -0.1801 -0.2119  0.1188
 1039YOPC   C4A11924  14.067   5.707   7.340 -0.0099 -0.0545  0.1323
 1039YOPC   C1B11925  14.156   4.534   6.825  0.1510 -0.0360 -0.0496
 1039YOPC   C2B11926  14.117   4.589   7.310  0.1123  0.3485 -0.0440
 1039YOPC   D3B11927  13.763   4.573   7.562 -0.0141 -0.3041  0.4107
 1039YOPC   C4B11928  13.348   4.544   7.298  0.0359  0.0787  0.0101
 1040YOPC   NC311929  10.521  12.495   6.400  0.0697  0.0924 -0.0726
 1040YOPC   PO411930  10.053  12.646   6.405  0.0245  0.0280  0.1800
 1040YOPC   GL111931  10.120  12.517   6.718 -0.0750  0.2465  0.1410
 1040YOPC   GL211932  10.264  12.630   6.888 -0.0101  0.0128  0.0527
 1040YOPC   C1A11933   9.980  12.255   7.125  0.0655  0.1565  0.0091
 1040YOPC   D2A11934  10.043  12.043   7.521  0.1926 -0.0206 -0.2210
 1040YOPC   C3A11935   9.880  12.314   7.846  0.0809  0.1228  0.1131
 1040YOPC   C4A11936   9.609  12.555   7.982 -0.1862 -0.2020 -0.0468
 1040YOPC   C1B11937  10.043  12.842   7.195 -0.0625  0.2551 -0.0142
 1040YOPC   C2B11938   9.911  12.718   7.609  0.1032 -0.1004 -0.0161
 1040YOPC   D3B11939   9.865  12.979   7.937 -0.0331 -0.1317 -0.2275
 1040YOPC   C4B11940   9.793  13.171   8.335 -0.4517  0.1982 -0.1071
 1041YOPC   NC311941   1.693  16.064   6.855  0.2083 -0.3621 -0.0412
 1041YOPC   PO411942   1.521  16.535   6.858  0.1788 -0.0016 -0.0539
 1041YOPC   GL111943   1.745  16.747   7.216 -0.1471 -0.0662  0.5203
 1041YOPC   GL211944   1.999  16.809   7.302  0.1778 -0.1592 -0.0009
 1041YOPC   C1A11945   1.600  16.822   7.582  0.1456  0.0350  0.0706
 1041YOPC   D2A11946   1.566  16.349   7.829 -0.0093  0.0797 -0.0370
 1041YOPC   C3A11947   1.536  16.355   8.299  0.1673  0.0334 -0.1970
 1041YOPC   C4A11948   1.504  16.084   8.608 -0.0599 -0.0567  0.0110
 1041YOPC   C1B11949   2.182  17.029   7.506  0.0139  0.2486  0.0103
 1041YOPC   C2B11950   2.284  16.941   7.910  0.3466  0.1502 -0.1090
 1041YOPC   D3B11951   2.463  17.224   8.106  0.2159  0.0888  0.1841
 1041YOPC   C4B11952   2.693  17.413   8.441 -0.0734 -0.2425  0.2457
 1042YOPC   NC311953   1.510  10.772   5.723  0.0129 -0.2480  0.0857
 1042YOPC   PO411954   1.388  10.973   6.088 -0.1561 -0.4181 -0.2005
 1042YOPC   GL111955   0.975  11.148   6.212  0.1542 -0.0998 -0.0035
 1042YOPC   GL211956   0.745  10.847   6.228  0.2143 -0.0040 -0.0521
 1042YOPC   C1A11957   0.978  11.280   6.646  0.2063  0.1040  0.0413
 1042YOPC   D2A11958   1.178  11.107   7.008 -0.2570  0.2284  0.2119
 1042YOPC   C3A11959   1.253  11.219   7.415 -0.1231  0.0806  0.2514
 1042YOPC   C4A11960   0.893  11.340   7.677 -0.0713 -0.2483 -0.1996
 1042YOPC   C1B11961   0.379  10.565   6.434  0.0431 -0.0703  0.3341
 1042YOPC   C2B11962   0.262  10.517   6.956  0.2889 -0.3512 -0.2744
 1042YOPC   D3B11963   0.613  10.540   7.207  0.0016 -0.3917 -0.1404
 1042YOPC   C4B11964   1.079  10.618   7.245 -0.3971 -0.1066  0.2493
 1043YOPC   NC311965   9.952   9.590   5.999 -0.1621  0.0313 -0.0004
 1043YOPC   PO411966   9.836   9.990   6.007  0.1907 -0.1007  0.1333
 1043YOPC   GL111967   9.793  10.012   6.511 -0.0162  0.0459 -0.0704
 1043YOPC   GL211968   9.788   9.754   6.534 -0.3112  0.1080 -0.3461
 1043YOPC   C1A11969   9.581  10.158   6.877 -0.2469  0.1581 -0.2567
 1043YOPC   D2A11970   9.586  10.218   7.280  0.3841 -0.2021 -0.1354
 1043YOPC   C3A11971   9.449   9.901   7.615 -0.0855  0.1280 -0.0407
 1043YOPC   C4A11972   9.683   9.573   7.868  0.1729  0.0348  0.0054
 1043YOPC   C1B11973   9.437   9.687   6.666 -0.1841 -0.0820 -0.1232
 1043YOPC   C2B11974   9.117   9.363   6.785  0.2209 -0.1838 -0.0621
 1043YOPC   D3B11975   9.149   9.296   7.304  0.1948  0.1278 -0.0511
 1043YOPC   C4B11976   9.207   9.477   7.776 -0.0560 -0.0596 -0.0660
 1044YOPC   NC311977  12.434  13.608   6.912 -0.0148  0.0024  0.0610
 1044YOPC   PO411978  12.846  13.272   6.766  0.0262 -0.1298  0.1570
 1044YOPC   GL111979  13.086  13.321   7.154 -0.0691  0.0650 -0.0774
 1044YOPC   GL211980  13.103  13.546   7.276 -0.0073 -0.1205 -0.1589
 1044YOPC   C1A11981  13.308  13.117   7.562  0.0572  0.1107  0.1583
 1044YOPC   D2A11982  13.596  13.210   7.966  0.1192 -0.2561  0.1212
 1044YOPC   C3A11983  13.997  13.234   7.975  0.0288  0.0980  0.0766
 1044YOPC   C4A11984  14.195  13.452   7.614 -0.2743  0.4606 -0.1675
 1044YOPC   C1B11985  13.124  13.766   7.681 -0.0115  0.0026 -0.0642
 1044YOPC   C2B11986  13.311  13.868   8.043  0.0705  0.3751  0.0342
 1044YOPC   D3B11987  13.006  13.782   8.438  0.2063 -0.1810 -0.1578
 1044YOPC   C4B11988  13.173  13.890   8.805 -0.0452 -0.4332  0.0292
 1045YOPC   NC311989   5.237   9.316   6.095 -0.0210  0.3368  0.4734
 1045YOPC   PO411990   4.856   9.535   5.930  0.0466 -0.2232 -0.5047
 1045YOPC   GL111991   4.684   9.375   6.386 -0.0744 -0.2371 -0.1320
 1045YOPC   GL211992   4.837   9.166   6.367  0.1079  0.2427  0.1710
 1045YOPC   C1A11993   4.472   9.131   6.704  0.0187  0.1058  0.0690
 1045YOPC   D2A11994   4.401   9.003   7.069 -0.2194 -0.2008 -0.2390
 1045YOPC   C3A11995   4.538   8.762   7.324  0.2341 -0.2975 -0.2659
 1045YOPC   C4A11996   4.636   8.420   7.535  0.0945 -0.0201 -0.1740
 1045YOPC   C1B11997   5.150   8.867   6.670  0.3641 -0.0630  0.0678
 1045YOPC   C2B11998   5.421   8.978   7.018  0.1695  0.0661  0.0190
 1045YOPC   D3B11999   5.584   9.438   7.113 -0.1514 -0.0951  0.2591
 1045YOPC   C4B12000   5.787   9.764   7.250 -0.2156 -0.1375 -0.1798
 1046YOPC   NC312001   7.633  11.229   5.530 -0.0051 -0.1863 -0.0663
 1046YOPC   PO412002   7.777  11.193   5.990  0.3280  0.0106  0.2434
 1046YOPC   GL112003   7.837  11.178   6.431  0.0889 -0.1297  0.2701
 1046YOPC   GL212004   8.029  11.454   6.506 -0.2397 -0.3564  0.0005
 1046YOPC   C1A12005   7.603  11.158   6.821  0.1440  0.0812 -0.1340
 1046YOPC   D2A12006   7.530  11.035   7.256 -0.0508 -0.1191 -0.0617
 1046YOPC   C3A12007   7.833  10.899   7.622  0.2478 -0.2659  0.0744
 1046YOPC   C4A12008   8.268  10.718   7.643 -0.5519 -0.3597 -0.0867
 1046YOPC   C1B12009   8.100  11.363   6.932 -0.1037  0.0915 -0.2267
 1046YOPC   C2B12010   8.202  11.165   7.342  0.1965 -0.3631 -0.2746
 1046YOPC   D3B12011   8.504  11.255   7.622 -0.1449 -0.0328 -0.0226
 1046YOPC   C4B12012   8.678  11.163   7.997 -0.1449  0.1210 -0.0715
 1047YOPC   NC312013   5.689   1.537   5.773 -0.0351 -0.0536 -0.0452
 1047YOPC   PO412014   5.419   1.661   5.990 -0.0863  0.0883 -0.4705
 1047YOPC   GL112015   5.564   1.582   6.520 -0.0926  0.2742  0.3467
 1047YOPC   GL212016   5.326   1.790   6.591 -0.0246 -0.5216  0.1739
 1047YOPC   C1A12017   5.830   1.419   6.829 -0.0425 -0.0018 -0.1346
 1047YOPC   D2A12018   5.828   0.992   6.861 -0.1620 -0.0813  0.0058
 1047YOPC   C3A12019   6.007   0.970   7.326 -0.0756 -0.1162 -0.0201
 1047YOPC   C4A12020   6.130   0.932   7.731 -0.0182  0.0568  0.1273
 1047YOPC   C1B12021   5.638   1.951   6.948  0.2133  0.0785 -0.0561
 1047YOPC   C2B12022   5.663   2.063   7.382  0.3172  0.0955  0.1144
 1047YOPC   D3B12023   5.523   1.784   7.756  0.2091  0.0909  0.0652
 1047YOPC   C4B12024   5.542   1.465   8.073 -0.0037 -0.2576  0.1027
 1048YOPC   NC312025   6.179   9.907   6.305 -0.2491 -0.0577 -0.1818
 1048YOPC   PO412026   6.150   9.637   6.032  0.2387  0.0672  0.0594
 1048YOPC   GL112027   6.172   9.374   6.407  0.0795  0.0452  0.0092
 1048YOPC   GL212028   6.282   9.546   6.609 -0.1089 -0.1297  0.1021
 1048YOPC   C1A12029   5.836   9.121   6.726 -0.3363  0.2703 -0.1008
 1048YOPC   D2A12030   5.710   8.694   6.748 -0.2107 -0.2333 -0.3149
 1048YOPC   C3A12031   5.732   8.436   7.077 -0.2755  0.0357 -0.1611
 1048YOPC   C4A12032   5.689   8.264   7.466  0.0966 -0.0483  0.3915
 1048YOPC   C1B12033   6.084   9.399   7.004  0.1263  0.0856  0.0601
 1048YOPC   C2B12034   5.863   9.052   7.213  0.0506  0.2288 -0.1240
 1048YOPC   D3B12035   5.973   8.793   7.540 -0.2567 -0.2049 -0.0715
 1048YOPC   C4B12036   5.958   8.469   7.852 -0.1308  0.0162  0.0841
 1049YOPC   NC312037  14.342   6.419   5.463  0.1090 -0.1113 -0.1506
 1049YOPC   PO412038  14.748   6.519   5.531 -0.0649  0.2018 -0.0709
 1049YOPC   GL112039  14.501   6.425   5.969  0.0360 -0.0823  0.2521
 1049YOPC   GL212040  14.255   6.566   6.036  0.1626 -0.0365 -0.0286
 1049YOPC   C1A12041  14.484   6.192   6.425  0.1110  0.0717 -0.2365
 1049YOPC   D2A12042  14.676   6.173   6.939  0.0036  0.2780 -0.0825
 1049YOPC   C3A12043  14.581   6.060   7.346 -0.0439  0.0298 -0.2328
 1049YOPC   C4A12044  14.348   5.815   7.718  0.1489  0.0605  0.2883
 1049YOPC   C1B12045  14.190   6.883   6.303  0.2179  0.0898  0.0108
 1049YOPC   C2B12046  14.213   6.911   6.675  0.0417  0.2093 -0.1388
 1049YOPC   D3B12047  14.324   6.547   6.947 -0.2220  0.0653  0.0564
 1049YOPC   C4B12048  14.542   6.551   7.302  0.2030 -0.1593  0.0106
 1050YOPC   NC312049  17.760   6.656   5.448  0.3919 -0.1191  0.1022
 1050YOPC   PO412050  17.700   7.052   5.687 -0.1696 -0.0223  0.0477
 1050YOPC   GL112051  17.691   6.956   6.060  0.1215  0.0211 -0.0247
 1050YOPC   GL212052  17.412   6.765   6.135 -0.0382  0.0213 -0.1861
 1050YOPC   C1A12053  17.883   6.683   6.366  0.3364 -0.3895 -0.2151
 1050YOPC   D2A12054  18.074   6.521   6.716 -0.1163 -0.0584 -0.0377
 1050YOPC   C3A12055  17.783   6.398   7.000  0.0175 -0.1351 -0.0862
 1050YOPC   C4A12056  17.803   6.330   7.407 -0.3657 -0.3399  0.0359
 1050YOPC   C1B12057  17.416   6.540   6.509  0.0884 -0.1053 -0.2014
 1050YOPC   C2B12058  17.307   6.371   6.934  0.1844 -0.2199 -0.1977
 1050YOPC   D3B12059  17.331   6.433   7.350  0.0353  0.0198  0.2972
 1050YOPC   C4B12060  17.150   6.499   7.661  0.1763  0.2256 -0.2737
 1051YOPC   NC312061  11.453  15.331   5.697  0.1248 -0.0749  0.3894
 1051YOPC   PO412062  11.618  15.350   6.258  0.2413 -0.0765  0.1711
 1051YOPC   GL112063  11.780  15.301   6.718  0.1927  0.1691 -0.3208
 1051YOPC   GL212064  11.774  14.949   6.911  0.1599  0.0834  0.0163
 1051YOPC   C1A12065  11.923  15.398   7.098 -0.0437 -0.4323  0.0568
 1051YOPC   D2A12066  11.818  15.560   7.409 -0.1343  0.0267 -0.3162
 1051YOPC   C3A12067  11.980  15.522   7.785  0.0466 -0.1799 -0.0238
 1051YOPC   C4A12068  11.863  15.692   8.248 -0.1551  0.1116  0.0639
 1051YOPC   C1B12069  11.648  15.075   7.360  0.2697  0.0004 -0.2712
 1051YOPC   C2B12070  11.537  15.258   7.847  0.3531 -0.1717 -0.3681
 1051YOPC   D3B12071  11.236  15.413   7.944 -0.1084 -0.0311 -0.2995
 1051YOPC   C4B12072  11.098  15.125   8.167 -0.0695 -0.2295  0.1802
 1052YOPC   NC312073   4.922   3.936   5.996  0.2460 -0.0955  0.0885
 1052YOPC   PO412074   4.600   4.163   6.211 -0.0625  0.3292  0.0130
 1052YOPC   GL112075   4.393   4.147   6.646  0.0757  0.0975  0.0073
 1052YOPC   GL212076   4.396   3.807   6.872  0.4377 -0.0494  0.1400
 1052YOPC   C1A12077   4.371   4.249   7.053 -0.0496 -0.1023  0.2315
 1052YOPC   D2A12078   4.437   4.171   7.456  0.0544 -0.0437  0.1671
 1052YOPC   C3A12079   4.495   3.831   7.829  0.1683 -0.1676  0.0893
 1052YOPC   C4A12080   4.474   3.561   8.130  0.2746  0.0283  0.0053
 1052YOPC   C1B12081   4.392   3.735   7.272 -0.2526 -0.1028 -0.1525
 1052YOPC   C2B12082   4.363   3.410   7.634  0.0198  0.0401  0.2798
 1052YOPC   D3B12083   4.153   3.259   7.933  0.1391  0.0844 -0.2677
 1052YOPC   C4B12084   4.105   2.970   8.089 -0.0829  0.1182  0.0125
 1053YOPC   NC312085  14.790  10.765   6.264  0.2950  0.2283 -0.0927
 1053YOPC   PO412086  15.146  10.925   6.435  0.0946 -0.2227  0.1466
 1053YOPC   GL112087  14.797  10.638   6.741  0.0406  0.0352 -0.1960
 1053YOPC   GL212088  14.504  10.736   6.873  0.0332 -0.2568  0.1748
 1053YOPC   C1A12089  14.566  10.331   7.057  0.4721 -0.0857  0.2141
 1053YOPC   D2A12090  14.815  10.146   7.398 -0.1958  0.0528 -0.0245
 1053YOPC   C3A12091  14.715   9.992   7.869  0.0180  0.0899  0.0578
 1053YOPC   C4A12092  14.685   9.871   8.170 -0.2925 -0.0367 -0.1153
 1053YOPC   C1B12093  14.046  10.640   7.003  0.1719  0.4223 -0.0041
 1053YOPC   C2B12094  13.592  10.456   7.317 -0.2568 -0.1045 -0.0327
 1053YOPC   D3B12095  13.650  10.374   7.815  0.2042  0.0773 -0.0655
 1053YOPC   C4B12096  13.709  10.026   8.118  0.5064 -0.0262 -0.1177
 1054YOPC   NC312097  14.896  11.632   6.426  0.1924 -0.1032  0.0928
 1054YOPC   PO412098  15.282  11.454   6.611  0.0587  0.2175  0.0980
 1054YOPC   GL112099  15.298  11.316   6.992  0.0412  0.2366 -0.0733
 1054YOPC   GL212100  15.166  10.981   7.057 -0.1063  0.1095  0.3832
 1054YOPC   C1A12101  15.368  11.173   7.449  0.1021 -0.1895 -0.2049
 1054YOPC   D2A12102  15.043  10.947   7.689 -0.0540  0.0254  0.2034
 1054YOPC   C3A12103  14.891  10.812   8.089 -0.0345  0.0685  0.2958
 1054YOPC   C4A12104  15.089  10.639   8.372  0.0864  0.2147 -0.0775
 1054YOPC   C1B12105  14.913  10.633   7.295  0.1791  0.1156  0.1240
 1054YOPC   C2B12106  14.679  10.529   7.714  0.0036 -0.0864  0.0394
 1054YOPC   D3B12107  14.540  10.355   8.199  0.0425 -0.1346 -0.1362
 1054YOPC   C4B12108  14.289  10.234   8.616 -0.1063 -0.3229 -0.1268
 1055YOPC   NC312109  14.527   9.952   6.135  0.1597 -0.4660 -0.2151
 1055YOPC   PO412110  14.575  10.306   6.363  0.0063 -0.1956  0.1743
 1055YOPC   GL112111  14.182  10.149   6.537 -0.0350  0.1636 -0.2263
 1055YOPC   GL212112  13.849  10.378   6.564 -0.3382 -0.2051  0.1209
 1055YOPC   C1A12113  13.956  10.123   7.030 -0.4510  0.4718 -0.2325
 1055YOPC   D2A12114  14.122  10.248   7.432  0.1702 -0.0782  0.0705
 1055YOPC   C3A12115  14.198  10.282   7.892 -0.2096 -0.2992 -0.2334
 1055YOPC   C4A12116  13.971  10.417   8.283 -0.1216 -0.0507  0.0490
 1055YOPC   C1B12117  13.489  10.569   6.828 -0.0940  0.0173 -0.5712
 1055YOPC   C2B12118  13.110  10.543   7.108 -0.0415  0.5087  0.0502
 1055YOPC   D3B12119  13.183  10.299   7.558  0.0012  0.1094 -0.0047
 1055YOPC   C4B12120  13.228  10.045   7.996 -0.2305 -0.0161 -0.1906
 1056YOPC   NC312121  18.146   8.166   5.845 -0.2579 -0.1636  0.1513
 1056YOPC   PO412122  18.486   8.131   6.100  0.0301  0.1325 -0.4117
 1056YOPC   GL112123  18.633   8.373   6.443 -0.0134  0.1355 -0.0851
 1056YOPC   GL212124  18.672   8.674   6.414  0.0169  0.0170 -0.0520
 1056YOPC   C1A12125  18.499   8.297   6.921 -0.0176 -0.2878  0.1739
 1056YOPC   D2A12126  18.664   8.466   7.357  0.1222  0.1337  0.2718
 1056YOPC   C3A12127  18.359   8.607   7.700 -0.1517 -0.0593  0.1338
 1056YOPC   C4A12128  17.947   8.788   7.573  0.0170  0.1646 -0.3786
 1056YOPC   C1B12129  18.728   8.821   6.880  0.1261  0.1988 -0.2232
 1056YOPC   C2B12130  18.904   9.087   7.143 -0.0857  0.2293  0.0528
 1056YOPC   D3B12131  18.867   8.925   7.614  0.0687  0.0499 -0.1200
 1056YOPC   C4B12132  18.984   8.984   8.041  0.0965 -0.1682  0.1163
 1057YOPC   NC312133   0.077  14.275   6.259  0.1784 -0.2332 -0.1042
 1057YOPC   PO412134   0.109  13.862   6.139 -0.0203 -0.0126  0.1195
 1057YOPC   GL112135   0.351  13.923   6.492  0.0094 -0.1350 -0.0787
 1057YOPC   GL212136   0.343  14.105   6.775 -0.1193  0.2677 -0.1532
 1057YOPC   C1A12137   0.684  13.659   6.853  0.3001 -0.1693 -0.2086
 1057YOPC   D2A12138   1.206  13.779   6.801 -0.2189  0.2864 -0.0888
 1057YOPC   C3A12139   1.435  13.768   7.208 -0.1102 -0.0611  0.1017
 1057YOPC   C4A12140   1.340  13.722   7.605  0.0818 -0.0731  0.1502
 1057YOPC   C1B12141   0.322  13.976   7.181 -0.0788 -0.1139  0.0581
 1057YOPC   C2B12142   0.098  13.858   7.590 -0.2387 -0.0942 -0.2151
 1057YOPC   D3B12143   0.330  13.737   7.936 -0.0051 -0.2519  0.5018
 1057YOPC   C4B12144   0.390  13.449   8.271  0.1297  0.1474 -0.2026
 1058YOPC   NC312145   0.375  18.002   6.748 -0.0289  0.1592  0.1389
 1058YOPC   PO412146   0.065  17.649   6.917 -0.1560  0.0377 -0.2966
 1058YOPC   GL112147   0.192  17.778   7.238  0.0256 -0.0378 -0.1156
 1058YOPC   GL212148   0.101  18.118   7.167  0.0444 -0.1370 -0.0702
 1058YOPC   C1A12149   0.128  17.695   7.649 -0.0470  0.0453  0.0811
 1058YOPC   D2A12150  -0.081  17.538   7.989  0.0885  0.0909  0.2244
 1058YOPC   C3A12151   0.012  17.678   8.426 -0.0312 -0.2190 -0.1917
 1058YOPC   C4A12152  -0.085  18.063   8.705 -0.1275  0.1498  0.0731
 1058YOPC   C1B12153  -0.062  18.248   7.610 -0.0931 -0.1596 -0.1035
 1058YOPC   C2B12154  -0.146  18.044   7.939  0.0837  0.0774 -0.2596
 1058YOPC   D3B12155   0.034  18.188   8.243 -0.1392 -0.2362  0.0625
 1058YOPC   C4B12156   0.249  18.415   8.642  0.2422  0.3396 -0.0592
 1059YOPC   NC312157   9.903  10.503   6.050  0.1090 -0.1450 -0.1219
 1059YOPC   PO412158   9.468  10.515   6.257  0.1178  0.3319  0.2866
 1059YOPC   GL112159   9.793  10.500   6.607 -0.0720  0.2000 -0.0701
 1059YOPC   GL212160  10.047  10.672   6.569  0.3086 -0.1955 -0.0065
 1059YOPC   C1A12161   9.859  10.629   7.076 -0.1306  0.0776 -0.0966
 1059YOPC   D2A12162   9.717  10.739   7.452 -0.3844  0.2948  0.0349
 1059YOPC   C3A12163   9.971  10.883   7.851 -0.4223 -0.0398  0.0426
 1059YOPC   C4A12164  10.286  11.143   8.176 -0.2700 -0.1366 -0.2133
 1059YOPC   C1B12165  10.373  10.683   6.908  0.0656 -0.3396  0.0405
 1059YOPC   C2B12166  10.585  10.471   7.218 -0.0031  0.0264 -0.2819
 1059YOPC   D3B12167  10.699  10.777   7.406 -0.2201 -0.1073 -0.1667
 1059YOPC   C4B12168  10.780  11.259   7.563 -0.0387  0.2270 -0.2989
 1060YOPC   NC312169  10.671   9.082   5.910 -0.1420 -0.0930  0.0296
 1060YOPC   PO412170  10.260   9.237   5.865  0.0784 -0.2874  0.4084
 1060YOPC   GL112171  10.399   9.335   6.272  0.2814 -0.1023 -0.1054
 1060YOPC   GL212172  10.094   9.362   6.462 -0.1022 -0.2105  0.3338
 1060YOPC   C1A12173  10.658   9.433   6.632  0.1872  0.1966  0.0189
 1060YOPC   D2A12174  10.690   9.448   7.079 -0.4611  0.2005 -0.1731
 1060YOPC   C3A12175  10.943   9.496   7.435 -0.0161 -0.2241  0.2166
 1060YOPC   C4A12176  11.066   9.676   7.792  0.1783  0.1739 -0.0958
 1060YOPC   C1B12177  10.241   9.289   6.893 -0.0673  0.1598 -0.0589
 1060YOPC   C2B12178  10.235   9.360   7.329  0.0833 -0.3638  0.3750
 1060YOPC   D3B12179  10.522   9.312   7.636 -0.0070  0.1961 -0.3335
 1060YOPC   C4B12180  10.604   9.432   8.085  0.0374  0.0462 -0.2798
 1061YOPC   NC312181   7.211  13.566   5.717 -0.0515 -0.2485 -0.0576
 1061YOPC   PO412182   7.451  13.512   6.148 -0.3709  0.3104 -0.0623
 1061YOPC   GL112183   7.572  13.932   6.421  0.1448  0.0251  0.1466
 1061YOPC   GL212184   7.970  14.084   6.398  0.1068 -0.0951 -0.1433
 1061YOPC   C1A12185   7.521  14.246   6.774  0.0815  0.3750  0.2131
 1061YOPC   D2A12186   7.714  14.393   7.101  0.3339  0.0759 -0.1354
 1061YOPC   C3A12187   7.744  14.357   7.509 -0.1645 -0.1830  0.0098
 1061YOPC   C4A12188   7.969  14.504   7.855  0.2794  0.3274 -0.0745
 1061YOPC   C1B12189   8.032  14.155   6.774  0.2745 -0.1357  0.1565
 1061YOPC   C2B12190   8.188  14.300   7.110  0.1840 -0.0586  0.0293
 1061YOPC   D3B12191   8.190  14.138   7.504 -0.2479  0.2841  0.1439
 1061YOPC   C4B12192   8.318  14.032   7.948 -0.0779 -0.1230 -0.0003
 1062YOPC   NC312193  15.917  17.527   6.678 -0.1609  0.1535  0.4153
 1062YOPC   PO412194  16.300  17.318   6.954  0.2108 -0.0666  0.0482
 1062YOPC   GL112195  16.319  17.380   7.446  0.1405  0.1332  0.0718
 1062YOPC   GL212196  15.955  17.357   7.475 -0.3467  0.1926  0.0037
 1062YOPC   C1A12197  16.489  17.453   7.864  0.1199 -0.0691 -0.2494
 1062YOPC   D2A12198  16.508  17.498   8.303 -0.0976  0.1952 -0.1862
 1062YOPC   C3A12199  16.110  17.591   8.639 -0.1367  0.0446 -0.0071
 1062YOPC   C4A12200  15.653  17.753   8.808 -0.0785 -0.1655 -0.3761
 1062YOPC   C1B12201  15.961  17.333   7.885  0.0982  0.1219 -0.2709
 1062YOPC   C2B12202  15.976  17.561   8.164 -0.5174  0.0083 -0.1499
 1062YOPC   D3B12203  16.205  17.921   8.258  0.1091  0.0032  0.0942
 1062YOPC   C4B12204  16.538  18.007   8.049  0.0483 -0.4862 -0.1358
 1063YOPC   NC312205   2.280   8.471   6.181 -0.0407  0.0405  0.1323
 1063YOPC   PO412206   1.893   8.691   6.183 -0.0478  0.1021  0.0214
 1063YOPC   GL112207   1.564   8.708   6.499 -0.1412 -0.3387 -0.0635
 1063YOPC   GL212208   1.330   8.739   6.372  0.1497 -0.2504  0.2573
 1063YOPC   C1A12209   1.545   8.748   6.978  0.2036  0.3054  0.2965
 1063YOPC   D2A12210   1.310   8.555   7.274 -0.0241  0.0691  0.1346
 1063YOPC   C3A12211   1.488   8.224   7.471 -0.0688 -0.0824 -0.0040
 1063YOPC   C4A12212   1.849   7.958   7.542  0.0719 -0.1757  0.1606
 1063YOPC   C1B12213   1.329   9.135   6.695 -0.0842  0.1145 -0.1424
 1063YOPC   C2B12214   1.681   9.252   6.774  0.0077  0.1953 -0.1466
 1063YOPC   D3B12215   1.859   9.295   7.137 -0.1043 -0.0383  0.2617
 1063YOPC   C4B12216   1.710   9.423   7.601 -0.0191  0.2084  0.2899
 1064YOPC   NC312217   8.860  14.479   6.273  0.3932 -0.3597 -0.1674
 1064YOPC   PO412218   9.036  14.065   6.246 -0.0109  0.0024  0.0338
 1064YOPC   GL112219   9.149  13.950   6.665  0.0472 -0.2137  0.1845
 1064YOPC   GL212220   9.173  13.601   6.772  0.3685  0.0282  0.0909
 1064YOPC   C1A12221   9.258  14.023   7.112  0.4758 -0.0112 -0.0498
 1064YOPC   D2A12222   9.443  13.889   7.554  0.0484 -0.4239  0.2240
 1064YOPC   C3A12223   9.273  13.829   7.815  0.0183  0.2155  0.1528
 1064YOPC   C4A12224   9.195  13.700   8.138  0.4347  0.3130  0.1035
 1064YOPC   C1B12225   9.174  13.560   7.308 -0.1957 -0.0875  0.3150
 1064YOPC   C2B12226   9.433  13.406   7.468 -0.1624 -0.0403 -0.0984
 1064YOPC   D3B12227   9.678  13.444   7.863  0.4266  0.3000 -0.0400
 1064YOPC   C4B12228   9.781  13.725   8.137  0.0754  0.1361  0.3166
 1065YOPC   NC312229  17.505   8.313   5.586  0.3469 -0.3494  0.0228
 1065YOPC   PO412230  17.734   7.919   5.797 -0.0276  0.0676 -0.2946
 1065YOPC   GL112231  17.625   7.951   6.202  0.0717 -0.0928  0.4627
 1065YOPC   GL212232  17.369   7.791   6.321  0.2472 -0.0393  0.2121
 1065YOPC   C1A12233  17.540   8.396   6.405  0.2105  0.2238 -0.1018
 1065YOPC   D2A12234  17.160   8.704   6.446  0.2990  0.0484  0.0649
 1065YOPC   C3A12235  16.709   8.655   6.336 -0.1772  0.3589  0.0752
 1065YOPC   C4A12236  16.372   8.957   6.407 -0.0162  0.1395 -0.2384
 1065YOPC   C1B12237  17.225   7.784   6.774 -0.2454 -0.2594 -0.4382
 1065YOPC   C2B12238  16.951   7.939   7.125  0.0769 -0.2358 -0.0963
 1065YOPC   D3B12239  17.110   7.906   7.587 -0.0584  0.3103  0.1287
 1065YOPC   C4B12240  16.948   7.998   7.980  0.0922  0.0044  0.0589
 1066YOPC   NC312241   9.301  15.656   5.425 -0.0119 -0.0416  0.1451
 1066YOPC   PO412242   9.265  15.407   5.811 -0.1148 -0.1457  0.2777
 1066YOPC   GL112243   9.346  15.493   6.205 -0.0142  0.0694 -0.1911
 1066YOPC   GL212244   9.721  15.596   6.199  0.0462 -0.0346 -0.1222
 1066YOPC   C1A12245   9.340  15.186   6.591  0.0549 -0.1015 -0.3681
 1066YOPC   D2A12246   9.720  15.126   6.769 -0.2530 -0.1724  0.2511
 1066YOPC   C3A12247   9.912  14.815   7.078 -0.3681  0.1953 -0.1686
 1066YOPC   C4A12248  10.029  14.709   7.404  0.1031 -0.1853 -0.0285
 1066YOPC   C1B12249   9.645  15.640   6.628 -0.1473 -0.1036 -0.0842
 1066YOPC   C2B12250   9.572  15.557   7.040  0.2137 -0.2324  0.0733
 1066YOPC   D3B12251   9.225  15.663   7.201  0.1153  0.0694 -0.0386
 1066YOPC   C4B12252   8.814  15.744   7.035  0.2055 -0.1409  0.2275
 1067YOPC   NC312253   4.946  12.276   6.504  0.2553 -0.1354  0.1779
 1067YOPC   PO412254   5.311  11.841   6.541  0.1511 -0.1405  0.0010
 1067YOPC   GL112255   5.140  11.976   6.897  0.1842  0.0459 -0.1546
 1067YOPC   GL212256   5.297  12.192   7.025 -0.2156  0.0981 -0.0730
 1067YOPC   C1A12257   4.959  11.867   7.206  0.1224  0.2644  0.1351
 1067YOPC   D2A12258   4.749  11.758   7.449  0.1199 -0.2509 -0.0262
 1067YOPC   C3A12259   4.653  11.951   7.807  0.0912  0.0275  0.1512
 1067YOPC   C4A12260   4.384  11.791   8.163 -0.1740  0.0675 -0.0306
 1067YOPC   C1B12261   5.346  12.106   7.457  0.5301 -0.1715 -0.1781
 1067YOPC   C2B12262   5.203  12.018   7.897  0.2087  0.0430 -0.0073
 1067YOPC   D3B12263   5.412  11.603   8.151  0.0594 -0.1847 -0.1015
 1067YOPC   C4B12264   5.560  11.768   8.626 -0.3010 -0.0251 -0.1200
 1068YOPC   NC312265   3.220   8.527   5.844 -0.0502  0.1433  0.2754
 1068YOPC   PO412266   2.869   8.559   6.030 -0.0494  0.1938 -0.0145
 1068YOPC   GL112267   2.904   8.696   6.343  0.1552  0.1164  0.0273
 1068YOPC   GL212268   2.864   9.020   6.343  0.2533 -0.2389 -0.0043
 1068YOPC   C1A12269   3.026   8.715   6.769 -0.3425 -0.0152  0.0759
 1068YOPC   D2A12270   2.975   8.555   7.162  0.1932 -0.2525  0.0470
 1068YOPC   C3A12271   2.842   8.701   7.537  0.2141 -0.1587 -0.0531
 1068YOPC   C4A12272   2.504   8.831   7.859 -0.0399 -0.1501  0.2090
 1068YOPC   C1B12273   3.045   9.276   6.630  0.3214  0.0839  0.3689
 1068YOPC   C2B12274   3.133   9.636   6.979 -0.0605 -0.3071  0.1168
 1068YOPC   D3B12275   3.330   9.662   7.362  0.0057  0.1007 -0.0757
 1068YOPC   C4B12276   3.462   9.615   7.769  0.0623 -0.0153  0.0291
 1069YOPC   NC312277   0.322   8.526   5.932 -0.2256 -0.2663  0.1747
 1069YOPC   PO412278  -0.068   8.668   5.781 -0.0076  0.1717  0.1540
 1069YOPC   GL112279  -0.183   8.699   6.141  0.1280 -0.2204 -0.4022
 1069YOPC   GL212280  -0.283   8.457   6.326  0.0922 -0.0369  0.1561
 1069YOPC   C1A12281  -0.133   8.773   6.653 -0.0884  0.1783  0.0127
 1069YOPC   D2A12282  -0.161   8.758   7.109  0.2644  0.2396 -0.2978
 1069YOPC   C3A12283  -0.259   8.264   7.197  0.1626 -0.1809  0.2817
 1069YOPC   C4A12284  -0.113   8.042   7.516 -0.1033  0.0874 -0.0181
 1069YOPC   C1B12285  -0.426   8.379   6.703  0.0784  0.0909 -0.0353
 1069YOPC   C2B12286  -0.739   8.521   6.836 -0.2227  0.0382 -0.1042
 1069YOPC   D3B12287  -0.665   8.515   7.186  0.1877  0.2322 -0.0641
 1069YOPC   C4B12288  -0.882   8.746   7.378 -0.1392 -0.0033 -0.2601
 1070YOPC   NC312289   3.516   0.303   6.396  0.0212  0.0091  0.1579
 1070YOPC   PO412290   3.780   0.090   6.587 -0.1899  0.1768 -0.0724
 1070YOPC   GL112291   3.700  -0.235   6.855  0.0596 -0.2570 -0.2561
 1070YOPC   GL212292   3.489  -0.033   6.972  0.2612  0.0384 -0.0652
 1070YOPC   C1A12293   3.510  -0.629   7.112 -0.0594 -0.1665  0.1928
 1070YOPC   D2A12294   3.414  -1.054   7.153 -0.2651 -0.1876  0.0866
 1070YOPC   C3A12295   3.733  -1.316   7.247 -0.0427 -0.1480 -0.0845
 1070YOPC   C4A12296   4.119  -1.325   7.504  0.3073 -0.1351 -0.0596
 1070YOPC   C1B12297   3.505   0.178   7.368  0.3926 -0.0768  0.2021
 1070YOPC   C2B12298   3.622   0.111   7.816 -0.1288  0.0537 -0.0072
 1070YOPC   D3B12299   3.868  -0.102   7.999 -0.0514 -0.1287  0.1511
 1070YOPC   C4B12300   4.208  -0.096   8.387 -0.0544  0.1904 -0.0743
 1071YOPC   NC312301   4.159  10.166   5.985 -0.3214 -0.2220 -0.0256
 1071YOPC   PO412302   4.469  10.413   6.024 -0.2443 -0.2300  0.2526
 1071YOPC   GL112303   4.266  10.540   6.333  0.2806  0.2102  0.2282
 1071YOPC   GL212304   3.944  10.392   6.541 -0.1489 -0.2706  0.3171
 1071YOPC   C1A12305   4.222  10.730   6.802  0.2993 -0.3486 -0.0554
 1071YOPC   D2A12306   4.133  10.626   7.172 -0.2782  0.0515  0.1165
 1071YOPC   C3A12307   3.863  10.895   7.406 -0.0174  0.2532 -0.2229
 1071YOPC   C4A12308   3.853  11.288   7.663  0.3097 -0.0502  0.0972
 1071YOPC   C1B12309   3.887  10.224   6.974 -0.1102 -0.1018  0.1172
 1071YOPC   C2B12310   3.623  10.151   7.317  0.0606  0.1416 -0.3015
 1071YOPC   D3B12311   3.762   9.974   7.610 -0.0853 -0.1694  0.0550
 1071YOPC   C4B12312   3.813   9.698   8.055 -0.0147 -0.1979  0.1086
 1072YOPC   NC312313   6.791   7.764   5.653 -0.2199 -0.1736 -0.1123
 1072YOPC   PO412314   6.929   7.540   6.064  0.1133 -0.0149  0.0457
 1072YOPC   GL112315   6.627   7.517   6.369 -0.0860  0.0572 -0.1483
 1072YOPC   GL212316   6.596   7.260   6.284  0.0220 -0.4622  0.2963
 1072YOPC   C1A12317   6.750   7.653   6.744  0.1354  0.0075 -0.0230
 1072YOPC   D2A12318   6.992   7.660   7.031  0.1297  0.0612 -0.0470
 1072YOPC   C3A12319   6.842   7.439   7.321 -0.1994 -0.0276 -0.0756
 1072YOPC   C4A12320   6.733   7.300   7.726 -0.0418  0.0692 -0.2499
 1072YOPC   C1B12321   6.640   7.158   6.754 -0.0887 -0.1348 -0.0024
 1072YOPC   C2B12322   6.696   6.845   7.159  0.2978  0.1629  0.4966
 1072YOPC   D3B12323   6.509   6.860   7.564  0.0485 -0.3349 -0.0263
 1072YOPC   C4B12324   6.605   6.785   7.997  0.1151  0.0377  0.0810
 1073YOPC   NC312325   8.338  11.566   6.080 -0.1258  0.1186  0.1357
 1073YOPC   PO412326   8.373  11.962   6.284  0.0386 -0.3513 -0.0735
 1073YOPC   GL112327   8.465  12.357   6.503 -0.1903 -0.2699  0.3735
 1073YOPC   GL212328   8.653  12.334   6.693  0.0067 -0.7166  0.0486
 1073YOPC   C1A12329   8.244  12.399   6.892 -0.1505  0.1020  0.4539
 1073YOPC   D2A12330   8.294  12.567   7.208 -0.4373 -0.2569  0.1127
 1073YOPC   C3A12331   8.236  12.342   7.577 -0.0236 -0.1108  0.1255
 1073YOPC   C4A12332   8.253  12.192   7.926 -0.5628 -0.4126  0.1987
 1073YOPC   C1B12333   8.642  12.204   7.123 -0.1448  0.1693 -0.1892
 1073YOPC   C2B12334   8.684  12.127   7.678 -0.1823  0.0223 -0.2528
 1073YOPC   D3B12335   8.861  12.291   7.976  0.0600  0.2261 -0.2286
 1073YOPC   C4B12336   9.236  12.310   8.298 -0.2368  0.3737 -0.2700
 1074YOPC   NC312337  13.728   0.420   6.144  0.0588  0.0979  0.2708
 1074YOPC   PO412338  14.204   0.299   6.250 -0.1092  0.1016 -0.2580
 1074YOPC   GL112339  14.122   0.379   6.672 -0.3661 -0.4027  0.1614
 1074YOPC   GL212340  13.980   0.560   6.733  0.0305  0.1031  0.0274
 1074YOPC   C1A12341  14.269   0.389   7.118  0.3588 -0.1297 -0.1647
 1074YOPC   D2A12342  14.271   0.471   7.543  0.2117 -0.0472 -0.1365
 1074YOPC   C3A12343  14.116   0.368   7.931  0.0947  0.1397  0.3682
 1074YOPC   C4A12344  13.782   0.218   8.066  0.0271  0.1580 -0.0589
 1074YOPC   C1B12345  13.772   0.763   7.019  0.0056 -0.0610  0.2959
 1074YOPC   C2B12346  13.617   0.883   7.390  0.0260 -0.0073  0.0582
 1074YOPC   D3B12347  13.864   0.925   7.774 -0.2338 -0.1393 -0.1022
 1074YOPC   C4B12348  13.736   0.705   8.178  0.0282 -0.0109  0.0206
 1075YOPC   NC312349  15.927   8.931   5.588 -0.0249  0.1166  0.2483
 1075YOPC   PO412350  15.421   8.860   5.635  0.2604 -0.2194 -0.4011
 1075YOPC   GL112351  15.468   8.822   6.014  0.0957 -0.0962 -0.0127
 1075YOPC   GL212352  15.273   8.738   6.254 -0.0101  0.0702  0.0929
 1075YOPC   C1A12353  15.638   8.969   6.483 -0.0790  0.2181 -0.1388
 1075YOPC   D2A12354  15.916   8.869   6.759  0.0256  0.0664  0.0309
 1075YOPC   C3A12355  16.291   8.881   7.060 -0.0758 -0.4468 -0.0739
 1075YOPC   C4A12356  16.592   9.026   7.330 -0.4155 -0.0149  0.2582
 1075YOPC   C1B12357  14.833   8.690   6.555 -0.1028  0.0681 -0.0097
 1075YOPC   C2B12358  14.519   8.539   6.818  0.1390  0.1992 -0.0505
 1075YOPC   D3B12359  14.735   8.612   7.244 -0.1285 -0.0184 -0.1382
 1075YOPC   C4B12360  14.695   8.360   7.588  0.2352  0.0931 -0.1821
 1076YOPC   NC312361  16.596   3.760   6.246 -0.0509  0.0965 -0.1840
 1076YOPC   PO412362  16.544   4.243   6.187 -0.0238  0.1941 -0.0856
 1076YOPC   GL112363  16.317   4.204   6.467  0.0436 -0.0309  0.1385
 1076YOPC   GL212364  16.141   3.971   6.404 -0.0961  0.0197  0.3582
 1076YOPC   C1A12365  16.224   4.202   6.941  0.0021 -0.0117 -0.0186
 1076YOPC   D2A12366  16.215   3.917   7.307 -0.0051  0.1819  0.1227
 1076YOPC   C3A12367  16.155   3.812   7.789 -0.0138 -0.1321  0.0210
 1076YOPC   C4A12368  16.343   3.980   8.061  0.1533 -0.1828 -0.2301
 1076YOPC   C1B12369  15.826   4.131   6.643  0.0393  0.3140 -0.1884
 1076YOPC   C2B12370  15.736   4.024   7.098  0.1230 -0.2004  0.3331
 1076YOPC   D3B12371  15.980   4.353   7.333  0.2018 -0.1286 -0.0749
 1076YOPC   C4B12372  16.201   4.346   7.623  0.0651  0.1976  0.1409
 1077YOPC   NC312373  12.493   1.252   6.331  0.1274 -0.0285 -0.0963
 1077YOPC   PO412374  12.682   1.602   6.267  0.2033  0.3723 -0.0146
 1077YOPC   GL112375  12.834   1.610   6.592 -0.0907 -0.1844 -0.5183
 1077YOPC   GL212376  12.948   1.943   6.647  0.1380 -0.1461  0.1568
 1077YOPC   C1A12377  13.023   1.418   6.908 -0.0418  0.2653 -0.3519
 1077YOPC   D2A12378  13.155   1.265   7.348 -0.1555  0.4122 -0.1786
 1077YOPC   C3A12379  13.389   1.274   7.757 -0.2610  0.0347 -0.2359
 1077YOPC   C4A12380  13.394   1.189   8.122  0.0750  0.1195  0.0773
 1077YOPC   C1B12381  12.698   2.100   7.012  0.0884 -0.0704 -0.0277
 1077YOPC   C2B12382  12.788   2.194   7.413 -0.1695  0.1161  0.1333
 1077YOPC   D3B12383  13.064   2.136   7.817  0.1448 -0.2503  0.0269
 1077YOPC   C4B12384  13.126   2.045   8.165 -0.2799  0.1985 -0.0670
 1078YOPC   NC312385   9.865   8.716   5.683 -0.1144  0.3647  0.0846
 1078YOPC   PO412386  10.332   8.696   5.837  0.0723 -0.3972 -0.3561
 1078YOPC   GL112387  10.393   8.858   6.339  0.0668  0.0260  0.4067
 1078YOPC   GL212388  10.719   8.939   6.372  0.0474  0.0089 -0.3241
 1078YOPC   C1A12389  10.419   8.838   6.839  0.0019  0.3491 -0.0992
 1078YOPC   D2A12390  10.454   8.965   7.296  0.0697  0.0542 -0.0045
 1078YOPC   C3A12391  10.458   8.751   7.568  0.1000  0.1691  0.1379
 1078YOPC   C4A12392  10.656   8.927   7.927 -0.0391  0.1719 -0.1627
 1078YOPC   C1B12393  10.874   9.009   6.792  0.3593 -0.4180  0.0377
 1078YOPC   C2B12394  10.950   8.986   7.245  0.2223 -0.2854 -0.1044
 1078YOPC   D3B12395  10.988   8.812   7.623  0.2437  0.0742  0.1998
 1078YOPC   C4B12396  11.158   8.759   7.974 -0.1370 -0.2934  0.1184
 1079YOPC   NC312397   0.367   3.828   5.933 -0.0244  0.0182  0.2660
 1079YOPC   PO412398   0.103   3.595   6.128  0.0274 -0.1187 -0.1465
 1079YOPC   GL112399  -0.152   3.428   6.457  0.4063  0.1453 -0.4023
 1079YOPC   GL212400  -0.156   3.714   6.599 -0.2026  0.0876  0.2523
 1079YOPC   C1A12401  -0.210   3.168   6.748  0.4476 -0.1091 -0.1236
 1079YOPC   D2A12402   0.023   2.878   6.986  0.2571  0.0663  0.0055
 1079YOPC   C3A12403   0.017   3.043   7.413  0.2097  0.1050  0.2186
 1079YOPC   C4A12404   0.031   2.902   7.751  0.0542  0.0808 -0.2000
 1079YOPC   C1B12405  -0.175   3.637   6.972 -0.0688 -0.3507  0.0866
 1079YOPC   C2B12406   0.081   3.474   7.143 -0.0305  0.2273 -0.0703
 1079YOPC   D3B12407   0.288   3.453   7.452 -0.1703 -0.0737 -0.0769
 1079YOPC   C4B12408   0.671   3.201   7.508 -0.0987  0.0107 -0.4062
 1080YOPC   NC312409   3.664   3.412   6.048 -0.0133 -0.0173  0.4170
 1080YOPC   PO412410   3.436   3.188   6.442  0.1248  0.0134 -0.2065
 1080YOPC   GL112411   3.391   3.414   6.768 -0.2477  0.1163 -0.0484
 1080YOPC   GL212412   3.563   3.651   6.903  0.2855 -0.1442  0.1877
 1080YOPC   C1A12413   3.252   3.420   7.266 -0.0631 -0.0480  0.0798
 1080YOPC   D2A12414   3.196   3.431   7.758 -0.3414  0.0443 -0.0095
 1080YOPC   C3A12415   3.506   3.654   7.873  0.0741 -0.0322  0.2948
 1080YOPC   C4A12416   3.965   3.760   8.011 -0.2405  0.1059  0.2363
 1080YOPC   C1B12417   3.528   3.834   7.385  0.0535 -0.0545 -0.1520
 1080YOPC   C2B12418   3.511   4.124   7.705  0.2229 -0.0737  0.1221
 1080YOPC   D3B12419   3.504   4.078   8.146  0.1293 -0.2871 -0.0204
 1080YOPC   C4B12420   3.367   4.014   8.503 -0.0976  0.2533  0.1086
 1081YOPC   NC312421   4.099   5.452   5.674  0.1428  0.3112 -0.1813
 1081YOPC   PO412422   4.567   5.408   5.751  0.1616 -0.0325 -0.1418
 1081YOPC   GL112423   4.734   5.560   6.137 -0.2686  0.1591 -0.3007
 1081YOPC   GL212424   4.446   5.506   6.340  0.2822  0.0854 -0.1896
 1081YOPC   C1A12425   4.840   5.577   6.611 -0.5102 -0.0013 -0.0581
 1081YOPC   D2A12426   4.696   5.766   6.890  0.0477  0.0238  0.0711
 1081YOPC   C3A12427   4.621   5.699   7.339  0.0241  0.1715 -0.0085
 1081YOPC   C4A12428   4.597   5.516   7.733 -0.1375 -0.0269 -0.1227
 1081YOPC   C1B12429   4.241   5.638   6.692  0.0085  0.1395  0.0839
 1081YOPC   C2B12430   4.154   5.637   7.163 -0.0343  0.1218  0.1618
 1081YOPC   D3B12431   4.106   5.372   7.587  0.2048  0.1123 -0.1287
 1081YOPC   C4B12432   4.263   5.172   7.910  0.0464 -0.1665 -0.2000
 1082YOPC   NC312433  14.674   2.507   5.884  0.1209 -0.0521  0.0576
 1082YOPC   PO412434  14.585   2.131   5.939 -0.1118  0.2297 -0.0732
 1082YOPC   GL112435  14.772   2.067   6.378 -0.0020 -0.1459 -0.2046
 1082YOPC   GL212436  15.048   2.156   6.528  0.1502 -0.2890 -0.2439
 1082YOPC   C1A12437  14.701   2.330   6.825 -0.1338 -0.2240  0.0520
 1082YOPC   D2A12438  15.086   2.582   6.952  0.3793 -0.3441  0.0543
 1082YOPC   C3A12439  15.158   2.609   7.367  0.0529 -0.0709 -0.3813
 1082YOPC   C4A12440  15.313   2.324   7.674 -0.3031  0.0932  0.2569
 1082YOPC   C1B12441  15.141   2.103   7.042 -0.0392 -0.3559 -0.0422
 1082YOPC   C2B12442  15.438   2.225   7.208 -0.0482  0.2307 -0.1697
 1082YOPC   D3B12443  15.718   2.061   7.568  0.1009  0.0343  0.1827
 1082YOPC   C4B12444  15.831   2.009   7.990  0.0473  0.1261 -0.2083
 1083YOPC   NC312445  11.409   3.623   5.910  0.3716 -0.0693  0.1115
 1083YOPC   PO412446  11.223   3.251   5.861 -0.0518 -0.2294  0.0705
 1083YOPC   GL112447  11.364   3.235   6.300 -0.1997  0.2086 -0.0019
 1083YOPC   GL212448  11.220   2.907   6.467  0.2733  0.5615 -0.0483
 1083YOPC   C1A12449  11.356   3.332   6.775 -0.1779  0.3043  0.2012
 1083YOPC   D2A12450  11.545   3.288   7.167 -0.1730  0.0433  0.3385
 1083YOPC   C3A12451  11.707   3.140   7.559  0.0478 -0.2078 -0.0207
 1083YOPC   C4A12452  11.847   3.106   7.998  0.0593 -0.0881 -0.0105
 1083YOPC   C1B12453  11.481   2.828   6.810  0.2872 -0.0047  0.1226
 1083YOPC   C2B12454  11.651   2.785   7.214 -0.1531 -0.1415  0.1485
 1083YOPC   D3B12455  12.030   2.797   7.414  0.1609 -0.0571 -0.2767
 1083YOPC   C4B12456  12.289   2.896   7.723  0.1595  0.1208 -0.0083
 1084YOPC   NC312457  14.073   5.768   5.151 -0.0054  0.0738  0.3604
 1084YOPC   PO412458  14.271   5.950   5.460  0.1863  0.0135 -0.0378
 1084YOPC   GL112459  14.182   6.046   5.820  0.4417 -0.0467 -0.0883
 1084YOPC   GL212460  14.343   5.931   5.977  0.1932  0.0333 -0.0827
 1084YOPC   C1A12461  13.809   6.099   6.127 -0.0421 -0.1035 -0.0870
 1084YOPC   D2A12462  13.367   6.129   5.965 -0.1518 -0.1530  0.1180
 1084YOPC   C3A12463  13.128   6.387   6.213 -0.0075 -0.3259  0.2562
 1084YOPC   C4A12464  13.102   6.739   6.335  0.1944 -0.3624 -0.3414
 1084YOPC   C1B12465  14.285   5.535   6.203  0.1224  0.2786  0.2676
 1084YOPC   C2B12466  14.509   5.074   6.310  0.0680  0.1731  0.2284
 1084YOPC   D3B12467  14.648   4.658   6.420 -0.5454 -0.0058  0.2067
 1084YOPC   C4B12468  14.622   4.307   6.569 -0.1569  0.2947  0.3030
 1085YOPC   NC312469   8.154   7.189   6.063 -0.0128  0.0607 -0.0375
 1085YOPC   PO412470   7.920   7.553   6.140 -0.1088 -0.1680 -0.1387
 1085YOPC   GL112471   7.774   7.646   6.531 -0.0533  0.2318  0.1168
 1085YOPC   GL212472   7.714   7.954   6.600 -0.1842  0.2629  0.0830
 1085YOPC   C1A12473   7.496   7.490   6.918 -0.2069  0.1978  0.2294
 1085YOPC   D2A12474   7.451   7.318   7.257  0.1874 -0.0030  0.0071
 1085YOPC   C3A12475   7.302   7.477   7.679 -0.4812  0.1858 -0.3878
 1085YOPC   C4A12476   7.015   7.677   7.896  0.0229 -0.1088 -0.2160
 1085YOPC   C1B12477   8.059   8.188   6.828  0.0207  0.0495  0.0835
 1085YOPC   C2B12478   8.367   7.995   7.133  0.1261 -0.2979 -0.0382
 1085YOPC   D3B12479   8.290   7.989   7.532 -0.0325 -0.0373 -0.0278
 1085YOPC   C4B12480   8.386   8.070   7.860 -0.1523  0.0821 -0.1360
 1086YOPC   NC312481   2.945  13.796   6.373 -0.0523 -0.0054  0.1651
 1086YOPC   PO412482   3.261  14.072   6.217 -0.1013 -0.0051 -0.0309
 1086YOPC   GL112483   3.358  13.993   6.659  0.1453  0.0026  0.1765
 1086YOPC   GL212484   3.128  14.027   6.786 -0.0830 -0.1239  0.0150
 1086YOPC   C1A12485   3.600  13.646   6.893 -0.3273 -0.1326 -0.0499
 1086YOPC   D2A12486   3.837  13.548   7.205 -0.3225  0.0487  0.2159
 1086YOPC   C3A12487   4.223  13.688   7.392 -0.3293 -0.0596 -0.1036
 1086YOPC   C4A12488   4.530  13.925   7.538  0.2289 -0.0428 -0.1653
 1086YOPC   C1B12489   3.199  13.877   7.127 -0.0242 -0.0759 -0.0289
 1086YOPC   C2B12490   3.305  13.773   7.582 -0.1175 -0.3181 -0.0333
 1086YOPC   D3B12491   3.260  13.747   8.041  0.2107  0.1237 -0.3274
 1086YOPC   C4B12492   2.865  13.613   8.269  0.2008  0.1655 -0.7760
 1087YOPC   NC312493  10.641  13.141   5.762  0.1161 -0.3046  0.2332
 1087YOPC   PO412494  10.210  13.139   6.016  0.0904  0.3670  0.0807
 1087YOPC   GL112495  10.209  13.284   6.474  0.1116 -0.0917 -0.0615
 1087YOPC   GL212496  10.285  13.091   6.637  0.0057 -0.2687  0.0583
 1087YOPC   C1A12497  10.120  13.673   6.736 -0.5539  0.0968 -0.1145
 1087YOPC   D2A12498  10.130  14.015   6.816  0.1626 -0.1768  0.0214
 1087YOPC   C3A12499  10.202  14.305   7.171  0.2050  0.2596 -0.1730
 1087YOPC   C4A12500  10.600  14.362   7.305 -0.4204  0.1131  0.0024
 1087YOPC   C1B12501  10.380  13.211   6.984  0.3740 -0.1130 -0.1445
 1087YOPC   C2B12502  10.509  13.139   7.411  0.0859  0.0316  0.0515
 1087YOPC   D3B12503  10.341  12.966   7.826 -0.3648  0.0949 -0.0714
 1087YOPC   C4B12504  10.265  13.207   8.197 -0.0424  0.0391  0.1378
 1088YOPC   NC312505   3.649  16.565   6.307 -0.3394 -0.2539 -0.1582
 1088YOPC   PO412506   3.876  16.353   6.605 -0.3669 -0.1654 -0.1227
 1088YOPC   GL112507   3.713  16.086   6.857  0.0494 -0.1922  0.0859
 1088YOPC   GL212508   3.427  15.994   6.810 -0.2868 -0.1720  0.1447
 1088YOPC   C1A12509   3.856  16.218   7.273  0.0041 -0.1252 -0.0467
 1088YOPC   D2A12510   4.094  16.113   7.709  0.2712  0.0229  0.0152
 1088YOPC   C3A12511   4.395  15.886   7.993  0.1643  0.2040 -0.0564
 1088YOPC   C4A12512   4.544  15.760   8.342 -0.1007 -0.2975  0.0049
 1088YOPC   C1B12513   3.346  16.039   7.211 -0.0531 -0.2647 -0.1164
 1088YOPC   C2B12514   3.336  16.299   7.573  0.1518 -0.2382 -0.2978
 1088YOPC   D3B12515   3.615  16.294   7.868  0.0393  0.1304 -0.3889
 1088YOPC   C4B12516   4.005  16.298   8.149  0.0896 -0.0533  0.0830
 1089YOPC   NC312517   3.546   9.480   5.817  0.3070 -0.2646 -0.0382
 1089YOPC   PO412518   3.864   9.257   5.966 -0.1569  0.2206  0.2446
 1089YOPC   GL112519   3.681   9.124   6.253 -0.2098  0.0895  0.0090
 1089YOPC   GL212520   3.534   9.410   6.334 -0.0349  0.1839  0.0758
 1089YOPC   C1A12521   3.467   8.875   6.671 -0.5230 -0.0550 -0.1435
 1089YOPC   D2A12522   3.459   8.634   7.076 -0.1120 -0.0515  0.4556
 1089YOPC   C3A12523   3.343   8.533   7.537 -0.0273 -0.1840 -0.2234
 1089YOPC   C4A12524   3.438   8.253   7.847  0.1002  0.0859 -0.0558
 1089YOPC   C1B12525   3.485   9.404   6.788 -0.0287 -0.3241  0.0570
 1089YOPC   C2B12526   3.287   9.127   7.060 -0.1424 -0.1386  0.2190
 1089YOPC   D3B12527   3.397   9.021   7.462 -0.0973 -0.2660 -0.1569
 1089YOPC   C4B12528   3.529   8.818   7.921  0.0971  0.0133 -0.1439
 1090YOPC   NC312529   4.219   8.400   5.854 -0.1375 -0.3346  0.2203
 1090YOPC   PO412530   4.008   8.645   6.125  0.0712  0.2141  0.0087
 1090YOPC   GL112531   3.947   8.571   6.499  0.0189  0.2099 -0.1644
 1090YOPC   GL212532   3.688   8.383   6.492 -0.1474  0.3082 -0.0725
 1090YOPC   C1A12533   4.148   8.594   6.852  0.0490 -0.2948  0.1726
 1090YOPC   D2A12534   4.101   8.595   7.206 -0.3057 -0.1553 -0.2702
 1090YOPC   C3A12535   3.834   8.592   7.558  0.1382 -0.0178  0.2251
 1090YOPC   C4A12536   3.925   8.477   7.998  0.2817 -0.0108  0.0644
 1090YOPC   C1B12537   3.810   8.163   6.741  0.0245 -0.0261  0.1409
 1090YOPC   C2B12538   3.824   8.131   7.177 -0.2459  0.0540  0.0313
 1090YOPC   D3B12539   3.723   7.858   7.550 -0.4176  0.0520 -0.1068
 1090YOPC   C4B12540   3.814   7.797   8.013  0.2255 -0.1522 -0.1992
 1091YOPC   NC312541  18.304  12.786   6.182 -0.1037 -0.0288 -0.1429
 1091YOPC   PO412542  18.551  12.939   6.449 -0.0918  0.1167 -0.1224
 1091YOPC   GL112543  18.554  12.850   6.825  0.4680 -0.2567  0.0026
 1091YOPC   GL212544  18.324  12.655   6.914 -0.1873 -0.4263 -0.3026
 1091YOPC   C1A12545  18.718  12.777   7.260 -0.1456  0.5476 -0.0327
 1091YOPC   D2A12546  18.546  12.861   7.717 -0.1365 -0.2632  0.4104
 1091YOPC   C3A12547  18.716  12.826   8.084  0.0720 -0.2790  0.2215
 1091YOPC   C4A12548  18.856  12.707   8.443  0.0416  0.0105 -0.5531
 1091YOPC   C1B12549  18.252  12.736   7.344 -0.3834  0.0336 -0.1274
 1091YOPC   C2B12550  18.051  12.550   7.622  0.3661 -0.1819  0.0767
 1091YOPC   D3B12551  18.194  12.474   8.036  0.0425 -0.0629 -0.1912
 1091YOPC   C4B12552  18.557  12.342   8.215 -0.2633  0.1695  0.2684
 1092YOPC   NC312553   7.060  15.946   5.599 -0.0107 -0.2233  0.0947
 1092YOPC   PO412554   6.985  15.723   5.931 -0.3601  0.1051 -0.0851
 1092YOPC   GL112555   7.190  15.575   6.239  0.0016 -0.0802  0.1358
 1092YOPC   GL212556   7.376  15.377   6.048 -0.4149 -0.0162 -0.0056
 1092YOPC   C1A12557   7.134  15.509   6.621 -0.0644 -0.0119 -0.2855
 1092YOPC   D2A12558   7.438  15.553   6.949 -0.0423 -0.0657  0.0505
 1092YOPC   C3A12559   7.357  15.568   7.389  0.4517  0.1535  0.2236
 1092YOPC   C4A12560   7.189  15.803   7.727  0.0210  0.0420 -0.0206
 1092YOPC   C1B12561   7.655  15.439   6.486 -0.1155 -0.0378  0.0043
 1092YOPC   C2B12562   7.908  15.380   6.814  0.5356  0.1749  0.1559
 1092YOPC   D3B12563   7.808  15.491   7.291 -0.1807  0.3904 -0.0025
 1092YOPC   C4B12564   7.742  15.453   7.772 -0.1706  0.0363  0.3017
 1093YOPC   NC312565  12.347   3.766   6.213 -0.0299  0.1890 -0.3281
 1093YOPC   PO412566  12.064   4.145   6.353 -0.0215 -0.1500  0.0559
 1093YOPC   GL112567  12.040   3.949   6.688  0.1119  0.5181 -0.0258
 1093YOPC   GL212568  12.422   4.001   6.688  0.0433  0.2266  0.0676
 1093YOPC   C1A12569  11.716   3.760   6.847 -0.1836  0.2423  0.0256
 1093YOPC   D2A12570  11.584   3.780   7.144  0.2394 -0.0713 -0.0602
 1093YOPC   C3A12571  11.619   3.679   7.572 -0.1949  0.1436  0.0899
 1093YOPC   C4A12572  11.330   3.395   7.783  0.0236 -0.0993  0.1112
 1093YOPC   C1B12573  12.403   3.766   7.076  0.2811 -0.3102  0.3432
 1093YOPC   C2B12574  12.543   3.788   7.520  0.0179 -0.2741 -0.0494
 1093YOPC   D3B12575  12.958   3.701   7.631  0.0895  0.1076  0.0371
 1093YOPC   C4B12576  13.173   3.552   7.963  0.0748  0.0589  0.0601
 1094YOPC   NC312577  15.157   1.037   6.028  0.0019  0.0803 -0.1809
 1094YOPC   PO412578  15.078   0.726   6.354  0.2235 -0.2397  0.1030
 1094YOPC   GL112579  14.851   0.787   6.709  0.0123  0.1903  0.1510
 1094YOPC   GL212580  14.818   0.497   6.777  0.1729 -0.1972 -0.2078
 1094YOPC   C1A12581  14.759   0.822   7.102  0.1948 -0.1040  0.2861
 1094YOPC   D2A12582  14.695   0.736   7.572  0.0846  0.3137  0.2086
 1094YOPC   C3A12583  14.490   0.704   7.899 -0.1859 -0.1470  0.3437
 1094YOPC   C4A12584  14.213   0.764   8.240  0.0582 -0.2458 -0.0651
 1094YOPC   C1B12585  14.748   0.317   7.274  0.3281 -0.0479 -0.1976
 1094YOPC   C2B12586  14.707   0.256   7.627 -0.1156  0.1276  0.4175
 1094YOPC   D3B12587  14.978   0.435   7.850  0.0558 -0.0597 -0.3160
 1094YOPC   C4B12588  14.829   0.550   8.289 -0.1258 -0.0557  0.0360
 1095YOPC   NC312589  16.075  12.118   6.264  0.0054  0.0486 -0.4784
 1095YOPC   PO412590  16.179  11.697   6.374  0.2956 -0.0015  0.0650
 1095YOPC   GL112591  16.044  11.698   6.810  0.0031 -0.1014 -0.0491
 1095YOPC   GL212592  15.976  11.402   6.799 -0.1781  0.2729 -0.0946
 1095YOPC   C1A12593  16.254  11.571   7.224  0.0690 -0.0163 -0.0341
 1095YOPC   D2A12594  16.458  11.713   7.564  0.0623  0.2113  0.0880
 1095YOPC   C3A12595  16.411  11.917   7.938 -0.0885  0.1906 -0.3887
 1095YOPC   C4A12596  16.416  12.076   8.401 -0.2302 -0.1919 -0.1846
 1095YOPC   C1B12597  15.789  11.424   7.188 -0.1160 -0.0753 -0.0794
 1095YOPC   C2B12598  15.801  11.398   7.693 -0.0865 -0.0894  0.2161
 1095YOPC   D3B12599  15.479  11.234   7.936  0.0244  0.1681  0.1916
 1095YOPC   C4B12600  15.351  11.059   8.307  0.0777 -0.3253  0.1207
 1096YOPC   NC312601   9.429  12.772   6.236  0.1345 -0.2607  0.1429
 1096YOPC   PO412602   8.984  12.535   6.121 -0.0742  0.0315  0.0916
 1096YOPC   GL112603   9.105  12.479   6.534  0.1603 -0.1130 -0.1420
 1096YOPC   GL212604   9.138  12.758   6.678 -0.2590  0.2311  0.0176
 1096YOPC   C1A12605   9.204  12.228   6.974  0.2782  0.2684 -0.1938
 1096YOPC   D2A12606   9.090  12.226   7.423  0.2727  0.1844  0.1157
 1096YOPC   C3A12607   9.306  12.159   7.798 -0.0118 -0.2134 -0.0740
 1096YOPC   C4A12608   9.670  11.906   8.100  0.1044  0.0890 -0.3774
 1096YOPC   C1B12609   8.756  12.701   6.977 -0.2414 -0.0258 -0.2818
 1096YOPC   C2B12610   8.840  12.650   7.454  0.2753 -0.1702 -0.2216
 1096YOPC   D3B12611   8.503  12.640   7.855  0.2230  0.0433 -0.1990
 1096YOPC   C4B12612   8.122  12.714   8.099 -0.2221 -0.2232 -0.2175
 1097YOPC   NC312613  12.011  15.775   6.132 -0.2532  0.1406  0.1066
 1097YOPC   PO412614  12.341  16.034   6.179  0.0472  0.1994  0.0003
 1097YOPC   GL112615  12.380  16.019   6.640 -0.2327  0.0588 -0.0945
 1097YOPC   GL212616  12.632  16.005   6.690  0.1135  0.2240  0.0043
 1097YOPC   C1A12617  12.379  15.870   7.082 -0.0611  0.0903 -0.1135
 1097YOPC   D2A12618  12.243  15.852   7.537  0.0529  0.0928  0.1196
 1097YOPC   C3A12619  11.874  16.030   7.639  0.2854  0.2724  0.1689
 1097YOPC   C4A12620  11.583  15.834   7.897  0.0230  0.0550 -0.1952
 1097YOPC   C1B12621  12.829  15.676   6.984 -0.1324  0.0559 -0.0789
 1097YOPC   C2B12622  13.194  15.727   7.261  0.2954  0.1288  0.1266
 1097YOPC   D3B12623  13.118  15.566   7.678  0.1151 -0.0654 -0.1350
 1097YOPC   C4B12624  13.006  15.529   8.040  0.2627  0.0272 -0.2698
 1098YOPC   NC312625  10.731   4.355   6.036 -0.0487 -0.0051  0.2799
 1098YOPC   PO412626  10.325   4.329   5.719 -0.1582 -0.5260  0.0312
 1098YOPC   GL112627  10.271   4.012   6.047  0.1146  0.1660  0.0978
 1098YOPC   GL212628  10.589   3.977   6.222  0.1653  0.0861  0.0428
 1098YOPC   C1A12629  10.076   4.044   6.499 -0.2951 -0.2858 -0.2668
 1098YOPC   D2A12630  10.134   4.222   6.952 -0.2007  0.2649 -0.0678
 1098YOPC   C3A12631  10.221   4.036   7.314 -0.0823 -0.2657  0.1479
 1098YOPC   C4A12632   9.918   4.175   7.623 -0.0737 -0.0979  0.2139
 1098YOPC   C1B12633  10.577   4.136   6.682 -0.2639 -0.0365  0.1553
 1098YOPC   C2B12634  10.700   3.918   7.034  0.1111  0.1928  0.3091
 1098YOPC   D3B12635  10.568   3.634   7.326  0.0629 -0.1837  0.0898
 1098YOPC   C4B12636  10.717   3.718   7.807 -0.1597 -0.1532  0.1428
 1099YOPC   NC312637  17.003   4.432   6.144 -0.1211  0.0739 -0.1005
 1099YOPC   PO412638  17.350   4.346   6.574 -0.0066  0.0757  0.2300
 1099YOPC   GL112639  17.163   4.067   6.911  0.3035 -0.0096  0.0036
 1099YOPC   GL212640  17.193   3.651   6.890  0.1623  0.0072 -0.4659
 1099YOPC   C1A12641  17.043   4.264   7.352 -0.0761  0.0224 -0.0304
 1099YOPC   D2A12642  17.246   4.347   7.679 -0.0525 -0.0502  0.1504
 1099YOPC   C3A12643  17.024   4.399   8.150 -0.1122 -0.1304 -0.0572
 1099YOPC   C4A12644  17.180   4.412   8.519  0.1489  0.0223  0.3321
 1099YOPC   C1B12645  17.244   3.781   7.311  0.3777  0.0977 -0.3150
 1099YOPC   C2B12646  17.551   3.938   7.703  0.3011 -0.0370  0.1355
 1099YOPC   D3B12647  17.833   4.246   7.758 -0.0979  0.3192 -0.4135
 1099YOPC   C4B12648  18.233   4.480   7.751  0.1224 -0.1330 -0.2075
 1100YOPC   NC312649  11.773  12.402   6.485 -0.1296 -0.0692  0.1443
 1100YOPC   PO412650  12.100  12.257   6.622  0.2775 -0.1701  0.1173
 1100YOPC   GL112651  12.175  12.280   7.014 -0.2600  0.3496 -0.0293
 1100YOPC   GL212652  12.303  12.566   7.131  0.2722 -0.0883 -0.2280
 1100YOPC   C1A12653  12.014  12.163   7.398  0.1932  0.0745  0.4289
 1100YOPC   D2A12654  11.951  11.746   7.646 -0.2606 -0.2356 -0.1267
 1100YOPC   C3A12655  11.665  11.728   7.910  0.0872 -0.0985  0.4214
 1100YOPC   C4A12656  11.545  11.750   8.207 -0.1869  0.1647 -0.1950
 1100YOPC   C1B12657  11.876  12.648   7.301 -0.1035 -0.2870 -0.5775
 1100YOPC   C2B12658  11.502  12.518   7.580  0.0531 -0.4289  0.1628
 1100YOPC   D3B12659  11.691  12.192   7.808  0.1723 -0.0108  0.4387
 1100YOPC   C4B12660  12.055  12.069   8.000 -0.0352 -0.0208  0.1891
 1101YOPC   NC312661  13.206   9.073   5.501 -0.0772 -0.2665 -0.1593
 1101YOPC   PO412662  13.291   9.325   5.807 -0.0661 -0.0963 -0.1267
 1101YOPC   GL112663  13.088   9.446   6.159 -0.0374  0.1109  0.2315
 1101YOPC   GL212664  13.099   9.755   6.367 -0.0434 -0.0350  0.2833
 1101YOPC   C1A12665  12.649   9.368   6.382 -0.0876 -0.0784 -0.2742
 1101YOPC   D2A12666  12.521   9.457   6.851 -0.0916  0.6253  0.1427
 1101YOPC   C3A12667  12.333   9.216   7.197  0.0227 -0.2293  0.1152
 1101YOPC   C4A12668  12.263   9.128   7.646 -0.2256 -0.1185 -0.1524
 1101YOPC   C1B12669  13.016   9.613   6.778 -0.1598 -0.1342 -0.0809
 1101YOPC   C2B12670  12.951   9.427   7.179 -0.1740  0.1105 -0.3505
 1101YOPC   D3B12671  12.779   9.296   7.615  0.1184 -0.0092  0.0864
 1101YOPC   C4B12672  12.670   9.365   8.054 -0.3460  0.0218  0.0184
 1102YOPC   NC312673  12.194   8.877   5.641 -0.2462 -0.0163  0.1002
 1102YOPC   PO412674  11.923   9.139   5.395 -0.1146  0.0915  0.1244
 1102YOPC   GL112675  11.976   9.212   5.935 -0.0487 -0.1717 -0.1241
 1102YOPC   GL212676  11.974   9.459   6.090  0.0922  0.0878 -0.0309
 1102YOPC   C1A12677  12.157   8.943   6.250 -0.0571 -0.4216  0.0097
 1102YOPC   D2A12678  12.213   9.062   6.710 -0.1482  0.2142  0.2567
 1102YOPC   C3A12679  12.508   8.945   6.846  0.2781  0.0947  0.0094
 1102YOPC   C4A12680  12.819   8.807   7.223  0.2268  0.1952 -0.4724
 1102YOPC   C1B12681  12.205   9.521   6.457 -0.0021  0.2433 -0.1572
 1102YOPC   C2B12682  12.155   9.796   6.823  0.3266  0.0999 -0.0735
 1102YOPC   D3B12683  12.163   9.676   7.329 -0.2027  0.2728 -0.1176
 1102YOPC   C4B12684  12.454   9.603   7.678  0.2480 -0.2241  0.0771
 1103YOPC   NC312685   5.916  12.152   6.072 -0.0527  0.2084  0.2313
 1103YOPC   PO412686   5.832  12.491   6.296 -0.1073  0.1603 -0.0303
 1103YOPC   GL112687   6.188  12.483   6.688  0.0950 -0.1826  0.1962
 1103YOPC   GL212688   6.233  12.476   7.001 -0.1136  0.1149 -0.0738
 1103YOPC   C1A12689   6.308  12.013   6.901 -0.0283  0.0960  0.1050
 1103YOPC   D2A12690   6.277  11.859   7.331 -0.1133 -0.0582 -0.0024
 1103YOPC   C3A12691   6.544  12.143   7.758  0.2464  0.0877 -0.0009
 1103YOPC   C4A12692   6.778  12.345   8.047  0.0098 -0.2744  0.0676
 1103YOPC   C1B12693   6.245  12.353   7.389  0.0255  0.2165  0.1155
 1103YOPC   C2B12694   6.034  12.078   7.744 -0.3628  0.2989  0.3435
 1103YOPC   D3B12695   6.029  11.806   8.172  0.0951  0.2070 -0.2456
 1103YOPC   C4B12696   5.939  11.493   8.365  0.2153 -0.2702 -0.0023
 1104YOPC   NC312697   9.359   7.478   6.182  0.0437  0.0659 -0.0310
 1104YOPC   PO412698   9.652   7.201   6.203 -0.2062 -0.2505 -0.2720
 1104YOPC   GL112699   9.551   7.202   6.595  0.1975 -0.0979  0.2413
 1104YOPC   GL212700   9.671   6.814   6.658 -0.0833 -0.1490 -0.1727
 1104YOPC   C1A12701   9.619   7.119   7.030 -0.0119  0.2787 -0.1813
 1104YOPC   D2A12702   9.707   6.788   7.299  0.0023  0.0516  0.0278
 1104YOPC   C3A12703   9.459   6.571   7.501  0.3696  0.1233 -0.2206
 1104YOPC   C4A12704   9.221   6.490   7.934 -0.0199  0.3297  0.1127
 1104YOPC   C1B12705   9.446   6.527   6.944 -0.0523  0.3128  0.2373
 1104YOPC   C2B12706   9.283   6.211   7.187  0.2347  0.3126 -0.0360
 1104YOPC   D3B12707   9.094   6.140   7.585 -0.2167  0.0211 -0.1465
 1104YOPC   C4B12708   8.764   5.926   7.826 -0.1598  0.1734 -0.2103
 1105YOPC   NC312709   3.256  10.339   5.861  0.0820  0.2110  0.0381
 1105YOPC   PO412710   3.444   9.934   6.132 -0.1880  0.1419 -0.1925
 1105YOPC   GL112711   3.446  10.111   6.477 -0.1314  0.4436  0.1382
 1105YOPC   GL212712   3.266  10.334   6.411 -0.1896 -0.0156  0.0462
 1105YOPC   C1A12713   3.310  10.048   6.834 -0.2100  0.0217 -0.4740
 1105YOPC   D2A12714   3.027  10.186   7.190 -0.0077 -0.1109  0.3017
 1105YOPC   C3A12715   2.829   9.949   7.482  0.1170  0.2170  0.4064
 1105YOPC   C4A12716   2.935   9.637   7.819  0.2102 -0.3678  0.0324
 1105YOPC   C1B12717   3.553  10.583   6.690  0.0092 -0.2941 -0.1060
 1105YOPC   C2B12718   3.751  10.792   6.898 -0.1247 -0.0357 -0.0528
 1105YOPC   D3B12719   3.871  11.204   6.967 -0.2502  0.1116 -0.1475
 1105YOPC   C4B12720   3.803  11.530   7.205  0.0836  0.2370  0.2012
 1106YOPC   NC312721  16.358  11.709   5.875 -0.1057 -0.1688  0.1540
 1106YOPC   PO412722  16.398  11.369   6.028  0.0387  0.0544  0.1699
 1106YOPC   GL112723  16.484  11.238   6.470  0.1318 -0.1026  0.0509
 1106YOPC   GL212724  16.296  11.023   6.586 -0.0186  0.0985 -0.1981
 1106YOPC   C1A12725  16.698  11.237   6.851  0.0067 -0.0789 -0.0107
 1106YOPC   D2A12726  16.657  11.302   7.337 -0.0469  0.2541  0.2971
 1106YOPC   C3A12727  16.930  10.992   7.653  0.1462 -0.4237  0.1755
 1106YOPC   C4A12728  17.010  10.859   8.044 -0.0033  0.1826  0.1263
 1106YOPC   C1B12729  16.281  11.045   6.971 -0.2624  0.0319  0.1146
 1106YOPC   C2B12730  16.241  11.034   7.470  0.1311  0.1348 -0.2554
 1106YOPC   D3B12731  16.343  11.352   7.843  0.0895  0.0168  0.2419
 1106YOPC   C4B12732  16.658  11.289   8.097  0.0489  0.0472  0.0523
 1107YOPC   NC312733   7.788   3.055   5.701 -0.1259 -0.1857  0.1150
 1107YOPC   PO412734   7.942   2.644   5.749 -0.1487  0.0057  0.1436
 1107YOPC   GL112735   7.767   2.379   6.052  0.0796 -0.0076 -0.6288
 1107YOPC   GL212736   7.362   2.321   6.043  0.0520  0.0854  0.1430
 1107YOPC   C1A12737   7.875   2.507   6.597  0.0143  0.2799 -0.2739
 1107YOPC   D2A12738   7.844   2.887   6.881 -0.1588 -0.4041 -0.0232
 1107YOPC   C3A12739   8.079   2.727   7.192 -0.0751  0.3152 -0.1586
 1107YOPC   C4A12740   8.181   2.705   7.645 -0.0041 -0.2832  0.1904
 1107YOPC   C1B12741   7.386   2.488   6.439 -0.0658 -0.1497  0.0055
 1107YOPC   C2B12742   7.402   2.489   6.854 -0.0488 -0.3104 -0.0878
 1107YOPC   D3B12743   7.574   2.561   7.242  0.0150 -0.1586  0.1325
 1107YOPC   C4B12744   7.729   2.746   7.571 -0.0266  0.1812  0.1561
 1108YOPC   NC312745  10.848  11.344   5.759 -0.1662 -0.1927 -0.0953
 1108YOPC   PO412746  10.434  11.463   5.689  0.1543  0.2688 -0.0906
 1108YOPC   GL112747  10.277  11.194   6.049 -0.1439 -0.1017  0.1043
 1108YOPC   GL212748  10.672  11.137   6.140  0.0526 -0.1096 -0.0464
 1108YOPC   C1A12749  10.300  11.088   6.561 -0.1371 -0.0934  0.1199
 1108YOPC   D2A12750   9.983  11.145   6.855 -0.1851 -0.3011 -0.1032
 1108YOPC   C3A12751   9.980  11.118   7.311 -0.0527 -0.2271 -0.0468
 1108YOPC   C4A12752  10.207  10.776   7.409 -0.0951 -0.1960 -0.0959
 1108YOPC   C1B12753  10.796  11.120   6.492 -0.1199 -0.2162  0.0226
 1108YOPC   C2B12754  10.722  11.119   7.019 -0.1390 -0.3319  0.0391
 1108YOPC   D3B12755  10.386  11.375   7.175 -0.1310 -0.0452 -0.1432
 1108YOPC   C4B12756  10.308  11.280   7.649  0.1484 -0.1177  0.1922
 1109YOPC   NC312757   8.626  16.783   5.749 -0.1683 -0.4697  0.1347
 1109YOPC   PO412758   9.015  16.751   5.813  0.0447  0.0354 -0.0489
 1109YOPC   GL112759   8.900  16.825   6.205 -0.3062 -0.2257 -0.1683
 1109YOPC   GL212760   9.166  17.092   6.345  0.0408  0.1881 -0.0680
 1109YOPC   C1A12761   9.118  16.768   6.686 -0.1234 -0.0879  0.2328
 1109YOPC   D2A12762   9.378  16.656   6.943  0.1363  0.1492 -0.0405
 1109YOPC   C3A12763   9.262  16.622   7.338  0.0984 -0.0781 -0.1358
 1109YOPC   C4A12764   8.985  16.442   7.746 -0.1688  0.0075 -0.0538
 1109YOPC   C1B12765   9.130  17.547   6.576  0.0225  0.1596 -0.0015
 1109YOPC   C2B12766   9.114  17.624   7.016 -0.0323  0.1143  0.2119
 1109YOPC   D3B12767   9.411  17.688   7.274  0.1830 -0.0361  0.1857
 1109YOPC   C4B12768   9.615  17.649   7.687 -0.0668 -0.3173 -0.1579
 1110YOPC   NC312769  16.697   7.909   5.614 -0.0887  0.1069 -0.0804
 1110YOPC   PO412770  16.201   8.087   5.617 -0.2857  0.0001 -0.0894
 1110YOPC   GL112771  16.000   8.407   5.893 -0.2261 -0.2164 -0.0738
 1110YOPC   GL212772  15.662   8.448   5.705  0.0094  0.4334  0.0245
 1110YOPC   C1A12773  15.909   8.565   6.312 -0.1958 -0.0829 -0.2098
 1110YOPC   D2A12774  15.530   8.436   6.529  0.3094  0.1488  0.1527
 1110YOPC   C3A12775  15.105   8.263   6.550 -0.2882  0.0067 -0.0103
 1110YOPC   C4A12776  14.878   8.228   6.979 -0.2672 -0.1386 -0.1844
 1110YOPC   C1B12777  15.591   8.254   6.078  0.0982  0.3422 -0.3414
 1110YOPC   C2B12778  15.532   7.947   6.486  0.2467  0.1292  0.0872
 1110YOPC   D3B12779  15.155   7.762   6.483 -0.0503  0.0585  0.3011
 1110YOPC   C4B12780  14.776   7.724   6.678  0.1468 -0.0529 -0.2315
 1111YOPC   NC312781   7.579   2.007   5.684 -0.2475 -0.2706  0.5151
 1111YOPC   PO412782   7.220   1.750   5.843 -0.0048 -0.0449  0.2173
 1111YOPC   GL112783   7.477   1.805   6.177  0.0730 -0.3777  0.0662
 1111YOPC   GL212784   7.268   1.623   6.405  0.1921 -0.1953 -0.0057
 1111YOPC   C1A12785   7.714   1.979   6.528  0.1586 -0.3183  0.1846
 1111YOPC   D2A12786   7.670   2.028   6.919 -0.4779 -0.2276 -0.1067
 1111YOPC   C3A12787   7.974   2.252   7.026  0.2008 -0.1213 -0.1324
 1111YOPC   C4A12788   8.026   2.227   7.464 -0.0132  0.0540  0.0531
 1111YOPC   C1B12789   7.405   1.632   6.798  0.2057 -0.0867 -0.4538
 1111YOPC   C2B12790   7.615   1.539   7.134  0.2629 -0.0205 -0.3617
 1111YOPC   D3B12791   7.402   1.580   7.571 -0.1747  0.0450  0.1255
 1111YOPC   C4B12792   7.213   1.968   7.823 -0.0456  0.0313 -0.0899
 1112YOPC   NC312793   3.140   4.386   6.251  0.1744  0.0766  0.1144
 1112YOPC   PO412794   3.392   4.017   6.340  0.0778  0.0555 -0.3111
 1112YOPC   GL112795   3.655   4.126   6.672 -0.0975 -0.2693  0.1492
 1112YOPC   GL212796   3.865   4.407   6.548 -0.0373 -0.1829 -0.2148
 1112YOPC   C1A12797   3.922   3.997   7.024  0.0375  0.1470 -0.3794
 1112YOPC   D2A12798   3.984   3.984   7.499  0.1680  0.0683 -0.0873
 1112YOPC   C3A12799   4.033   4.270   7.836 -0.1942 -0.1425  0.0733
 1112YOPC   C4A12800   4.074   4.620   7.975 -0.1512  0.2918 -0.1409
 1112YOPC   C1B12801   3.958   4.770   6.843  0.0246 -0.1638  0.0734
 1112YOPC   C2B12802   3.906   5.013   7.205  0.1477 -0.1083 -0.1683
 1112YOPC   D3B12803   3.808   4.914   7.646 -0.0162 -0.1661 -0.1992
 1112YOPC   C4B12804   3.671   5.033   7.954  0.1773  0.0954 -0.3414
 1113YOPC   NC312805   6.652   1.737   6.082 -0.1059 -0.1065  0.0985
 1113YOPC   PO412806   6.523   2.193   6.100 -0.0997  0.0336  0.5378
 1113YOPC   GL112807   6.640   2.139   6.468  0.2450 -0.1144  0.1807
 1113YOPC   GL212808   6.995   2.053   6.275  0.0525  0.1398 -0.0028
 1113YOPC   C1A12809   6.774   2.107   6.887  0.4645 -0.0434 -0.2333
 1113YOPC   D2A12810   6.636   2.308   7.213  0.2832 -0.0198 -0.2789
 1113YOPC   C3A12811   7.022   2.363   7.503  0.1652  0.0106 -0.0668
 1113YOPC   C4A12812   7.309   2.602   7.830 -0.2737 -0.0239  0.1300
 1113YOPC   C1B12813   7.201   2.056   6.645 -0.1224 -0.2568 -0.0736
 1113YOPC   C2B12814   7.227   2.091   7.070  0.0025 -0.1314 -0.2791
 1113YOPC   D3B12815   7.517   2.031   7.397 -0.5659  0.1114 -0.3051
 1113YOPC   C4B12816   7.639   2.263   7.771  0.0269 -0.2183 -0.0278
 1114YOPC   NC312817   3.231   5.900   5.918  0.1573 -0.3047  0.1772
 1114YOPC   PO412818   3.586   5.711   5.848  0.1241  0.0410 -0.2768
 1114YOPC   GL112819   3.865   5.734   6.106  0.2655 -0.0268 -0.0853
 1114YOPC   GL212820   3.789   5.653   6.446 -0.1817 -0.0997 -0.0528
 1114YOPC   C1A12821   4.147   6.004   6.362 -0.2659 -0.2359  0.0064
 1114YOPC   D2A12822   4.384   6.198   6.794 -0.1066  0.0894  0.0254
 1114YOPC   C3A12823   4.336   6.119   7.189  0.1368  0.2724  0.1216
 1114YOPC   C4A12824   4.628   6.132   7.564  0.6649 -0.0214  0.0464
 1114YOPC   C1B12825   3.875   5.906   6.834  0.0195  0.0161  0.5273
 1114YOPC   C2B12826   3.740   6.094   7.196  0.0786  0.1106 -0.1297
 1114YOPC   D3B12827   3.848   5.856   7.534 -0.0277 -0.0673 -0.0055
 1114YOPC   C4B12828   4.196   5.816   7.803 -0.0526  0.0667 -0.5173
 1115YOPC   NC312829  13.128   0.854   5.787 -0.2751  0.2150  0.2448
 1115YOPC   PO412830  13.456   0.934   6.068 -0.1372  0.1356  0.1748
 1115YOPC   GL112831  13.335   0.846   6.462  0.0709 -0.0473 -0.1256
 1115YOPC   GL212832  13.418   0.585   6.527  0.1985  0.1852 -0.1232
 1115YOPC   C1A12833  13.269   0.922   6.910 -0.0098 -0.1119  0.0246
 1115YOPC   D2A12834  13.179   0.611   7.290 -0.1600  0.0509 -0.1815
 1115YOPC   C3A12835  13.297   0.098   7.330  0.1450 -0.0011  0.1252
 1115YOPC   C4A12836  13.093  -0.275   7.345 -0.0847  0.1673 -0.2309
 1115YOPC   C1B12837  13.510   0.323   6.876  0.2760 -0.0899  0.1704
 1115YOPC   C2B12838  13.777   0.320   7.322  0.4913 -0.2732  0.2339
 1115YOPC   D3B12839  13.586   0.476   7.697 -0.2384  0.0972  0.2103
 1115YOPC   C4B12840  13.355   0.752   7.873 -0.0900  0.1301 -0.2865
 1116YOPC   NC312841   0.989   2.057   6.145  0.0810 -0.2589  0.1030
 1116YOPC   PO412842   0.559   1.975   6.248  0.1172 -0.3534  0.2107
 1116YOPC   GL112843   0.500   2.326   6.511 -0.0933  0.1185 -0.0516
 1116YOPC   GL212844   0.833   2.445   6.492  0.2875  0.2171 -0.1845
 1116YOPC   C1A12845   0.181   2.434   6.870  0.0812  0.0724 -0.0911
 1116YOPC   D2A12846   0.045   2.279   7.162  0.1858  0.1502  0.0483
 1116YOPC   C3A12847  -0.134   2.555   7.394 -0.1528 -0.3108 -0.2633
 1116YOPC   C4A12848  -0.437   2.756   7.389  0.4724  0.1712  0.0467
 1116YOPC   C1B12849   0.699   2.510   6.956  0.2636 -0.1851 -0.1766
 1116YOPC   C2B12850   0.525   2.269   7.201  0.1756  0.1795 -0.0905
 1116YOPC   D3B12851   0.279   1.945   6.887  0.1472  0.2287 -0.1257
 1116YOPC   C4B12852  -0.180   1.849   6.824 -0.2241  0.0643  0.0644
 1117YOPC   NC312853   5.088   2.558   5.956 -0.1820 -0.1341  0.1681
 1117YOPC   PO412854   4.755   2.470   6.445 -0.1519  0.2731  0.1535
 1117YOPC   GL112855   4.664   2.567   6.854  0.3305  0.0673 -0.2685
 1117YOPC   GL212856   4.425   2.676   6.970 -0.1644  0.0369  0.1514
 1117YOPC   C1A12857   4.747   2.314   7.186  0.2898 -0.3554 -0.0899
 1117YOPC   D2A12858   4.753   2.315   7.700 -0.0020 -0.2468  0.0102
 1117YOPC   C3A12859   4.465   2.015   8.059  0.1509 -0.0899  0.0930
 1117YOPC   C4A12860   4.112   1.953   8.399 -0.1716  0.1481 -0.3175
 1117YOPC   C1B12861   4.544   2.660   7.436  0.1522  0.1119  0.0562
 1117YOPC   C2B12862   4.550   2.847   7.809 -0.0416  0.3575  0.1357
 1117YOPC   D3B12863   4.671   2.588   8.148  0.1364  0.1462 -0.2160
 1117YOPC   C4B12864   4.712   2.252   8.429  0.0146  0.0832  0.2621
 1118YOPC   NC312865  17.610   7.460   5.977 -0.1221  0.1593  0.0554
 1118YOPC   PO412866  18.038   7.552   6.104  0.1374  0.0109 -0.1536
 1118YOPC   GL112867  17.827   7.535   6.431  0.0401 -0.2128 -0.1827
 1118YOPC   GL212868  18.065   7.457   6.583 -0.1520 -0.1590 -0.1607
 1118YOPC   C1A12869  17.673   7.527   6.874 -0.1611 -0.0853 -0.0614
 1118YOPC   D2A12870  17.704   7.338   7.261  0.0680 -0.2331  0.1993
 1118YOPC   C3A12871  18.037   7.462   7.488  0.2101 -0.0950 -0.2496
 1118YOPC   C4A12872  18.248   7.596   7.769  0.2480 -0.1419 -0.1822
 1118YOPC   C1B12873  18.155   7.315   6.959 -0.1066  0.1551  0.3256
 1118YOPC   C2B12874  18.267   7.011   7.377 -0.1175 -0.3129 -0.0620
 1118YOPC   D3B12875  18.321   7.146   7.756  0.0938  0.4766  0.0859
 1118YOPC   C4B12876  18.295   7.296   8.131  0.0517  0.0902 -0.0016
 1119YOPC   NC312877   1.549  12.055   6.306 -0.0216 -0.1152 -0.2097
 1119YOPC   PO412878   1.290  11.631   6.212 -0.1563  0.0166  0.0749
 1119YOPC   GL112879   1.218  11.745   6.593  0.4239 -0.1977 -0.0294
 1119YOPC   GL212880   1.423  11.993   6.853 -0.1224 -0.1541 -0.2590
 1119YOPC   C1A12881   1.148  11.628   7.036 -0.2276 -0.1724 -0.2474
 1119YOPC   D2A12882   1.114  11.705   7.457 -0.1033 -0.0783 -0.1268
 1119YOPC   C3A12883   1.290  11.986   7.714  0.2143  0.0982 -0.0754
 1119YOPC   C4A12884   1.103  12.251   8.147  0.1280  0.0926 -0.1590
 1119YOPC   C1B12885   1.504  12.039   7.306 -0.2706  0.1607 -0.0439
 1119YOPC   C2B12886   1.706  12.356   7.485  0.2957 -0.0666 -0.1317
 1119YOPC   D3B12887   1.417  12.502   7.911 -0.1499  0.0286  0.2148
 1119YOPC   C4B12888   1.274  12.813   8.248  0.0665  0.0445  0.2139
 1120YOPC   NC312889  15.137   5.344   5.748 -0.0182  0.0537 -0.2412
 1120YOPC   PO412890  15.237   5.764   5.755 -0.1488  0.1384  0.1946
 1120YOPC   GL112891  15.379   6.011   6.165 -0.0977  0.1351 -0.0897
 1120YOPC   GL212892  15.655   6.091   6.212  0.2432 -0.0118  0.1531
 1120YOPC   C1A12893  15.495   6.056   6.632 -0.1544 -0.1342  0.1277
 1120YOPC   D2A12894  15.487   6.060   7.058 -0.0676 -0.3916  0.0924
 1120YOPC   C3A12895  15.254   6.188   7.343 -0.0646  0.0096  0.1681
 1120YOPC   C4A12896  14.953   6.469   7.533  0.1778  0.3184 -0.2763
 1120YOPC   C1B12897  15.987   6.138   6.541 -0.0258  0.0447 -0.0479
 1120YOPC   C2B12898  16.363   6.248   6.674 -0.0664 -0.0311 -0.0614
 1120YOPC   D3B12899  16.603   5.957   6.851 -0.0515  0.1957  0.0204
 1120YOPC   C4B12900  16.609   5.682   7.111  0.1172  0.1259 -0.2247
 1121YOPC   NC312901   6.772   5.854   5.890 -0.1694  0.2355 -0.0316
 1121YOPC   PO412902   6.335   5.766   6.082 -0.2249 -0.2405  0.0947
 1121YOPC   GL112903   6.490   5.723   6.461 -0.1914  0.2795  0.1060
 1121YOPC   GL212904   6.868   5.893   6.380 -0.1701 -0.2431  0.0803
 1121YOPC   C1A12905   6.732   5.465   6.728  0.2448 -0.1544 -0.3074
 1121YOPC   D2A12906   6.883   5.565   7.162 -0.0037 -0.2336  0.0452
 1121YOPC   C3A12907   6.691   5.804   7.511  0.0019 -0.2086  0.1908
 1121YOPC   C4A12908   6.368   5.868   7.744  0.0767 -0.0138 -0.2812
 1121YOPC   C1B12909   6.734   5.967   6.847 -0.1965  0.5757 -0.0509
 1121YOPC   C2B12910   6.704   6.315   7.058 -0.1292  0.0247  0.2105
 1121YOPC   D3B12911   6.533   6.275   7.512  0.0268 -0.1931  0.3913
 1121YOPC   C4B12912   6.288   6.454   7.814  0.1833  0.4331  0.0512
 1122YOPC   NC312913   9.976  18.030   6.023 -0.0678  0.0332 -0.0166
 1122YOPC   PO412914  10.371  18.246   5.933 -0.0172 -0.1641  0.1085
 1122YOPC   GL112915  10.320  18.085   6.358  0.1125 -0.1143 -0.2469
 1122YOPC   GL212916  10.565  17.803   6.337  0.0533  0.0026  0.2289
 1122YOPC   C1A12917  10.480  18.143   6.736  0.1335 -0.0984 -0.0627
 1122YOPC   D2A12918  10.323  18.140   7.180  0.3680 -0.2517  0.1068
 1122YOPC   C3A12919  10.227  18.204   7.557  0.3520 -0.0453 -0.0647
 1122YOPC   C4A12920  10.293  18.204   7.920  0.0911 -0.3145  0.0312
 1122YOPC   C1B12921  10.482  17.632   6.731 -0.1781  0.1369  0.1438
 1122YOPC   C2B12922  10.344  17.545   7.066 -0.0389  0.1157  0.0280
 1122YOPC   D3B12923  10.412  17.701   7.470 -0.2826  0.1624 -0.1500
 1122YOPC   C4B12924  10.105  17.751   7.830  0.0064  0.2742  0.2179
 1123YOPC   NC312925  15.475   9.805   5.890  0.1387 -0.2235  0.0092
 1123YOPC   PO412926  15.859   9.798   6.056 -0.0940 -0.0073  0.1938
 1123YOPC   GL112927  15.975   9.874   6.423  0.0401 -0.0954 -0.0439
 1123YOPC   GL212928  16.174  10.176   6.475 -0.3307 -0.0553 -0.0223
 1123YOPC   C1A12929  15.592   9.855   6.804  0.1250 -0.1713  0.0007
 1123YOPC   D2A12930  15.591   9.600   7.205  0.1334  0.3107 -0.1337
 1123YOPC   C3A12931  15.634   9.805   7.638 -0.3142 -0.2262 -0.1288
 1123YOPC   C4A12932  15.637  10.199   7.914  0.0699 -0.2395 -0.1136
 1123YOPC   C1B12933  16.389  10.345   6.824 -0.0337  0.1625 -0.1088
 1123YOPC   C2B12934  16.682  10.150   6.991 -0.0615 -0.2671 -0.0720
 1123YOPC   D3B12935  16.532   9.950   7.289 -0.0690 -0.0454 -0.1459
 1123YOPC   C4B12936  16.568   9.708   7.732 -0.1689 -0.0782  0.1213
 1124YOPC   NC312937  12.746   0.102   5.984  0.1790  0.1280  0.0869
 1124YOPC   PO412938  12.511   0.424   6.111  0.2505 -0.0589  0.0146
 1124YOPC   GL112939  12.501   0.696   6.513 -0.1144  0.2098 -0.1043
 1124YOPC   GL212940  12.827   0.637   6.723  0.1699 -0.1623 -0.1794
 1124YOPC   C1A12941  12.411   0.896   6.888 -0.0455 -0.1311  0.1586
 1124YOPC   D2A12942  12.189   1.138   7.218  0.1198  0.0247 -0.0403
 1124YOPC   C3A12943  12.253   0.834   7.537 -0.1026  0.0016  0.0279
 1124YOPC   C4A12944  12.435   0.723   7.928 -0.3258 -0.1706  0.0999
 1124YOPC   C1B12945  12.708   0.712   7.226  0.2005  0.1025  0.2279
 1124YOPC   C2B12946  12.966   0.464   7.678 -0.2007  0.1543 -0.3263
 1124YOPC   D3B12947  12.780   0.354   8.010  0.0154  0.0199  0.0765
 1124YOPC   C4B12948  12.531   0.220   8.375 -0.2642 -0.0302 -0.0328
 1125YOPC   NC312949   0.971  17.244   7.006 -0.0226 -0.2790  0.2617
 1125YOPC   PO412950   1.126  16.866   7.231  0.0880 -0.2316 -0.2182
 1125YOPC   GL112951   1.147  16.813   7.840 -0.2264  0.0474  0.0969
 1125YOPC   GL212952   1.139  16.495   7.930 -0.0870 -0.1362  0.2192
 1125YOPC   C1A12953   1.586  16.800   8.037  0.0435 -0.0621 -0.1957
 1125YOPC   D2A12954   2.012  16.885   8.330  0.1688 -0.0647 -0.0153
 1125YOPC   C3A12955   2.243  17.122   8.696 -0.0562 -0.2923  0.0954
 1125YOPC   C4A12956   2.610  17.259   8.970  0.4545 -0.2112 -0.2032
 1125YOPC   C1B12957   1.092  16.648   8.294 -0.1257  0.1795 -0.0257
 1125YOPC   C2B12958   1.323  16.726   8.548  0.1873 -0.0443 -0.1059
 1125YOPC   D3B12959   1.689  16.567   8.732 -0.0059 -0.5206  0.0054
 1125YOPC   C4B12960   2.108  16.545   8.812 -0.0183 -0.2464  0.1640
 1126YOPC   NC312961   2.680   4.326   6.521 -0.2498 -0.0572 -0.2994
 1126YOPC   PO412962   2.896   3.972   6.379  0.0071 -0.5211  0.3841
 1126YOPC   GL112963   3.037   3.805   6.658 -0.0935  0.1285  0.1634
 1126YOPC   GL212964   2.934   3.548   6.841 -0.1132 -0.1962 -0.0043
 1126YOPC   C1A12965   3.129   3.912   7.099  0.0294  0.0001 -0.3694
 1126YOPC   D2A12966   3.061   3.834   7.498  0.2735  0.0594 -0.2824
 1126YOPC   C3A12967   2.966   4.211   7.749 -0.2475  0.2699  0.0992
 1126YOPC   C4A12968   2.863   4.589   7.861  0.1505 -0.0659 -0.0168
 1126YOPC   C1B12969   2.737   3.543   7.237  0.1389 -0.1417 -0.2297
 1126YOPC   C2B12970   2.580   3.560   7.652 -0.1686  0.5142 -0.3830
 1126YOPC   D3B12971   2.559   3.783   7.881  0.0440  0.0649 -0.0933
 1126YOPC   C4B12972   3.040   3.824   8.027  0.1702  0.1124 -0.1424
 1127YOPC   NC312973   3.132   6.565   5.481  0.0435  0.0005  0.0721
 1127YOPC   PO412974   3.016   6.357   5.897  0.1540  0.0081  0.1197
 1127YOPC   GL112975   2.878   6.065   6.222  0.1669  0.1426 -0.0539
 1127YOPC   GL212976   2.677   6.054   6.422  0.3503  0.1291 -0.0655
 1127YOPC   C1A12977   2.941   5.595   6.391 -0.0053  0.1981 -0.0587
 1127YOPC   D2A12978   2.925   5.235   6.675  0.0345  0.2007 -0.3358
 1127YOPC   C3A12979   3.046   5.477   7.018  0.2616 -0.2188 -0.3970
 1127YOPC   C4A12980   3.037   5.543   7.447  0.1167 -0.1000  0.2887
 1127YOPC   C1B12981   3.024   5.987   6.732 -0.1330 -0.2715  0.0945
 1127YOPC   C2B12982   3.208   5.947   7.118  0.0090  0.3000 -0.2092
 1127YOPC   D3B12983   3.231   5.999   7.498 -0.1967 -0.0833 -0.0500
 1127YOPC   C4B12984   3.232   6.269   7.839 -0.0947  0.2619 -0.2086
 1128YOPC   NC312985   9.179   6.865   6.514  0.0912  0.3797 -0.2480
 1128YOPC   PO412986   9.013   7.262   6.481 -0.1966 -0.0400  0.0138
 1128YOPC   GL112987   9.077   7.205   6.810 -0.0582 -0.0515 -0.0867
 1128YOPC   GL212988   8.836   7.023   6.928 -0.0497  0.3133  0.2955
 1128YOPC   C1A12989   9.195   6.950   7.227  0.1964 -0.0965  0.1355
 1128YOPC   D2A12990   9.075   6.832   7.658  0.2147  0.0349 -0.1837
 1128YOPC   C3A12991   9.360   6.954   7.919 -0.1688 -0.0044  0.2058
 1128YOPC   C4A12992   9.747   7.125   7.897 -0.1114 -0.1787 -0.1833
 1128YOPC   C1B12993   8.657   7.004   7.320  0.1913 -0.0564  0.1004
 1128YOPC   C2B12994   8.654   7.207   7.696  0.0160 -0.0652  0.1881
 1128YOPC   D3B12995   9.040   7.302   7.827 -0.3179 -0.0451  0.2503
 1128YOPC   C4B12996   9.264   7.542   8.048  0.1590 -0.1277  0.0209
 1129YOPC   NC312997   8.130  10.801   6.298  0.0247 -0.1693 -0.1728
 1129YOPC   PO412998   8.461  10.413   6.348  0.1134 -0.0376  0.4301
 1129YOPC   GL112999   8.334  10.277   6.795 -0.2950  0.0650 -0.0408
 1129YOPC   GL213000   8.013   9.986   6.765  0.0186 -0.0478 -0.3663
 1129YOPC   C1A13001   8.312  10.058   7.173 -0.0525 -0.1891  0.3235
 1129YOPC   D2A13002   8.327   9.841   7.540 -0.1115  0.0771 -0.2236
 1129YOPC   C3A13003   8.449  10.067   7.997 -0.1228  0.2338  0.1741
 1129YOPC   C4A13004   8.463  10.437   8.226  0.1180  0.0058 -0.3224
 1129YOPC   C1B13005   7.845   9.764   7.187  0.0676  0.0527 -0.0347
 1129YOPC   C2B13006   7.785   9.735   7.647 -0.0021  0.0110  0.1183
 1129YOPC   D3B13007   7.874   9.840   8.061  0.0737 -0.0219 -0.0296
 1129YOPC   C4B13008   7.950   9.724   8.542 -0.0106 -0.4955  0.1527
 1130YOPC   NC313009   9.887   4.048   5.506 -0.1645 -0.0874  0.0214
 1130YOPC   PO413010   9.692   3.942   5.920 -0.0032 -0.0369 -0.0798
 1130YOPC   GL113011   9.696   3.743   6.395 -0.1062 -0.2196 -0.2302
 1130YOPC   GL213012   9.367   3.723   6.325  0.2246  0.0920  0.0485
 1130YOPC   C1A13013   9.731   3.712   6.780 -0.2265 -0.0268 -0.0195
 1130YOPC   D2A13014   9.741   3.802   7.172 -0.0554  0.0581  0.0415
 1130YOPC   C3A13015   9.438   3.961   7.451  0.0053 -0.1389 -0.4791
 1130YOPC   C4A13016   9.256   3.975   7.836  0.1102  0.3108 -0.1424
 1130YOPC   C1B13017   8.960   3.575   6.496  0.2375 -0.3585 -0.0211
 1130YOPC   C2B13018   8.753   3.476   6.872 -0.0268  0.0958 -0.0801
 1130YOPC   D3B13019   8.992   3.286   7.209 -0.0141 -0.1040  0.2158
 1130YOPC   C4B13020   8.860   2.914   7.245  0.1337 -0.1128 -0.2999
 1131YOPC   NC313021   9.321  14.858   5.708  0.1318  0.1041  0.1161
 1131YOPC   PO413022   9.319  14.674   6.128 -0.0984  0.0385 -0.2594
 1131YOPC   GL113023   9.559  14.683   6.523 -0.2377  0.0023 -0.0628
 1131YOPC   GL213024   9.320  14.444   6.576 -0.3237 -0.3717  0.0053
 1131YOPC   C1A13025   9.389  14.756   6.903  0.1251 -0.0815 -0.0427
 1131YOPC   D2A13026   9.543  15.128   7.322 -0.2290 -0.0008 -0.0200
 1131YOPC   C3A13027   9.718  15.140   7.659 -0.1166  0.0754 -0.0519
 1131YOPC   C4A13028   9.803  14.880   8.007 -0.3359 -0.0657 -0.2707
 1131YOPC   C1B13029   9.023  14.458   6.892 -0.4216  0.0727 -0.2221
 1131YOPC   C2B13030   9.046  14.490   7.305  0.1455 -0.1095  0.2322
 1131YOPC   D3B13031   8.975  14.828   7.594  0.1202  0.1465  0.0166
 1131YOPC   C4B13032   8.861  15.175   7.798  0.0003  0.1258  0.0782
 1132YOPC   NC313033  10.177   4.904   5.985 -0.2681  0.0334  0.1074
 1132YOPC   PO413034  10.491   5.220   6.087 -0.2950  0.1752  0.0044
 1132YOPC   GL113035  10.557   5.379   6.486  0.0954 -0.2331 -0.0346
 1132YOPC   GL213036  10.896   5.440   6.622  0.0486 -0.4339  0.2793
 1132YOPC   C1A13037  10.476   5.518   6.928  0.2774  0.2500 -0.1417
 1132YOPC   D2A13038  10.432   5.543   7.355 -0.0467 -0.2157 -0.1275
 1132YOPC   C3A13039  10.229   5.475   7.768 -0.1562 -0.0211 -0.0826
 1132YOPC   C4A13040  10.411   5.421   8.137 -0.0102 -0.0963  0.1394
 1132YOPC   C1B13041  11.004   5.216   7.054  0.2238 -0.0762  0.0653
 1132YOPC   C2B13042  10.960   5.388   7.334 -0.0417 -0.0040 -0.0088
 1132YOPC   D3B13043  11.241   5.332   7.669  0.0628 -0.1949  0.0837
 1132YOPC   C4B13044  11.307   5.612   7.967  0.2008  0.0798 -0.1306
 1133YOPC   NC313045   0.439   1.599   5.952 -0.0888  0.0897 -0.0741
 1133YOPC   PO413046   0.520   1.196   6.192  0.0079 -0.1961  0.0474
 1133YOPC   GL113047   0.424   1.036   6.568 -0.0403 -0.1970 -0.0191
 1133YOPC   GL213048   0.806   1.093   6.771 -0.1468 -0.1614  0.2598
 1133YOPC   C1A13049   0.268   1.241   6.930 -0.0522  0.3825 -0.3636
 1133YOPC   D2A13050  -0.030   1.509   7.174  0.0409  0.1265 -0.1093
 1133YOPC   C3A13051   0.189   1.815   7.466 -0.1408 -0.1872  0.0938
 1133YOPC   C4A13052   0.361   1.897   7.852  0.0115  0.1300  0.4218
 1133YOPC   C1B13053   0.635   1.037   7.177 -0.1851  0.2002 -0.3195
 1133YOPC   C2B13054   0.830   1.026   7.616  0.0766  0.2454  0.1870
 1133YOPC   D3B13055   0.775   1.083   8.034 -0.2548 -0.1086  0.0199
 1133YOPC   C4B13056   0.825   1.190   8.419 -0.1707 -0.0798 -0.1001
 1134YOPC   NC313057   6.092   4.321   5.707  0.1912 -0.0364  0.5368
 1134YOPC   PO413058   6.117   4.719   5.908  0.2110  0.2259  0.3256
 1134YOPC   GL113059   5.819   4.899   6.149  0.0617  0.0057 -0.1928
 1134YOPC   GL213060   5.497   4.736   6.257 -0.0901 -0.1731  0.3314
 1134YOPC   C1A13061   5.910   5.013   6.659 -0.1726 -0.0209  0.2424
 1134YOPC   D2A13062   5.624   4.919   7.036  0.1129  0.2712  0.0762
 1134YOPC   C3A13063   5.773   4.730   7.493 -0.3420 -0.0821  0.0207
 1134YOPC   C4A13064   5.872   4.666   7.919  0.1009  0.0329 -0.0848
 1134YOPC   C1B13065   5.641   4.491   6.613  0.3605  0.2584 -0.2044
 1134YOPC   C2B13066   5.914   4.491   7.036  0.0181  0.2624  0.2448
 1134YOPC   D3B13067   6.190   4.841   7.051  0.0256 -0.0333 -0.2263
 1134YOPC   C4B13068   6.337   5.245   6.904  0.0146  0.0446 -0.4103
 1135YOPC   NC313069   7.351  12.703   5.786 -0.3062 -0.3083  0.0622
 1135YOPC   PO413070   7.431  13.021   6.037 -0.0373  0.0388  0.2484
 1135YOPC   GL113071   7.436  12.964   6.397  0.0264  0.2122  0.1948
 1135YOPC   GL213072   7.207  12.649   6.592 -0.0300  0.2318  0.2889
 1135YOPC   C1A13073   7.597  12.933   6.728  0.0375 -0.2017 -0.0617
 1135YOPC   D2A13074   7.569  13.154   7.118 -0.1719 -0.0556  0.2898
 1135YOPC   C3A13075   7.165  13.474   7.135  0.3054  0.0938  0.0985
 1135YOPC   C4A13076   6.786  13.577   6.803  0.1482  0.2069 -0.1674
 1135YOPC   C1B13077   7.065  12.933   7.026 -0.3299  0.3784  0.1724
 1135YOPC   C2B13078   7.118  13.066   7.418  0.2789  0.0654  0.0459
 1135YOPC   D3B13079   6.694  13.074   7.781 -0.2777  0.0112  0.0942
 1135YOPC   C4B13080   6.435  13.147   8.062 -0.1704  0.3015  0.1212
 1136YOPC   NC313081   3.823   2.638   6.373 -0.3815  0.0879  0.0337
 1136YOPC   PO413082   3.354   2.522   6.281 -0.1964 -0.1551 -0.1257
 1136YOPC   GL113083   3.283   2.359   6.724  0.1888  0.0179  0.0490
 1136YOPC   GL213084   3.491   2.609   6.756 -0.1198 -0.3063 -0.1109
 1136YOPC   C1A13085   3.109   2.542   7.124  0.2191  0.2319  0.1112
 1136YOPC   D2A13086   3.130   2.407   7.525  0.1384 -0.0783 -0.2858
 1136YOPC   C3A13087   3.207   1.991   7.698 -0.2726 -0.5019 -0.1321
 1136YOPC   C4A13088   3.233   1.969   8.022 -0.1805  0.0683 -0.0530
 1136YOPC   C1B13089   3.657   2.513   7.152 -0.2931  0.1195  0.1878
 1136YOPC   C2B13090   3.642   2.382   7.442 -0.1593 -0.1610  0.0553
 1136YOPC   D3B13091   3.662   2.150   7.740 -0.2970  0.0193 -0.1896
 1136YOPC   C4B13092   3.762   2.125   8.156 -0.0975 -0.0909  0.2980
 1137YOPC   NC313093  15.184  17.352   7.016  0.1477 -0.0109  0.2873
 1137YOPC   PO413094  15.498  17.658   6.936  0.0674  0.0385 -0.1458
 1137YOPC   GL113095  15.464  17.519   7.377 -0.1946 -0.0144 -0.1992
 1137YOPC   GL213096  15.422  17.118   7.410  0.2967 -0.3477  0.2558
 1137YOPC   C1A13097  15.471  17.331   7.825  0.2519  0.0995  0.2393
 1137YOPC   D2A13098  15.383  17.418   8.300 -0.2193 -0.2235  0.0732
 1137YOPC   C3A13099  15.231  17.711   8.454 -0.0605  0.0481  0.4206
 1137YOPC   C4A13100  15.117  18.039   8.191  0.0795  0.0807  0.0310
 1137YOPC   C1B13101  15.700  16.950   7.698  0.2179  0.3384  0.1600
 1137YOPC   C2B13102  15.740  16.931   8.054 -0.1068 -0.1284  0.4367
 1137YOPC   D3B13103  15.733  17.081   8.444  0.0058  0.1631  0.0120
 1137YOPC   C4B13104  15.828  17.230   8.845 -0.0293  0.0471  0.0891
 1138YOPC   NC313105   9.100  17.237   5.857 -0.0389  0.2457 -0.2562
 1138YOPC   PO413106   9.430  17.474   5.838  0.2105 -0.2558  0.1812
 1138YOPC   GL113107   9.539  17.530   6.291  0.1069 -0.0587  0.1343
 1138YOPC   GL213108   9.660  17.291   6.391  0.2344 -0.0243 -0.0502
 1138YOPC   C1A13109   9.553  17.723   6.734  0.0843  0.0066  0.1232
 1138YOPC   D2A13110   9.430  18.041   6.953 -0.0079  0.0440  0.0313
 1138YOPC   C3A13111   9.437  18.235   7.322 -0.0140  0.1697  0.0995
 1138YOPC   C4A13112   9.370  18.462   7.719 -0.0820 -0.0152 -0.2498
 1138YOPC   C1B13113   9.351  17.198   6.817 -0.0891  0.1665 -0.1923
 1138YOPC   C2B13114   9.189  17.112   7.123 -0.0323  0.1403 -0.1738
 1138YOPC   D3B13115   9.071  17.386   7.486 -0.0115 -0.0776 -0.6028
 1138YOPC   C4B13116   9.321  17.344   7.924 -0.0196 -0.0347  0.1981
 1139YOPC   NC313117   3.878  15.772   6.434  0.1607 -0.0765  0.3295
 1139YOPC   PO413118   3.392  15.597   6.426  0.0550 -0.0206 -0.0026
 1139YOPC   GL113119   3.689  15.573   6.813 -0.1403 -0.1514  0.0410
 1139YOPC   GL213120   4.005  15.662   6.939  0.1230 -0.2586 -0.0482
 1139YOPC   C1A13121   3.611  15.644   7.222 -0.1440 -0.1634  0.0286
 1139YOPC   D2A13122   3.685  15.869   7.585 -0.2088 -0.0816 -0.0197
 1139YOPC   C3A13123   3.725  15.824   8.059  0.0231 -0.2094 -0.0527
 1139YOPC   C4A13124   4.066  15.826   8.310 -0.0751  0.0179  0.1428
 1139YOPC   C1B13125   3.981  15.303   7.203 -0.0293 -0.1466 -0.1765
 1139YOPC   C2B13126   4.079  14.816   7.206  0.0579 -0.0754  0.0336
 1139YOPC   D3B13127   3.758  14.611   7.457  0.0124 -0.0079 -0.0385
 1139YOPC   C4B13128   3.798  14.553   7.896  0.2176 -0.1275 -0.2746
 1140YOPC   NC313129  17.537   2.711   6.102 -0.1037 -0.2619  0.0191
 1140YOPC   PO413130  17.607   2.264   6.139  0.0688 -0.0758 -0.0136
 1140YOPC   GL113131  17.598   2.508   6.618  0.0661 -0.1183  0.0260
 1140YOPC   GL213132  17.260   2.576   6.676  0.3047  0.1143  0.0831
 1140YOPC   C1A13133  17.789   2.935   6.928 -0.0316 -0.0118 -0.0362
 1140YOPC   D2A13134  18.006   3.253   7.220  0.2067 -0.1477  0.0851
 1140YOPC   C3A13135  17.926   3.187   7.681  0.2183  0.1879  0.0990
 1140YOPC   C4A13136  17.820   2.975   8.125  0.2354 -0.0518 -0.0817
 1140YOPC   C1B13137  17.360   2.726   7.083 -0.2213  0.3880 -0.1736
 1140YOPC   C2B13138  17.464   2.891   7.391 -0.1479 -0.0841 -0.2390
 1140YOPC   D3B13139  17.580   2.590   7.732  0.2560  0.1980 -0.0927
 1140YOPC   C4B13140  17.730   2.428   8.203  0.0527  0.0162 -0.0467
 1141ERGO   ROH13141   0.335   1.759   9.727 -0.0029 -0.2437  0.1911
 1141ERGO    R113142   0.261   1.648   9.477  0.0029 -0.1145  0.1307
 1141ERGO    R213143   0.423   1.663   9.254  0.0614 -0.1010  0.1702
 1141ERGO    R313144   0.391   1.393   9.252 -0.0595 -0.0859  0.0628
 1141ERGO    R413145   0.450   1.463   8.973  0.3199 -0.0419  0.1510
 1141ERGO    R513146   0.279   1.348   9.045  0.1768  0.0168 -0.0901
 1141ERGO    C113147   0.435   1.094   8.808  0.3569  0.0067  0.0389
 1141ERGO    C213148   0.439   0.891   8.520  0.0866 -0.2045  0.2638
 1142ERGO   ROH13149   0.876  14.195  10.314 -0.1792  0.0401  0.1814
 1142ERGO    R113150   0.873  14.144  10.036 -0.0723  0.0635  0.1755
 1142ERGO    R213151   0.643  14.075   9.900 -0.0149  0.0495  0.0861
 1142ERGO    R313152   0.710  14.286   9.743  0.0184  0.0700  0.1275
 1142ERGO    R413153   0.511  14.137   9.587 -0.0320  0.1485  0.1128
 1142ERGO    R513154   0.710  14.197   9.521 -0.0236  0.1185  0.1070
 1142ERGO    C113155   0.497  14.372   9.257 -0.0107  0.2256  0.1671
 1142ERGO    C213156   0.301  14.251   9.021  0.2645 -0.0792  0.0766
 1143ERGO   ROH13157  14.397  12.452  10.117 -0.3310  0.2113  0.1252
 1143ERGO    R113158  14.425  12.458   9.835 -0.1757  0.0998  0.1380
 1143ERGO    R213159  14.213  12.412   9.665 -0.0942  0.1092  0.0441
 1143ERGO    R313160  14.287  12.652   9.560  0.0404  0.0453 -0.0135
 1143ERGO    R413161  14.256  12.474   9.328 -0.3546  0.0682 -0.0002
 1143ERGO    R513162  14.432  12.594   9.378 -0.1817 -0.0986 -0.1571
 1143ERGO    C113163  14.352  12.734   9.032 -0.3799 -0.0156 -0.0802
 1143ERGO    C213164  14.149  12.591   8.776  0.2657  0.1687  0.1421
 1144ERGO   ROH13165   2.783  14.583   7.435 -0.1665 -0.2122 -0.0559
 1144ERGO    R113166   2.861  14.552   7.705 -0.0382 -0.0624 -0.0736
 1144ERGO    R213167   2.850  14.759   7.888 -0.0499  0.0146 -0.1565
 1144ERGO    R313168   2.702  14.583   8.031  0.0847  0.0102 -0.0209
 1144ERGO    R413169   2.855  14.731   8.232  0.0594  0.1922 -0.1424
 1144ERGO    R513170   2.846  14.515   8.210  0.1676  0.1783 -0.0256
 1144ERGO    C113171   2.718  14.549   8.568  0.2493  0.2913 -0.0070
 1144ERGO    C213172   2.655  14.381   8.860 -0.1715 -0.0150 -0.4018
 1145ERGO   ROH13173  17.354   7.256   6.350 -0.1517  0.1290  0.1748
 1145ERGO    R113174  17.428   7.053   6.533 -0.1708  0.1402  0.1938
 1145ERGO    R213175  17.684   7.030   6.635 -0.1304  0.0242  0.0609
 1145ERGO    R313176  17.555   7.037   6.874  0.0033  0.1663  0.1319
 1145ERGO    R413177  17.806   6.898   6.929 -0.0592  0.0014  0.0224
 1145ERGO    R513178  17.606   6.826   6.975 -0.0875  0.1498  0.1479
 1145ERGO    C113179  17.756   6.828   7.326  0.1075  0.1215  0.0668
 1145ERGO    C213180  17.811   6.865   7.557 -0.2534 -0.0080  0.0623
 1146ERGO   ROH13181  12.747   7.897   7.021 -0.0038  0.2565  0.2093
 1146ERGO    R113182  13.024   7.860   7.067 -0.0106  0.1567  0.1736
 1146ERGO    R213183  13.185   8.059   7.173  0.0936  0.1309  0.0676
 1146ERGO    R313184  13.247   7.866   7.355  0.0429  0.1746  0.1317
 1146ERGO    R413185  13.489   8.031   7.336  0.1699 -0.0328 -0.0984
 1146ERGO    R513186  13.477   7.815   7.311 -0.0232 -0.0378  0.0209
 1146ERGO    C113187  13.724   7.835   7.601  0.1667 -0.0872 -0.1349
 1146ERGO    C213188  13.950   7.986   7.655  0.1637 -0.0103 -0.0433
 1147ERGO   ROH13189   2.783   8.911   9.463  0.3046 -0.0470  0.0278
 1147ERGO    R113190   2.731   8.885   9.186  0.2075  0.0564  0.0368
 1147ERGO    R213191   2.895   8.995   8.992  0.1810  0.0573  0.0232
 1147ERGO    R313192   2.899   8.740   8.897  0.0633  0.0868 -0.0660
 1147ERGO    R413193   2.870   8.910   8.658  0.2643  0.2072 -0.0227
 1147ERGO    R513194   2.741   8.743   8.716  0.1321  0.2581 -0.1335
 1147ERGO    C113195   2.859   8.621   8.374  0.2023  0.3221 -0.1332
 1147ERGO    C213196   2.955   8.678   8.004 -0.0111  0.2806  0.1224
 1148ERGO   ROH13197  12.913  16.414  10.151  0.1146  0.4144 -0.1064
 1148ERGO    R113198  12.946  16.421   9.870  0.0342  0.2169 -0.1227
 1148ERGO    R213199  13.161  16.305   9.743  0.0011  0.1309 -0.1036
 1148ERGO    R313200  12.967  16.178   9.601 -0.0379  0.0256  0.0421
 1148ERGO    R413201  13.212  16.139   9.444 -0.1318  0.1391 -0.1309
 1148ERGO    R513202  13.023  16.221   9.372 -0.2245  0.0401 -0.0009
 1148ERGO    C113203  13.059  15.924   9.136 -0.2459  0.0453 -0.0101
 1148ERGO    C213204  13.325  15.791   8.968 -0.1910 -0.0184  0.1249
 1149ERGO   ROH13205   0.448   5.530   9.499  0.1109  0.2566  0.1876
 1149ERGO    R113206   0.359   5.450   9.242  0.1142  0.2903  0.1791
 1149ERGO    R213207   0.458   5.562   9.010  0.3403  0.1011  0.1944
 1149ERGO    R313208   0.508   5.303   8.945  0.0475  0.0169  0.2746
 1149ERGO    R413209   0.517   5.446   8.689  0.4174 -0.0165  0.2475
 1149ERGO    R513210   0.396   5.271   8.736  0.1451  0.1389  0.1938
 1149ERGO    C113211   0.599   5.136   8.442  0.1874 -0.1640  0.3539
 1149ERGO    C213212   0.831   4.984   8.139  0.0129 -0.0766 -0.1621
 1150ERGO   ROH13213   2.174  12.851   9.686 -0.0103  0.0176  0.1143
 1150ERGO    R113214   2.025  12.786   9.455  0.1200  0.1048  0.0047
 1150ERGO    R213215   1.762  12.863   9.421  0.0766 -0.0625 -0.0187
 1150ERGO    R313216   1.856  12.968   9.189  0.0779  0.2087  0.1001
 1150ERGO    R413217   1.565  12.950   9.151  0.0804  0.1496  0.0453
 1150ERGO    R513218   1.718  12.868   9.019  0.1301  0.3325 -0.0219
 1150ERGO    C113219   1.538  13.100   8.776  0.0838  0.5276  0.1940
 1150ERGO    C213220   1.274  13.358   8.677  0.0849  0.1955  0.0866
 1151ERGO   ROH13221  13.406   1.736   6.615  0.0639 -0.2717  0.0783
 1151ERGO    R113222  13.435   1.843   6.875  0.0746 -0.1218  0.0170
 1151ERGO    R213223  13.224   1.865   7.052  0.0766 -0.0003  0.0081
 1151ERGO    R313224  13.389   1.725   7.216  0.0660  0.0803  0.0865
 1151ERGO    R413225  13.273   1.933   7.387 -0.0100  0.1105 -0.0018
 1151ERGO    R513226  13.485   1.891   7.359  0.0032  0.1411  0.0577
 1151ERGO    C113227  13.457   1.842   7.736 -0.0704  0.2506  0.0661
 1151ERGO    C213228  13.442   1.694   7.980  0.1887  0.0046 -0.2306
 1152ERGO   ROH13229  15.181  18.302  10.433 -0.1193 -0.0713 -0.0827
 1152ERGO    R113230  15.269  18.236  10.173 -0.1984 -0.3044 -0.0546
 1152ERGO    R213231  15.108  18.105   9.990 -0.4235 -0.0595 -0.0518
 1152ERGO    R313232  15.171  18.317   9.831 -0.0019 -0.2032 -0.0854
 1152ERGO    R413233  15.024  18.132   9.656 -0.5052  0.1343 -0.0156
 1152ERGO    R513234  15.222  18.217   9.619 -0.3214 -0.3228 -0.1027
 1152ERGO    C113235  15.034  18.346   9.312 -0.1570  0.1125 -0.0259
 1152ERGO    C213236  14.908  18.301   8.913  0.1371 -0.2362  0.0859
 1153ERGO   ROH13237  16.877  17.578  10.443  0.1435  0.0569  0.1590
 1153ERGO    R113238  17.106  17.542  10.279  0.0304  0.0906 -0.0073
 1153ERGO    R213239  17.272  17.322  10.300  0.1333  0.1669 -0.0570
 1153ERGO    R313240  17.220  17.298  10.035 -0.0615  0.0501 -0.0118
 1153ERGO    R413241  17.454  17.128  10.080  0.0370  0.1451 -0.1193
 1153ERGO    R513242  17.437  17.287   9.933 -0.1295  0.0871 -0.1699
 1153ERGO    C113243  17.512  16.993   9.703 -0.2022  0.0226 -0.1131
 1153ERGO    C213244  17.561  16.703   9.584  0.3748 -0.0593  0.0424
 1154ERGO   ROH13245   5.228   2.776   6.359  0.3434  0.3571  0.0471
 1154ERGO    R113246   5.224   2.895   6.616 -0.2272  0.2943  0.0818
 1154ERGO    R213247   4.997   2.904   6.773 -0.4016 -0.4564 -0.0882
 1154ERGO    R313248   5.158   2.785   6.956 -0.1568 -0.0085  0.0019
 1154ERGO    R413249   4.941   2.900   7.114 -0.6115 -0.6432 -0.1222
 1154ERGO    R513250   5.153   2.932   7.145 -0.7048 -0.0224  0.0161
 1154ERGO    C113251   5.060   2.785   7.485 -0.5040 -0.3314 -0.0574
 1154ERGO    C213252   5.071   2.804   7.907 -0.0464  0.0866  0.1800
 1155ERGO   ROH13253   2.386  14.508   7.097 -0.0165 -0.5125 -0.0499
 1155ERGO    R113254   2.295  14.489   7.365 -0.0046 -0.4313 -0.0400
 1155ERGO    R213255   2.288  14.250   7.503  0.2093 -0.3565  0.1063
 1155ERGO    R313256   2.435  14.388   7.685  0.0831 -0.1102  0.0269
 1155ERGO    R413257   2.282  14.195   7.844  0.1814 -0.0878  0.1512
 1155ERGO    R513258   2.290  14.411   7.874  0.0307 -0.0557 -0.0195
 1155ERGO    C113259   2.417  14.293   8.214  0.0466  0.2999  0.1027
 1155ERGO    C213260   2.517  14.028   8.548 -0.1174 -0.3591  0.2502
 1156ERGO   ROH13261  14.901   8.344   8.877 -0.0668 -0.3862 -0.1762
 1156ERGO    R113262  14.876   8.550   8.685 -0.1006 -0.1878  0.0377
 1156ERGO    R213263  14.955   8.518   8.422  0.0314  0.1445  0.0388
 1156ERGO    R313264  14.701   8.598   8.370  0.0089  0.0600  0.0103
 1156ERGO    R413265  14.850   8.659   8.124 -0.0269 -0.1257 -0.0723
 1156ERGO    R513266  14.727   8.798   8.239 -0.0343 -0.0415 -0.1667
 1156ERGO    C113267  14.551   8.816   7.902 -0.0819 -0.3624 -0.1638
 1156ERGO    C213268  14.389   9.023   7.654  0.0980  0.0081  0.0044
 1157ERGO   ROH13269   7.151   4.203   9.380 -0.1652  0.0672  0.1558
 1157ERGO    R113270   6.974   4.352   9.217 -0.1613 -0.0680  0.0302
 1157ERGO    R213271   7.051   4.461   8.975 -0.1130 -0.1369  0.0283
 1157ERGO    R313272   6.837   4.323   8.881 -0.0275 -0.2478 -0.0146
 1157ERGO    R413273   6.882   4.533   8.683 -0.2453 -0.0351  0.1267
 1157ERGO    R513274   6.695   4.491   8.786 -0.1929 -0.2735  0.1564
 1157ERGO    C113275   6.581   4.446   8.425 -0.2422 -0.0801  0.1437
 1157ERGO    C213276   6.470   4.456   8.060  0.0510 -0.1953 -0.1526
 1158ERGO   ROH13277   8.001   7.165   6.549 -0.1078  0.0517 -0.0684
 1158ERGO    R113278   8.039   7.252   6.816  0.0877  0.0209 -0.0853
 1158ERGO    R213279   7.872   7.177   7.023 -0.0466  0.3768 -0.0587
 1158ERGO    R313280   8.105   7.096   7.138 -0.1855 -0.0622 -0.0674
 1158ERGO    R413281   7.917   7.127   7.362 -0.0980  0.4074 -0.0471
 1158ERGO    R513282   8.114   7.219   7.344  0.0967 -0.0002 -0.1127
 1158ERGO    C113283   8.161   7.022   7.668 -0.2584  0.0132 -0.0486
 1158ERGO    C213284   8.235   7.005   8.127  0.2775  0.2927  0.0016
 1159ERGO   ROH13285   5.799   1.933   6.272  0.0855 -0.0626  0.0129
 1159ERGO    R113286   5.929   2.017   6.509  0.0283  0.0096  0.0186
 1159ERGO    R213287   6.155   2.174   6.507 -0.0489  0.1181  0.0265
 1159ERGO    R313288   6.007   2.334   6.670 -0.1364  0.0555  0.0126
 1159ERGO    R413289   6.281   2.353   6.775 -0.1372  0.2297 -0.0057
 1159ERGO    R513290   6.102   2.300   6.888 -0.1029  0.1393  0.0135
 1159ERGO    C113291   6.214   2.607   7.084 -0.2707  0.2359 -0.0375
 1159ERGO    C213292   6.087   2.925   7.214 -0.2252  0.0963  0.3757
 1160ERGO   ROH13293  14.706  12.402   6.955 -0.0326  0.0263 -0.0319
 1160ERGO    R113294  14.778  12.404   7.229 -0.0830 -0.0269 -0.0186
 1160ERGO    R213295  14.731  12.620   7.394  0.0039 -0.0124 -0.0145
 1160ERGO    R313296  14.604  12.435   7.547 -0.1231  0.0495 -0.0485
 1160ERGO    R413297  14.727  12.619   7.739 -0.0041 -0.0647 -0.0146
 1160ERGO    R513298  14.750  12.403   7.734 -0.1497 -0.0783 -0.0499
 1160ERGO    C113299  14.604  12.445   8.084 -0.1280 -0.0371 -0.0467
 1160ERGO    C213300  14.696  12.198   8.308  0.1206 -0.0503  0.0447
 1161ERGO   ROH13301  17.249  16.000   7.599 -0.0998  0.0250 -0.0198
 1161ERGO    R113302  17.303  15.801   7.793 -0.2431  0.0242  0.0192
 1161ERGO    R213303  17.523  15.811   7.959 -0.1677 -0.1637 -0.0698
 1161ERGO    R313304  17.336  15.787   8.155 -0.1212  0.0982  0.0121
 1161ERGO    R413305  17.577  15.664   8.267 -0.1833 -0.0541 -0.0133
 1161ERGO    R513306  17.379  15.573   8.253 -0.2707  0.1073  0.1046
 1161ERGO    C113307  17.432  15.555   8.630 -0.1487  0.2556  0.0966
 1161ERGO    C213308  17.293  15.455   8.941  0.0235 -0.1064  0.1361
 1162ERGO   ROH13309   2.750  13.627   6.815 -0.1779  0.0279  0.1496
 1162ERGO    R113310   2.745  13.645   7.098 -0.1297  0.0062  0.1513
 1162ERGO    R213311   2.683  13.429   7.260 -0.0129 -0.0263  0.1462
 1162ERGO    R313312   2.921  13.490   7.376 -0.0152  0.0572  0.1095
 1162ERGO    R413313   2.781  13.327   7.575  0.0881 -0.0520  0.1070
 1162ERGO    R513314   2.868  13.524   7.607  0.0087 -0.0140  0.1300
 1162ERGO    C113315   3.062  13.324   7.867  0.1447  0.0114  0.0498
 1162ERGO    C213316   3.226  13.213   8.183 -0.0122 -0.0552 -0.1952
 1163ERGO   ROH13317  10.116  15.390   6.397  0.3453  0.0310 -0.1115
 1163ERGO    R113318  10.220  15.389   6.660  0.1587 -0.0656 -0.0355
 1163ERGO    R213319  10.115  15.546   6.862  0.1244 -0.0062 -0.0962
 1163ERGO    R313320  10.098  15.308   6.993 -0.1387 -0.0073 -0.1285
 1163ERGO    R413321  10.158  15.503   7.202  0.0772 -0.1081 -0.1025
 1163ERGO    R513322  10.267  15.319   7.161 -0.1266 -0.2226 -0.1268
 1163ERGO    C113323  10.166  15.255   7.523 -0.1972 -0.1683 -0.1366
 1163ERGO    C213324  10.145  15.273   7.891  0.2335 -0.1539 -0.0654
 1164ERGO   ROH13325   2.177   4.274   9.941  0.3682  0.0508  0.0068
 1164ERGO    R113326   2.112   4.472   9.750  0.1527 -0.0247 -0.0007
 1164ERGO    R213327   2.304   4.598   9.596  0.0085  0.1260 -0.0539
 1164ERGO    R313328   2.147   4.513   9.390  0.0373 -0.0293 -0.0141
 1164ERGO    R413329   2.391   4.613   9.262 -0.1358  0.3436 -0.0841
 1164ERGO    R513330   2.187   4.673   9.216 -0.2438  0.0821  0.0145
 1164ERGO    C113331   2.295   4.542   8.874 -0.1927  0.3245 -0.0643
 1164ERGO    C213332   2.412   4.742   8.583  0.1218  0.0227 -0.1265
 1165ERGO   ROH13333   1.466   5.883   9.761 -0.0229 -0.0200  0.0800
 1165ERGO    R113334   1.568   5.790   9.514 -0.0751 -0.0737  0.0763
 1165ERGO    R213335   1.405   5.700   9.310 -0.1404  0.1439  0.0172
 1165ERGO    R313336   1.540   5.885   9.164  0.0860  0.0420  0.0968
 1165ERGO    R413337   1.373   5.745   8.969 -0.1013  0.3646  0.0423
 1165ERGO    R513338   1.588   5.775   8.957 -0.0709  0.0918  0.0412
 1165ERGO    C113339   1.481   5.945   8.633  0.1339  0.3975  0.1317
 1165ERGO    C213340   1.571   5.995   8.336 -0.0822 -0.2678  0.1341
 1166ERGO   ROH13341  16.111   9.420   6.306 -0.1190 -0.1523 -0.0706
 1166ERGO    R113342  16.046   9.359   6.574 -0.1241 -0.0292 -0.0430
 1166ERGO    R213343  16.235   9.349   6.775 -0.1060 -0.0619 -0.0597
 1166ERGO    R313344  16.068   9.526   6.897 -0.0024  0.0684 -0.1011
 1166ERGO    R413345  16.251   9.438   7.109 -0.1032 -0.0564 -0.0614
 1166ERGO    R513346  16.033   9.434   7.115 -0.1111  0.1031 -0.1019
 1166ERGO    C113347  16.104   9.655   7.418 -0.0043  0.0691 -0.1012
 1166ERGO    C213348  16.105   9.940   7.618 -0.4689  0.2163  0.2930
 1167ERGO   ROH13349  15.687   0.418   7.079  0.1121  0.0684  0.0028
 1167ERGO    R113350  15.803   0.586   7.274  0.0224 -0.0266  0.1394
 1167ERGO    R213351  15.681   0.816   7.365  0.0306 -0.0130  0.1139
 1167ERGO    R313352  15.717   0.702   7.608 -0.1889 -0.0955  0.1108
 1167ERGO    R413353  15.688   0.988   7.665  0.2479 -0.0460  0.1292
 1167ERGO    R513354  15.852   0.860   7.728  0.0408 -0.3116  0.1469
 1167ERGO    C113355  15.727   0.981   8.068  0.1684 -0.1427  0.1351
 1167ERGO    C213356  15.648   1.068   8.450 -0.2964  0.0665 -0.2179
 1168ERGO   ROH13357  11.550   9.163   6.280 -0.1350 -0.1149  0.2513
 1168ERGO    R113358  11.708   9.170   6.515 -0.0847 -0.0144  0.2157
 1168ERGO    R213359  11.749   9.401   6.661 -0.1043  0.0361  0.1435
 1168ERGO    R313360  11.656   9.249   6.866 -0.0260  0.0715  0.2050
 1168ERGO    R413361  11.857   9.424   6.988  0.0027  0.1085  0.1034
 1168ERGO    R513362  11.849   9.206   7.001  0.0209  0.1113  0.1497
 1168ERGO    C113363  11.833   9.294   7.372  0.1385  0.1840  0.1379
 1168ERGO    C213364  11.788   9.120   7.782  0.0126  0.0103 -0.2837
 1169ERGO   ROH13365   9.540   3.573   9.491  0.2588 -0.0528 -0.1051
 1169ERGO    R113366   9.570   3.597   9.211  0.2388 -0.1085 -0.1117
 1169ERGO    R213367   9.594   3.377   9.044  0.1081 -0.1439 -0.0818
 1169ERGO    R313368   9.385   3.493   8.915  0.1524 -0.0565 -0.0767
 1169ERGO    R413369   9.458   3.264   8.747 -0.0593 -0.1951  0.0124
 1169ERGO    R513370   9.439   3.471   8.683  0.0709 -0.2103 -0.0836
 1169ERGO    C113371   9.183   3.307   8.453 -0.1153 -0.1428  0.0723
 1169ERGO    C213372   8.890   3.065   8.350 -0.0574 -0.2672  0.0865
 1170ERGO   ROH13373   6.628  14.939  10.020  0.1229 -0.2316 -0.0438
 1170ERGO    R113374   6.463  15.032   9.810  0.1324 -0.1605 -0.0191
 1170ERGO    R213375   6.503  14.961   9.546  0.0332 -0.2188 -0.0154
 1170ERGO    R313376   6.244  14.882   9.561 -0.0129 -0.0616  0.0463
 1170ERGO    R413377   6.309  14.868   9.276  0.0247 -0.4377  0.0635
 1170ERGO    R513378   6.142  14.975   9.366  0.0664 -0.2363 -0.0838
 1170ERGO    C113379   5.952  14.740   9.133 -0.0235 -0.4177  0.1674
 1170ERGO    C213380   6.026  14.666   8.741 -0.2150 -0.0347 -0.3995
 1171ERGO   ROH13381   0.688   6.064   6.242 -0.3007  0.0832  0.0684
 1171ERGO    R113382   0.805   6.215   6.451 -0.1581  0.1011 -0.0232
 1171ERGO    R213383   0.680   6.434   6.565 -0.1445  0.0263  0.1373
 1171ERGO    R313384   0.723   6.297   6.796  0.1492  0.0069  0.0760
 1171ERGO    R413385   0.731   6.580   6.874  0.0398 -0.0013  0.1215
 1171ERGO    R513386   0.883   6.430   6.915  0.1735  0.0860 -0.0426
 1171ERGO    C113387   0.800   6.537   7.271  0.4227 -0.0356  0.0549
 1171ERGO    C213388   0.811   6.604   7.502 -0.0144  0.0250 -0.0623
 1172ERGO   ROH13389  15.544   2.641   6.824  0.0768  0.0542 -0.0260
 1172ERGO    R113390  15.707   2.717   7.043  0.1000  0.0044 -0.0255
 1172ERGO    R213391  15.602   2.813   7.280  0.1286  0.0415 -0.0265
 1172ERGO    R313392  15.750   2.613   7.389  0.0630 -0.0062 -0.0243
 1172ERGO    R413393  15.658   2.771   7.618  0.3425  0.1870 -0.0425
 1172ERGO    R513394  15.864   2.717   7.572  0.2712  0.0129 -0.1626
 1172ERGO    C113395  15.831   2.559   7.918  0.4055  0.2270 -0.0497
 1172ERGO    C213396  15.714   2.436   8.204 -0.2724 -0.0200  0.0341
 1173ERGO   ROH13397   1.558   7.842   6.170  0.2826  0.1079 -0.0296
 1173ERGO    R113398   1.627   7.713   6.412  0.1229 -0.0497 -0.0668
 1173ERGO    R213399   1.715   7.850   6.635  0.2307 -0.2169 -0.0062
 1173ERGO    R313400   1.511   7.718   6.757  0.0823 -0.0615 -0.0796
 1173ERGO    R413401   1.662   7.842   6.977  0.2406 -0.3623 -0.0074
 1173ERGO    R513402   1.609   7.631   6.958 -0.0024 -0.2969 -0.1346
 1173ERGO    C113403   1.440   7.713   7.290  0.1070 -0.3012 -0.0769
 1173ERGO    C213404   1.371   7.615   7.625  0.0907  0.1314  0.4084
 1174ERGO   ROH13405   8.633   2.627   9.493  0.2323  0.1969  0.0183
 1174ERGO    R113406   8.669   2.772   9.252  0.0202  0.0862 -0.0814
 1174ERGO    R213407   8.675   2.649   9.005  0.0178 -0.0527 -0.0052
 1174ERGO    R313408   8.480   2.829   8.947 -0.1479 -0.2393 -0.0456
 1174ERGO    R413409   8.619   2.786   8.692  0.2553  0.2219  0.0669
 1174ERGO    R513410   8.581   2.978   8.789 -0.1204  0.0764  0.2479
 1174ERGO    C113411   8.403   3.035   8.456  0.2380  0.2066  0.0710
 1174ERGO    C213412   8.332   3.031   8.054  0.0779  0.1269 -0.0280
 1175ERGO   ROH13413   3.315  10.945   9.419  0.2434  0.2665  0.0042
 1175ERGO    R113414   3.234  10.890   9.154  0.0652  0.2257  0.0656
 1175ERGO    R213415   3.195  11.088   8.966  0.1811  0.1823 -0.0073
 1175ERGO    R313416   3.370  10.939   8.820 -0.0328 -0.0647 -0.0202
 1175ERGO    R413417   3.216  11.089   8.620  0.1618  0.1494 -0.0087
 1175ERGO    R513418   3.245  10.873   8.626 -0.1384  0.1061 -0.0106
 1175ERGO    C113419   3.392  10.951   8.283 -0.0503 -0.1019 -0.0216
 1175ERGO    C213420   3.471  11.016   7.947  0.0817  0.3299  0.1214
 1176ERGO   ROH13421  12.049  16.278  10.024  0.0818 -0.1121  0.0017
 1176ERGO    R113422  12.069  16.068   9.836  0.0936 -0.0739 -0.0407
 1176ERGO    R213423  11.874  16.018   9.647  0.0664 -0.0860 -0.0115
 1176ERGO    R313424  12.083  16.037   9.474  0.0278 -0.0047 -0.0491
 1176ERGO    R413425  11.860  15.935   9.312  0.0633 -0.1858  0.0134
 1176ERGO    R513426  12.059  15.846   9.331  0.1214 -0.0591  0.0067
 1176ERGO    C113427  12.048  15.905   8.954  0.0251 -0.1677 -0.0075
 1176ERGO    C213428  12.127  15.899   8.715  0.2979 -0.2693  0.4604
 1177ERGO   ROH13429   5.473  11.391   6.726 -0.1361  0.2111  0.0587
 1177ERGO    R113430   5.452  11.356   7.006 -0.3458 -0.0372  0.0145
 1177ERGO    R213431   5.448  11.568   7.182  0.1390 -0.2013  0.2300
 1177ERGO    R313432   5.218  11.450   7.269 -0.2218  0.3008  0.0109
 1177ERGO    R413433   5.309  11.614   7.496  0.1752 -0.2047  0.2485
 1177ERGO    R513434   5.261  11.401   7.500 -0.4083 -0.1040 -0.0278
 1177ERGO    C113435   5.013  11.530   7.759 -0.1425  0.2647  0.0535
 1177ERGO    C213436   4.945  11.613   7.991  0.0395 -0.0583 -0.0860
 1178ERGO   ROH13437   7.825   2.038   9.350  0.0887 -0.0227  0.0543
 1178ERGO    R113438   7.924   2.011   9.086  0.0428  0.0649  0.0268
 1178ERGO    R213439   7.774   1.900   8.882  0.0771 -0.0540  0.0611
 1178ERGO    R313440   7.833   2.134   8.756 -0.1471  0.0008  0.0544
 1178ERGO    R413441   7.895   1.925   8.559  0.1019  0.0540  0.0791
 1178ERGO    R513442   8.029   2.084   8.627 -0.0744  0.1985  0.0882
 1178ERGO    C113443   8.021   2.159   8.253 -0.0940  0.1684  0.0833
 1178ERGO    C213444   8.147   2.120   7.909  0.0568  0.1029 -0.0706
 1179ERGO   ROH13445  10.840   5.250   9.756  0.1426 -0.0803  0.0634
 1179ERGO    R113446  10.924   5.088   9.540  0.0540 -0.1122  0.0516
 1179ERGO    R213447  10.769   5.047   9.314  0.0537  0.0356  0.0200
 1179ERGO    R313448  10.991   5.135   9.185  0.1391 -0.1072  0.0693
 1179ERGO    R413449  10.855   4.965   8.990 -0.0618  0.1952 -0.0521
 1179ERGO    R513450  11.062   4.948   9.054 -0.0754 -0.0818 -0.0834
 1179ERGO    C113451  11.115   5.000   8.680 -0.0487  0.1542 -0.0480
 1179ERGO    C213452  11.083   4.893   8.432  0.0460 -0.0564 -0.0677
 1180ERGO   ROH13453   1.835  17.293   7.284 -0.0303  0.0329 -0.0428
 1180ERGO    R113454   1.840  17.405   7.544  0.0816 -0.0511 -0.0084
 1180ERGO    R213455   1.761  17.264   7.768  0.0324 -0.0733 -0.0406
 1180ERGO    R313456   2.008  17.334   7.859  0.0910 -0.2526 -0.0572
 1180ERGO    R413457   1.835  17.352   8.094  0.0895  0.0023 -0.0733
 1180ERGO    R513458   1.966  17.508   8.018  0.2342 -0.1450 -0.1340
 1180ERGO    C113459   2.110  17.469   8.369  0.1778 -0.1220 -0.1080
 1180ERGO    C213460   2.065  17.573   8.697 -0.1226 -0.1842 -0.1699
 1181ERGO   ROH13461  10.627   2.267   6.475 -0.0501 -0.0386  0.0160
 1181ERGO    R113462  10.676   2.312   6.751 -0.0727 -0.1310  0.0368
 1181ERGO    R213463  10.548   2.510   6.895 -0.0030 -0.0997  0.0698
 1181ERGO    R313464  10.482   2.303   7.058 -0.1303 -0.1144 -0.0012
 1181ERGO    R413465  10.492   2.536   7.235  0.1133 -0.2084  0.0969
 1181ERGO    R513466  10.598   2.349   7.262 -0.0391 -0.3058 -0.0143
 1181ERGO    C113467  10.397   2.357   7.586  0.0616 -0.2856  0.0460
 1181ERGO    C213468  10.292   2.459   7.861 -0.0776 -0.0813 -0.2309
 1182ERGO   ROH13469   5.794  16.867   6.499 -0.0808  0.0503  0.0255
 1182ERGO    R113470   5.947  17.003   6.695 -0.0595  0.0478  0.0131
 1182ERGO    R213471   5.915  16.958   6.966 -0.1200  0.1340  0.0296
 1182ERGO    R313472   6.182  16.910   6.957 -0.1388  0.0248  0.0730
 1182ERGO    R413473   6.132  16.996   7.232 -0.1215  0.1122  0.0325
 1182ERGO    R513474   6.278  17.081   7.095 -0.0783  0.0134  0.0327
 1182ERGO    C113475   6.509  16.974   7.379 -0.1401 -0.0029  0.0750
 1182ERGO    C213476   6.581  16.785   7.619  0.1751 -0.0500 -0.1026
 1183ERGO   ROH13477  10.955   0.845   9.557  0.0808 -0.0320 -0.0842
 1183ERGO    R113478  10.853   0.941   9.311  0.0532  0.0159 -0.0544
 1183ERGO    R213479  11.004   0.946   9.079  0.0409  0.1002 -0.0611
 1183ERGO    R313480  10.795   0.805   8.978  0.0583  0.0929 -0.0868
 1183ERGO    R413481  10.987   0.824   8.757  0.0634  0.1431 -0.0785
 1183ERGO    R513482  10.776   0.881   8.752  0.0576  0.1225 -0.0769
 1183ERGO    C113483  10.780   0.620   8.474  0.0929  0.1614 -0.1129
 1183ERGO    C213484  10.648   0.511   8.252  0.1568  0.1789  0.0991
 1184ERGO   ROH13485  10.483  13.779  10.070 -0.1524  0.0876 -0.0592
 1184ERGO    R113486  10.661  13.647   9.894  0.0041  0.1741  0.0323
 1184ERGO    R213487  10.596  13.591   9.631  0.0712 -0.0761  0.0670
 1184ERGO    R313488  10.828  13.725   9.580 -0.0791  0.1585 -0.0161
 1184ERGO    R413489  10.805  13.528   9.363  0.2319 -0.1338  0.2038
 1184ERGO    R513490  10.976  13.556   9.496  0.1610  0.2398  0.2286
 1184ERGO    C113491  11.144  13.617   9.159  0.1844  0.0530  0.2056
 1184ERGO    C213492  11.326  13.729   8.806  0.0613 -0.1846  0.1218
 1185ERGO   ROH13493  11.387  16.321   6.535  0.3361 -0.1191 -0.0706
 1185ERGO    R113494  11.490  16.189   6.764  0.2366  0.0257  0.0595
 1185ERGO    R213495  11.603  16.326   6.977 -0.0582  0.1739  0.1226
 1185ERGO    R313496  11.420  16.185   7.121 -0.0783  0.0729  0.0014
 1185ERGO    R413497  11.556  16.354   7.318 -0.1894  0.0349  0.1178
 1185ERGO    R513498  11.531  16.138   7.328 -0.1404  0.0222  0.0257
 1185ERGO    C113499  11.357  16.239   7.652 -0.2845 -0.1408  0.0013
 1185ERGO    C213500  11.263  16.581   7.779  0.0989  0.3806 -0.1954
 1186ERGO   ROH13501   0.586  11.930   6.580 -0.2270  0.1085 -0.0892
 1186ERGO    R113502   0.718  11.753   6.756 -0.1758  0.0673 -0.1680
 1186ERGO    R213503   0.646  11.727   7.022 -0.0012  0.1167 -0.1145
 1186ERGO    R313504   0.626  11.464   6.958 -0.1552  0.1199 -0.0829
 1186ERGO    R413505   0.644  11.467   7.250  0.1010  0.1292 -0.0988
 1186ERGO    R513506   0.770  11.353   7.114 -0.0599  0.0749 -0.2023
 1186ERGO    C113507   0.624  11.069   7.323  0.0159  0.1397 -0.0600
 1186ERGO    C213508   0.714  10.903   7.551  0.1298  0.0720  0.0963
 1187ERGO   ROH13509   7.055   5.685   9.602 -0.0311 -0.3224 -0.0728
 1187ERGO    R113510   7.167   5.849   9.401  0.1529 -0.4197 -0.0528
 1187ERGO    R213511   7.310   5.747   9.187 -0.1739 -0.5814 -0.2039
 1187ERGO    R313512   7.130   5.888   9.041 -0.0112 -0.1553 -0.0098
 1187ERGO    R413513   7.353   5.839   8.857 -0.1650 -0.3625 -0.1432
 1187ERGO    R513514   7.264   6.032   8.904  0.1680 -0.2523  0.0621
 1187ERGO    C113515   7.209   6.025   8.527 -0.0069  0.1650  0.0745
 1187ERGO    C213516   7.165   6.104   8.209  0.1315 -0.4881 -0.2226
 1188ERGO   ROH13517   4.995   1.399   6.757 -0.0584  0.1637  0.0245
 1188ERGO    R113518   5.242   1.397   6.894 -0.0105  0.0712 -0.0623
 1188ERGO    R213519   5.305   1.580   7.091  0.0912 -0.0063 -0.0201
 1188ERGO    R313520   5.353   1.357   7.239  0.1014 -0.0675 -0.1140
 1188ERGO    R413521   5.566   1.545   7.314  0.1930 -0.1626 -0.1606
 1188ERGO    R513522   5.592   1.340   7.243  0.0963 -0.1449 -0.2376
 1188ERGO    C113523   5.764   1.316   7.583  0.2619 -0.3111 -0.3306
 1188ERGO    C213524   6.015   1.359   7.970 -0.1866  0.0119 -0.1532
 1189ERGO   ROH13525  17.071   4.604   6.908 -0.1714 -0.0455  0.2379
 1189ERGO    R113526  17.034   4.802   7.107 -0.0196  0.1611  0.0653
 1189ERGO    R213527  17.124   4.772   7.367 -0.2497  0.2153  0.1537
 1189ERGO    R313528  17.247   5.009   7.318  0.1424  0.0005  0.0612
 1189ERGO    R413529  17.217   4.999   7.609 -0.2937  0.3568  0.0389
 1189ERGO    R513530  17.151   5.160   7.477  0.1093  0.3084 -0.2388
 1189ERGO    C113531  17.387   5.355   7.705  0.0486  0.2375 -0.1147
 1189ERGO    C213532  17.546   5.597   7.869  0.0880  0.0177  0.1426
 1190ERGO   ROH13533  16.155   6.802   9.238  0.2808  0.1783 -0.0999
 1190ERGO    R113534  16.254   6.626   9.038  0.1079  0.1170 -0.1351
 1190ERGO    R213535  16.196   6.356   9.036  0.1661  0.0944  0.0406
 1190ERGO    R313536  16.111   6.409   8.784 -0.1231 -0.0224  0.1110
 1190ERGO    R413537  16.106   6.116   8.804  0.2249 -0.0176  0.1342
 1190ERGO    R513538  16.207   6.234   8.651 -0.0492  0.0821  0.0363
 1190ERGO    C113539  15.975   6.026   8.432 -0.0124 -0.1926  0.2549
 1190ERGO    C213540  15.763   5.828   8.275 -0.1383 -0.0088 -0.0653
 1191ERGO   ROH13541   6.781  17.633   6.469  0.0698  0.0279  0.2138
 1191ERGO    R113542   6.981  17.432   6.478 -0.0373 -0.0948 -0.0385
 1191ERGO    R213543   7.161  17.410   6.687  0.2145 -0.2011 -0.2613
 1191ERGO    R313544   7.068  17.155   6.697  0.0709 -0.1479 -0.1446
 1191ERGO    R413545   7.320  17.149   6.847  0.0669 -0.2113 -0.1294
 1191ERGO    R513546   7.265  17.020   6.681  0.0017 -0.2634 -0.0742
 1191ERGO    C113547   7.325  16.757   6.950 -0.1538 -0.1675  0.0571
 1191ERGO    C213548   7.403  16.467   7.148  0.0710  0.1573  0.2137
 1192ERGO   ROH13549   6.993   8.949   6.794  0.0499  0.0624  0.0064
 1192ERGO    R113550   7.106   8.781   6.992  0.0101  0.0877  0.0511
 1192ERGO    R213551   7.377   8.737   7.013  0.0008  0.0199  0.0567
 1192ERGO    R313552   7.338   8.819   7.270  0.0279  0.1043  0.0336
 1192ERGO    R413553   7.585   8.661   7.279 -0.0725 -0.0493  0.0936
 1192ERGO    R513554   7.407   8.632   7.403 -0.1021  0.0915  0.0834
 1192ERGO    C113555   7.668   8.693   7.674 -0.0898 -0.0102  0.0934
 1192ERGO    C213556   7.889   8.790   7.931 -0.2615 -0.2268 -0.1178
 1193ERGO   ROH13557  14.081   2.612   9.737  0.1911 -0.1389  0.0027
 1193ERGO    R113558  14.196   2.564   9.483 -0.0134 -0.1128 -0.0987
 1193ERGO    R213559  14.078   2.646   9.247 -0.0738  0.1554  0.0158
 1193ERGO    R313560  14.319   2.765   9.206  0.0295 -0.0740 -0.0499
 1193ERGO    R413561  14.180   2.786   8.948 -0.1557  0.3644  0.0848
 1193ERGO    R513562  14.378   2.702   8.982 -0.2227  0.1002 -0.1671
 1193ERGO    C113563  14.466   2.979   8.735 -0.1065  0.2707  0.0632
 1193ERGO    C213564  14.593   3.117   8.471  0.2637 -0.0581  0.1939
 1194ERGO   ROH13565   9.920   9.017   9.316  0.0683  0.2316  0.0216
 1194ERGO    R113566   9.792   9.079   9.072 -0.0441  0.0752  0.0379
 1194ERGO    R213567   9.932   9.151   8.844 -0.1556  0.1379 -0.0174
 1194ERGO    R313568   9.791   8.947   8.733 -0.0212 -0.0036  0.0700
 1194ERGO    R413569   9.953   9.053   8.513 -0.0019 -0.0857  0.0570
 1194ERGO    R513570   9.737   9.025   8.513  0.0171 -0.1855 -0.0002
 1194ERGO    C113571   9.832   8.804   8.216  0.2138 -0.3490  0.1823
 1194ERGO    C213572   9.795   8.474   8.154 -0.2788 -0.0037 -0.2382
 1195ERGO   ROH13573  15.127   2.361  10.081 -0.1197  0.0350 -0.0241
 1195ERGO    R113574  15.122   2.384   9.799  0.1168  0.0547 -0.0312
 1195ERGO    R213575  15.291   2.239   9.635  0.0439 -0.1832  0.0789
 1195ERGO    R313576  15.058   2.163   9.517  0.0112  0.1471 -0.0762
 1195ERGO    R413577  15.266   2.082   9.328  0.0190 -0.2574  0.1209
 1195ERGO    R513578  15.092   2.206   9.284  0.2544  0.0033 -0.0616
 1195ERGO    C113579  15.033   1.920   9.038 -0.0261  0.0096 -0.0002
 1195ERGO    C213580  15.150   1.817   8.723  0.1165 -0.1534  0.1802
 1196ERGO   ROH13581   9.809   1.276   6.340 -0.0779 -0.0863  0.1658
 1196ERGO    R113582   9.602   1.431   6.455 -0.0518 -0.0478  0.1611
 1196ERGO    R213583   9.416   1.326   6.631  0.0046  0.0172  0.2598
 1196ERGO    R313584   9.501   1.529   6.791  0.0408  0.0885  0.1508
 1196ERGO    R413585   9.227   1.472   6.881  0.0597  0.1179  0.2427
 1196ERGO    R513586   9.306   1.666   6.820  0.0420  0.0959  0.1381
 1196ERGO    C113587   9.196   1.747   7.176  0.1257  0.2436  0.1305
 1196ERGO    C213588   9.155   1.912   7.494  0.3477 -0.1545 -0.0277
 1197ERGO   ROH13589   5.760  16.136   8.595  0.0991 -0.1554 -0.2731
 1197ERGO    R113590   5.679  16.337   8.412  0.1237 -0.0283 -0.1456
 1197ERGO    R213591   5.823  16.398   8.184 -0.0421 -0.1311 -0.2774
 1197ERGO    R313592   5.586  16.351   8.060 -0.2190  0.1499 -0.0523
 1197ERGO    R413593   5.764  16.444   7.847 -0.1910 -0.4019 -0.2909
 1197ERGO    R513594   5.568  16.526   7.897 -0.0171  0.0065 -0.2354
 1197ERGO    C113595   5.506  16.426   7.534 -0.4439 -0.2959 -0.0875
 1197ERGO    C213596   5.415  16.331   7.261 -0.2211  0.1857  0.0464
 1198ERGO   ROH13597   4.116   8.132   6.254 -0.0076 -0.1489 -0.0724
 1198ERGO    R113598   4.291   8.051   6.461  0.0685 -0.0585 -0.1004
 1198ERGO    R213599   4.388   8.226   6.651 -0.0520 -0.0215 -0.0699
 1198ERGO    R313600   4.285   8.044   6.825  0.0953 -0.1369 -0.1018
 1198ERGO    R413601   4.433   8.233   6.993 -0.2141  0.0592 -0.0493
 1198ERGO    R513602   4.456   8.016   6.990  0.0567  0.0872 -0.0228
 1198ERGO    C113603   4.363   8.066   7.356 -0.1701 -0.0022 -0.0672
 1198ERGO    C213604   4.159   8.184   7.586 -0.1721 -0.1357  0.4196
 1199ERGO   ROH13605   3.858  13.497  10.117 -0.0747  0.2410 -0.0378
 1199ERGO    R113606   4.029  13.482   9.891 -0.0328  0.1861 -0.0035
 1199ERGO    R213607   4.023  13.270   9.714 -0.0507  0.1768  0.0042
 1199ERGO    R313608   3.989  13.467   9.530  0.0345  0.1771 -0.0102
 1199ERGO    R413609   4.174  13.277   9.404  0.0387  0.1452  0.0474
 1199ERGO    R513610   4.206  13.492   9.429  0.0661  0.1394  0.0507
 1199ERGO    C113611   4.231  13.466   9.050  0.1706  0.1271  0.0592
 1199ERGO    C213612   4.484  13.380   8.773 -0.2213  0.0368  0.1481
 1200ERGO   ROH13613   2.637   4.008   6.926 -0.0935 -0.2128 -0.0235
 1200ERGO    R113614   2.487   4.097   7.149  0.0048  0.1169 -0.0842
 1200ERGO    R213615   2.554   4.032   7.409 -0.2016  0.0214 -0.0560
 1200ERGO    R313616   2.547   4.301   7.443  0.3128  0.0499 -0.0964
 1200ERGO    R413617   2.449   4.192   7.697 -0.1756  0.2622 -0.1774
 1200ERGO    R513618   2.349   4.340   7.572  0.2473  0.4635 -0.3006
 1200ERGO    C113619   2.381   4.538   7.896  0.3225  0.4292 -0.2859
 1200ERGO    C213620   2.209   4.615   8.045 -0.0482  0.1136 -0.2888
 1201ERGO   ROH13621  12.046   0.503   6.456 -0.1554 -0.1419  0.0585
 1201ERGO    R113622  11.884   0.568   6.678 -0.0607  0.0156  0.0839
 1201ERGO    R213623  11.980   0.573   6.937 -0.0270 -0.1313  0.0762
 1201ERGO    R313624  11.878   0.825   6.936  0.2618 -0.0100  0.1201
 1201ERGO    R413625  11.880   0.745   7.219  0.2492 -0.0256  0.1129
 1201ERGO    R513626  11.709   0.820   7.106  0.3024  0.1784  0.1666
 1201ERGO    C113627  11.726   1.081   7.383  0.6810  0.1498  0.1756
 1201ERGO    C213628  11.843   1.246   7.728  0.1335 -0.0000  0.1266
 1202ERGO   ROH13629  17.598  12.233   9.894 -0.3802 -0.0133 -0.1266
 1202ERGO    R113630  17.611  12.402   9.668 -0.1157  0.0175 -0.0925
 1202ERGO    R213631  17.845  12.442   9.526  0.0141 -0.1124  0.0669
 1202ERGO    R313632  17.692  12.365   9.315  0.0983  0.0178 -0.0428
 1202ERGO    R413633  17.925  12.497   9.194  0.2339 -0.0884  0.1230
 1202ERGO    R513634  17.716  12.543   9.156  0.2868  0.0336  0.0071
 1202ERGO    C113635  17.828  12.456   8.803  0.4408  0.0480  0.0528
 1202ERGO    C213636  18.117  12.476   8.568  0.0786  0.2101  0.0784
 1203ERGO   ROH13637   0.055   7.800   9.320  0.1524  0.0122  0.0923
 1203ERGO    R113638   0.036   7.937   9.073  0.2110  0.0391  0.1023
 1203ERGO    R213639   0.253   7.975   8.907  0.1915 -0.2124  0.0141
 1203ERGO    R313640   0.092   7.858   8.722 -0.0230 -0.0240  0.0777
 1203ERGO    R413641   0.352   7.880   8.590 -0.0204 -0.4178  0.0072
 1203ERGO    R513642   0.161   7.952   8.514  0.0596 -0.1626  0.0416
 1203ERGO    C113643   0.258   7.714   8.232 -0.3452 -0.3605  0.0630
 1203ERGO    C213644   0.380   7.490   7.951  0.0584  0.1577 -0.1937
 1204ERGO   ROH13645   5.260   9.176   9.519 -0.1073 -0.1758  0.0424
 1204ERGO    R113646   5.356   9.115   9.259 -0.0664 -0.3677  0.1016
 1204ERGO    R213647   5.213   8.961   9.080 -0.3307  0.0186 -0.0242
 1204ERGO    R313648   5.248   9.175   8.917  0.3265 -0.0285  0.0279
 1204ERGO    R413649   5.260   8.944   8.738 -0.4702 -0.0590 -0.0411
 1204ERGO    R513650   5.409   9.102   8.756  0.0677 -0.5239 -0.0321
 1204ERGO    C113651   5.321   9.136   8.386  0.0654 -0.1484 -0.0019
 1204ERGO    C213652   5.481   9.252   8.065 -0.2680  0.3937  0.1513
 1205ERGO   ROH13653   7.169   9.972   9.683  0.0462 -0.1133  0.0771
 1205ERGO    R113654   7.013   9.846   9.484 -0.0939  0.2013 -0.0173
 1205ERGO    R213655   7.016   9.926   9.220  0.2987  0.1471 -0.0338
 1205ERGO    R313656   7.074   9.665   9.174 -0.2624 -0.0100  0.0704
 1205ERGO    R413657   6.943   9.756   8.928  0.3970  0.3418 -0.1751
 1205ERGO    R513658   6.887   9.583   9.049 -0.2556  0.4598 -0.2724
 1205ERGO    C113659   6.955   9.411   8.715 -0.0725  0.3077 -0.1596
 1205ERGO    C213660   6.824   9.153   8.447  0.0147  0.4279 -0.2858
 1206ERGO   ROH13661  11.410  17.921   9.627 -0.2183 -0.1042  0.0941
 1206ERGO    R113662  11.217  17.871   9.426 -0.0187  0.0439 -0.1402
 1206ERGO    R213663  11.278  17.876   9.157  0.3556 -0.1919 -0.0682
 1206ERGO    R313664  11.168  17.627   9.161  0.0128 -0.0450 -0.0643
 1206ERGO    R413665  11.167  17.704   8.878  0.2599 -0.1062 -0.0830
 1206ERGO    R513666  10.996  17.636   8.995  0.1049  0.1518 -0.1522
 1206ERGO    C113667  10.999  17.371   8.720 -0.1177  0.0817 -0.0879
 1206ERGO    C213668  11.010  17.129   8.441  0.2830 -0.0679  0.2127
 1207ERGO   ROH13669   4.405  17.153   6.971  0.0372  0.1688  0.0814
 1207ERGO    R113670   4.468  16.987   7.191  0.0581  0.0656 -0.0035
 1207ERGO    R213671   4.724  16.961   7.289  0.0159  0.2605  0.1485
 1207ERGO    R313672   4.608  17.030   7.524 -0.2159 -0.0447  0.1312
 1207ERGO    R413673   4.804  16.824   7.596  0.1042  0.2282  0.1123
 1207ERGO    R513674   4.591  16.824   7.645  0.0670 -0.1465  0.0154
 1207ERGO    C113675   4.741  16.809   7.996 -0.0619 -0.0771  0.0750
 1207ERGO    C213676   4.796  16.640   8.275  0.2098 -0.0513  0.0595
 1208ERGO   ROH13677  17.696   8.000   6.689  0.2144 -0.0125 -0.0955
 1208ERGO    R113678  17.743   8.034   6.966  0.2471 -0.0146 -0.1010
 1208ERGO    R213679  17.539   8.051   7.151  0.2622  0.1975 -0.1018
 1208ERGO    R313680  17.674   7.847   7.271  0.0802  0.0913 -0.0732
 1208ERGO    R413681  17.615   8.035   7.488  0.2442  0.1712 -0.0986
 1208ERGO    R513682  17.811   7.955   7.436  0.1747 -0.0100 -0.0851
 1208ERGO    C113683  17.785   7.834   7.797  0.0632  0.0561 -0.0699
 1208ERGO    C213684  17.922   7.721   8.076  0.0468  0.0644  0.2999
 1209ERGO   ROH13685  11.478  14.673   9.985 -0.1222  0.0287 -0.1080
 1209ERGO    R113686  11.539  14.482   9.785 -0.0650  0.0110 -0.0735
 1209ERGO    R213687  11.540  14.544   9.515 -0.0530 -0.0293 -0.0822
 1209ERGO    R313688  11.792  14.443   9.526 -0.0331  0.0233 -0.0446
 1209ERGO    R413689  11.674  14.322   9.287 -0.0525 -0.1846  0.0667
 1209ERGO    R513690  11.769  14.217   9.452 -0.0061 -0.0403  0.1348
 1209ERGO    C113691  11.988  14.098   9.164 -0.0334 -0.2256  0.1888
 1209ERGO    C213692  12.171  14.046   8.869 -0.0330 -0.1617 -0.1647
 1210ERGO   ROH13693  11.746  12.745   9.788 -0.0968 -0.1954  0.1044
 1210ERGO    R113694  11.940  12.703   9.586 -0.0022 -0.1166  0.1786
 1210ERGO    R213695  11.874  12.611   9.333  0.1269 -0.1007  0.1424
 1210ERGO    R313696  12.007  12.834   9.253  0.1018 -0.0560  0.2222
 1210ERGO    R413697  12.078  12.631   9.055 -0.0120  0.0616  0.0494
 1210ERGO    R513698  12.217  12.753   9.171  0.0569 -0.0220  0.0630
 1210ERGO    C113699  12.322  12.852   8.818 -0.1166  0.1982  0.0703
 1210ERGO    C213700  12.488  12.846   8.539  0.2978 -0.2705 -0.0228
 1211ERGO   ROH13701  15.358  10.593   6.735  0.1356  0.1318  0.0103
 1211ERGO    R113702  15.326  10.511   7.004  0.2201 -0.0102 -0.0211
 1211ERGO    R213703  15.540  10.475   7.175  0.2532  0.3267  0.0166
 1211ERGO    R313704  15.402  10.648   7.333 -0.1027  0.0335  0.0390
 1211ERGO    R413705  15.568  10.494   7.519  0.2238  0.3397  0.0175
 1211ERGO    R513706  15.352  10.522   7.530  0.1566 -0.0999  0.0250
 1211ERGO    C113707  15.454  10.668   7.867 -0.1276  0.0720  0.0391
 1211ERGO    C213708  15.548  10.501   8.285 -0.1853 -0.0741 -0.0543
 1212ERGO   ROH13709   7.752  13.427   6.532  0.3224 -0.0423 -0.0067
 1212ERGO    R113710   7.826  13.603   6.741  0.3339 -0.0925  0.0314
 1212ERGO    R213711   7.642  13.755   6.880  0.3761  0.1217 -0.1480
 1212ERGO    R313712   7.756  13.636   7.096  0.0673  0.0317 -0.0284
 1212ERGO    R413713   7.655  13.892   7.197  0.3648  0.2349 -0.1961
 1212ERGO    R513714   7.858  13.817   7.216  0.2542 -0.0594 -0.0374
 1212ERGO    C113715   7.770  13.861   7.585  0.0684  0.2162 -0.1118
 1212ERGO    C213716   7.812  14.006   7.871  0.1500  0.0603  0.0070
 1213ERGO   ROH13717   4.245  11.036   9.667 -0.0058 -0.0712 -0.1293
 1213ERGO    R113718   4.118  10.990   9.418  0.0772  0.0193 -0.1892
 1213ERGO    R213719   3.851  11.048   9.374  0.0538 -0.1080 -0.2089
 1213ERGO    R313720   3.950  11.191   9.166  0.0156  0.0898 -0.0939
 1213ERGO    R413721   3.713  11.057   9.058  0.0165  0.1528 -0.1869
 1213ERGO    R513722   3.914  11.051   8.975  0.0113  0.2500 -0.2150
 1213ERGO    C113723   3.725  11.197   8.678 -0.0410  0.4904 -0.0662
 1213ERGO    C213724   3.558  11.379   8.541 -0.2322 -0.0486 -0.0185
 1214ERGO   ROH13725   5.516  10.385   6.871  0.1313 -0.0419 -0.1445
 1214ERGO    R113726   5.458  10.449   7.141  0.0203  0.0504 -0.1880
 1214ERGO    R213727   5.581  10.323   7.354 -0.3011 -0.1124 -0.0830
 1214ERGO    R313728   5.642  10.577   7.427 -0.0071 -0.1864 -0.0652
 1214ERGO    R413729   5.638  10.427   7.678 -0.1862 -0.1852 -0.0806
 1214ERGO    R513730   5.527  10.609   7.635  0.0293 -0.0578 -0.0708
 1214ERGO    C113731   5.729  10.727   7.936  0.1567 -0.2971 -0.0624
 1214ERGO    C213732   5.704  10.967   8.253  0.0473  0.2431 -0.0308
 1215ERGO   ROH13733   7.116  15.919   9.677  0.2258  0.0636 -0.1546
 1215ERGO    R113734   6.866  15.866   9.555  0.2680  0.2149 -0.3110
 1215ERGO    R213735   6.840  15.817   9.284  0.4677 -0.1677 -0.2701
 1215ERGO    R313736   6.715  15.592   9.370  0.0806  0.1249 -0.0303
 1215ERGO    R413737   6.676  15.592   9.080  0.4290 -0.3100 -0.0845
 1215ERGO    R513738   6.521  15.575   9.231  0.2217  0.1401 -0.2311
 1215ERGO    C113739   6.463  15.249   9.041  0.0431 -0.1185  0.2485
 1215ERGO    C213740   6.322  15.021   8.820  0.1690 -0.0902 -0.1866
 1216ERGO   ROH13741   8.132  17.694   6.252 -0.1812 -0.1324 -0.1228
 1216ERGO    R113742   8.064  17.551   6.488 -0.0917 -0.1549 -0.1104
 1216ERGO    R213743   8.236  17.369   6.606  0.0669  0.0392 -0.0350
 1216ERGO    R313744   8.195  17.523   6.826 -0.1387  0.0437 -0.0749
 1216ERGO    R413745   8.166  17.249   6.923  0.1345  0.0328 -0.0223
 1216ERGO    R513746   8.023  17.411   6.947 -0.0426 -0.1132 -0.0834
 1216ERGO    C113747   8.087  17.325   7.313 -0.0193  0.0335 -0.0524
 1216ERGO    C213748   7.791  17.287   7.593 -0.0616  0.1258  0.4233
 1217ERGO   ROH13749   4.027  16.364  10.291  0.2016  0.2184 -0.0035
 1217ERGO    R113750   4.163  16.224  10.087  0.0722 -0.0574  0.0936
 1217ERGO    R213751   4.091  15.969  10.007 -0.3034  0.0303  0.1289
 1217ERGO    R313752   4.080  16.085   9.761 -0.0083 -0.0103  0.0940
 1217ERGO    R413753   4.040  15.799   9.710  0.0135 -0.0128  0.0955
 1217ERGO    R513754   4.188  15.927   9.616  0.1381 -0.0481  0.2424
 1217ERGO    C113755   4.000  15.808   9.307  0.4751 -0.0760  0.0434
 1217ERGO    C213756   3.828  15.546   9.009 -0.1496 -0.0418 -0.0534
 1218ERGO   ROH13757  14.827  10.642  10.109  0.0991  0.0361 -0.0071
 1218ERGO    R113758  14.938  10.561   9.862  0.0351 -0.0119 -0.0206
 1218ERGO    R213759  14.965  10.732   9.647  0.0909 -0.0209 -0.0208
 1218ERGO    R313760  15.225  10.655   9.658  0.0566 -0.1407 -0.0512
 1218ERGO    R413761  15.193  10.773   9.391  0.1740  0.2351  0.0914
 1218ERGO    R513762  15.272  10.575   9.437  0.0821  0.1366 -0.1513
 1218ERGO    C113763  15.571  10.723   9.252  0.1902  0.2718  0.1281
 1218ERGO    C213764  15.805  10.856   9.188  0.0918  0.0966 -0.1807
 1219ERGO   ROH13765   2.961  17.139  10.050  0.1226  0.1231 -0.1074
 1219ERGO    R113766   2.859  17.215   9.797  0.0136  0.1008 -0.0714
 1219ERGO    R213767   2.604  17.148   9.713  0.0212 -0.0254 -0.0131
 1219ERGO    R313768   2.581  17.416   9.674 -0.1277 -0.0314  0.0327
 1219ERGO    R413769   2.493  17.296   9.421  0.3186 -0.0184 -0.1254
 1219ERGO    R513770   2.647  17.448   9.446  0.1672  0.0892  0.1353
 1219ERGO    C113771   2.407  17.634   9.215  0.3520 -0.0199 -0.1479
 1219ERGO    C213772   2.031  17.857   9.097  0.1488  0.0423  0.0679
 1220ERGO   ROH13773   3.917   5.014   9.703  0.0493 -0.0214 -0.1129
 1220ERGO    R113774   3.888   5.134   9.449  0.0847 -0.0931 -0.1506
 1220ERGO    R213775   3.924   4.994   9.213 -0.1368 -0.2243 -0.1071
 1220ERGO    R313776   3.675   5.088   9.157 -0.0626  0.0063 -0.0603
 1220ERGO    R413777   3.814   5.084   8.898 -0.1258 -0.1650 -0.0946
 1220ERGO    R513778   3.712   5.254   8.988  0.0576 -0.0515 -0.0936
 1220ERGO    C113779   3.516   5.225   8.662 -0.0499  0.0860 -0.0431
 1220ERGO    C213780   3.485   5.255   8.341 -0.1053 -0.0225  0.0668
 1221ERGO   ROH13781  14.639   7.776   6.002 -0.0682  0.0143  0.1827
 1221ERGO    R113782  14.480   7.786   6.236 -0.1327 -0.0464  0.1419
 1221ERGO    R213783  14.258   7.949   6.259 -0.1386 -0.0530  0.1228
 1221ERGO    R313784  14.134   7.716   6.324 -0.1570 -0.0695  0.0296
 1221ERGO    R413785  13.958   7.923   6.429 -0.1289 -0.0971  0.1336
 1221ERGO    R513786  14.040   7.755   6.539 -0.1372 -0.1543  0.0544
 1221ERGO    C113787  13.667   7.689   6.588 -0.1404 -0.1382  0.0524
 1221ERGO    C213788  13.412   7.574   6.808  0.0040  0.1152  0.0975
 1222ERGO   ROH13789   7.751  16.927   9.298  0.1227 -0.0968 -0.0248
 1222ERGO    R113790   7.791  17.037   9.041 -0.1464  0.1078  0.0159
 1222ERGO    R213791   7.920  16.900   8.838  0.1348  0.4679 -0.0653
 1222ERGO    R313792   7.693  16.955   8.700 -0.0154  0.0366 -0.0039
 1222ERGO    R413793   7.887  16.876   8.495  0.0189  0.2370 -0.0392
 1222ERGO    R513794   7.770  17.060   8.499 -0.2697  0.0534 -0.0907
 1222ERGO    C113795   7.654  16.914   8.165 -0.1896 -0.3025  0.0337
 1222ERGO    C213796   7.435  16.944   7.810  0.0189  0.2274  0.2137
 1223ERGO   ROH13797   5.650  17.671  10.060 -0.1856 -0.0003  0.0640
 1223ERGO    R113798   5.653  17.573   9.794 -0.0310 -0.1587  0.1235
 1223ERGO    R213799   5.696  17.737   9.576 -0.2594 -0.2262  0.0286
 1223ERGO    R313800   5.894  17.558   9.521  0.0075  0.0233  0.1453
 1223ERGO    R413801   5.852  17.702   9.269 -0.2532 -0.2359  0.0319
 1223ERGO    R513802   5.848  17.486   9.298  0.0782 -0.2270  0.2069
 1223ERGO    C113803   6.128  17.514   9.039  0.0010 -0.0073  0.1434
 1223ERGO    C213804   6.189  17.401   8.701 -0.0852  0.0339 -0.1415
 1224ERGO   ROH13805   2.542   0.801   7.162  0.0230 -0.0433  0.0021
 1224ERGO    R113806   2.604   0.893   7.423  0.0323 -0.0287 -0.0064
 1224ERGO    R213807   2.636   0.721   7.637  0.0690 -0.0156 -0.0091
 1224ERGO    R313808   2.876   0.848   7.661  0.0561  0.0140 -0.0230
 1224ERGO    R413809   2.832   0.721   7.922 -0.0422  0.2127  0.0708
 1224ERGO    R513810   2.876   0.932   7.886 -0.0365  0.1931 -0.0824
 1224ERGO    C113811   3.170   0.840   8.111 -0.1191  0.3733  0.1043
 1224ERGO    C213812   3.530   1.056   8.328  0.4469  0.0213 -0.1547
 1225ERGO   ROH13813   1.241   2.154   6.582 -0.1968 -0.0750  0.0801
 1225ERGO    R113814   1.255   2.152   6.865 -0.0664 -0.0992  0.0740
 1225ERGO    R213815   1.156   2.358   7.021  0.1962 -0.0099  0.1310
 1225ERGO    R313816   1.019   2.157   7.142  0.0641  0.1104  0.1839
 1225ERGO    R413817   1.069   2.351   7.355  0.2302  0.1105  0.1426
 1225ERGO    R513818   1.119   2.139   7.359  0.0764  0.0757  0.1742
 1225ERGO    C113819   0.890   2.159   7.664  0.1260  0.2935  0.1989
 1225ERGO    C213820   0.867   2.156   7.946 -0.2879  0.0238  0.0580
 1226ERGO   ROH13821   0.341   0.476  10.479 -0.2803  0.1548  0.1043
 1226ERGO    R113822   0.282   0.522  10.207 -0.2113  0.0522  0.0716
 1226ERGO    R213823   0.478   0.562  10.017 -0.1673  0.1217  0.1316
 1226ERGO    R313824   0.352   0.358   9.889 -0.0011  0.0148  0.1360
 1226ERGO    R413825   0.388   0.563   9.683 -0.2053  0.0588  0.1415
 1226ERGO    R513826   0.201   0.466   9.738 -0.1149 -0.1106  0.1577
 1226ERGO    C113827   0.218   0.371   9.369 -0.0713 -0.0783  0.1513
 1226ERGO    C213828   0.203   0.391   8.996 -0.0384 -0.0117 -0.0433
 1227ERGO   ROH13829  11.892   3.599   6.345 -0.1669  0.0631 -0.1187
 1227ERGO    R113830  11.887   3.388   6.534 -0.1313  0.0154 -0.1707
 1227ERGO    R213831  12.115   3.296   6.661 -0.1008 -0.0442 -0.2667
 1227ERGO    R313832  11.971   3.346   6.885 -0.0235 -0.0835 -0.2076
 1227ERGO    R413833  12.238   3.275   6.983 -0.0278 -0.2304 -0.3049
 1227ERGO    R513834  12.050   3.185   7.044 -0.0473 -0.1820 -0.2962
 1227ERGO    C113835  12.174   3.310   7.382  0.0870 -0.3757 -0.2717
 1227ERGO    C213836  12.243   3.383   7.672  0.1382  0.1995 -0.1137
 1228ERGO   ROH13837  11.629   2.027   6.413  0.1221 -0.1694  0.0066
 1228ERGO    R113838  11.501   1.988   6.663  0.1051 -0.1706 -0.0044
 1228ERGO    R213839  11.512   1.748   6.800  0.2145 -0.1199  0.0571
 1228ERGO    R313840  11.602   1.906   7.002  0.0919 -0.0212  0.0391
 1228ERGO    R413841  11.386   1.749   7.122  0.2871 -0.2880  0.0886
 1228ERGO    R513842  11.405   1.966   7.124  0.0412 -0.2533  0.0903
 1228ERGO    C113843  11.397   1.897   7.499  0.2142 -0.2933  0.0899
 1228ERGO    C213844  11.354   1.817   7.823  0.1387  0.0097  0.4055
 1229ERGO   ROH13845  13.650   2.672   6.620  0.1393 -0.0786  0.0646
 1229ERGO    R113846  13.744   2.820   6.842  0.0733  0.0544  0.0061
 1229ERGO    R213847  13.575   2.943   7.022  0.0145 -0.0050 -0.0042
 1229ERGO    R313848  13.716   2.799   7.204  0.1412  0.1433  0.0159
 1229ERGO    R413849  13.587   3.011   7.361 -0.2769 -0.1205  0.0324
 1229ERGO    R513850  13.800   2.963   7.358 -0.1982  0.2144  0.1293
 1229ERGO    C113851  13.727   2.916   7.729 -0.3276 -0.0485  0.0725
 1229ERGO    C213852  13.832   2.941   7.990  0.1894 -0.0638  0.0401
 1230ERGO   ROH13853  13.439  11.698   7.156 -0.0006  0.0421 -0.0724
 1230ERGO    R113854  13.518  11.521   7.362  0.1016  0.0806 -0.0778
 1230ERGO    R213855  13.537  11.599   7.627  0.1319  0.1037 -0.0862
 1230ERGO    R313856  13.371  11.389   7.668  0.2092  0.0512 -0.0385
 1230ERGO    R413857  13.548  11.389   7.901  0.1491  0.2220  0.0049
 1230ERGO    R513858  13.509  11.221   7.768  0.2522  0.1500  0.0670
 1230ERGO    C113859  13.397  11.069   8.099  0.2317  0.2416  0.1026
 1230ERGO    C213860  13.085  10.895   8.361  0.1863 -0.1021 -0.2634
 1231ERGO   ROH13861   2.677   7.226   6.478 -0.1658 -0.0309  0.0539
 1231ERGO    R113862   2.769   7.374   6.701 -0.1517  0.0180  0.0143
 1231ERGO    R213863   2.614   7.565   6.827 -0.2282 -0.1225  0.1211
 1231ERGO    R313864   2.669   7.417   7.048  0.0204 -0.0958  0.0818
 1231ERGO    R413865   2.641   7.691   7.148 -0.3319 -0.1320  0.1353
 1231ERGO    R513866   2.810   7.558   7.181 -0.1348  0.0818  0.0741
 1231ERGO    C113867   2.709   7.626   7.542 -0.1590 -0.1126  0.1066
 1231ERGO    C213868   2.829   7.814   7.848 -0.3274 -0.1594  0.1854
 1232ERGO   ROH13869  16.553   1.747   6.969  0.0088 -0.0100 -0.0613
 1232ERGO    R113870  16.551   1.890   7.213 -0.1338  0.0734 -0.1113
 1232ERGO    R213871  16.782   1.958   7.347 -0.2164  0.0576  0.0344
 1232ERGO    R313872  16.679   2.209   7.333 -0.1405  0.0818 -0.1242
 1232ERGO    R413873  16.837   2.208   7.580 -0.1853  0.1683 -0.0895
 1232ERGO    R513874  16.628   2.266   7.560 -0.1678  0.2201 -0.1612
 1232ERGO    C113875  16.772   2.589   7.702 -0.0959  0.2554 -0.3105
 1232ERGO    C213876  17.067   2.636   7.793 -0.1776  0.1063  0.2378
 1233ERGO   ROH13877  12.880  12.853   7.067 -0.0910 -0.1816  0.0185
 1233ERGO    R113878  12.787  12.821   7.333 -0.1196 -0.0223  0.0270
 1233ERGO    R213879  12.957  12.817   7.551 -0.1325 -0.0414  0.0296
 1233ERGO    R313880  12.795  13.016   7.640 -0.0152  0.0910 -0.0445
 1233ERGO    R413881  12.881  12.876   7.883 -0.2183  0.0223  0.0001
 1233ERGO    R513882  12.676  12.918   7.824 -0.1679  0.1826 -0.0875
 1233ERGO    C113883  12.685  13.098   8.160 -0.1582  0.1835 -0.0865
 1233ERGO    C213884  12.793  13.297   8.454 -0.0352  0.1412 -0.1215
 1234ERGO   ROH13885  13.029  16.138   6.923  0.0413  0.0561 -0.1534
 1234ERGO    R113886  12.890  16.202   7.162 -0.0758 -0.0669 -0.1867
 1234ERGO    R213887  12.758  16.012   7.313  0.1558 -0.2091 -0.1550
 1234ERGO    R313888  12.913  16.111   7.513  0.0037  0.0495 -0.1612
 1234ERGO    R413889  12.705  15.956   7.650  0.1978 -0.2061 -0.1483
 1234ERGO    R513890  12.758  16.164   7.688 -0.0888 -0.1218 -0.1893
 1234ERGO    C113891  12.820  16.017   8.034  0.0794  0.0383 -0.1504
 1234ERGO    C213892  12.788  15.901   8.282  0.0981 -0.0646 -0.2071
 1235ERGO   ROH13893  18.106  11.183   6.367  0.0803 -0.1468  0.1501
 1235ERGO    R113894  18.030  11.255   6.630  0.0185 -0.1897  0.1437
 1235ERGO    R213895  18.054  11.082   6.844  0.1126 -0.1711  0.1467
 1235ERGO    R313896  18.194  11.288   6.953 -0.0230 -0.0811  0.1543
 1235ERGO    R413897  18.193  11.081   7.161  0.0577 -0.0669  0.1720
 1235ERGO    R513898  18.130  11.289   7.184 -0.0649 -0.0989  0.1438
 1235ERGO    C113899  18.405  11.274   7.447 -0.1014  0.0783  0.1938
 1235ERGO    C213900  18.728  11.380   7.697  0.1773 -0.0323 -0.0100
 1236ERGO   ROH13901   8.267   2.951   9.398 -0.1693 -0.0074  0.0520
 1236ERGO    R113902   8.089   3.034   9.195 -0.0591 -0.0596 -0.0672
 1236ERGO    R213903   8.168   3.194   8.985  0.0043  0.0780  0.0608
 1236ERGO    R313904   8.062   2.995   8.834  0.2751  0.0572 -0.1090
 1236ERGO    R413905   8.021   3.240   8.676 -0.1438  0.1619  0.1428
 1236ERGO    R513906   7.868   3.094   8.733  0.0913 -0.1382  0.0415
 1236ERGO    C113907   7.835   3.079   8.354  0.0241  0.1911  0.0311
 1236ERGO    C213908   7.836   3.112   7.986  0.1025  0.3932 -0.1699
 1237ERGO   ROH13909   7.253   2.771   9.314 -0.2437  0.0580  0.0375
 1237ERGO    R113910   7.240   2.650   9.058  0.0099  0.2436 -0.0682
 1237ERGO    R213911   7.005   2.550   8.952  0.2236 -0.2716 -0.0986
 1237ERGO    R313912   7.067   2.714   8.744 -0.2317  0.0888  0.0326
 1237ERGO    R413913   6.948   2.476   8.620  0.2746 -0.0696 -0.1531
 1237ERGO    R513914   7.142   2.565   8.572  0.0559  0.4314 -0.1467
 1237ERGO    C113915   6.973   2.587   8.230 -0.1232  0.3863 -0.0614
 1237ERGO    C213916   6.765   2.597   8.004 -0.2289  0.0970  0.0740
 1238ERGO   ROH13917   8.169   8.513   9.711 -0.2432 -0.1903 -0.2248
 1238ERGO    R113918   8.125   8.568   9.437 -0.0525  0.0306 -0.2130
 1238ERGO    R213919   8.224   8.792   9.312  0.2617 -0.0129 -0.0330
 1238ERGO    R313920   8.329   8.612   9.138  0.1299 -0.0180 -0.0965
 1238ERGO    R413921   8.251   8.842   8.971  0.4131  0.1585  0.0018
 1238ERGO    R513922   8.192   8.633   8.942  0.2103  0.2345 -0.1296
 1238ERGO    C113923   8.365   8.702   8.609  0.3774  0.2536 -0.0375
 1238ERGO    C213924   8.356   8.575   8.226 -0.2257 -0.3595 -0.1689
 1239ERGO   ROH13925  18.106   7.962   6.379  0.1559 -0.2165 -0.0940
 1239ERGO    R113926  18.213   7.988   6.640 -0.0036 -0.0705 -0.0402
 1239ERGO    R213927  18.111   7.850   6.857  0.0154 -0.1384 -0.0683
 1239ERGO    R313928  18.368   7.768   6.885  0.0834  0.1166  0.0728
 1239ERGO    R413929  18.247   7.724   7.148 -0.0600 -0.1598 -0.0430
 1239ERGO    R513930  18.429   7.837   7.107 -0.1482  0.0543  0.1543
 1239ERGO    C113931  18.568   7.573   7.345 -0.0404  0.0671  0.1041
 1239ERGO    C213932  18.728   7.326   7.482  0.1988  0.2324  0.1654
 1240ERGO   ROH13933  18.254  10.579   9.584 -0.1133  0.1669  0.0676
 1240ERGO    R113934  18.359  10.629   9.326 -0.0339 -0.0195  0.0625
 1240ERGO    R213935  18.216  10.576   9.095 -0.0461  0.0125  0.0615
 1240ERGO    R313936  18.271  10.837   9.040  0.1813 -0.0530 -0.0295
 1240ERGO    R413937  18.200  10.720   8.781  0.0586 -0.0790  0.0142
 1240ERGO    R513938  18.382  10.831   8.828  0.1616 -0.2229 -0.0367
 1240ERGO    C113939  18.243  11.048   8.547  0.3328 -0.1935 -0.0988
 1240ERGO    C213940  18.187  11.098   8.206  0.2885 -0.0812  0.2928
 1241ERGO   ROH13941   1.130   2.199   9.444  0.0082  0.1336 -0.0247
 1241ERGO    R113942   1.178   2.141   9.171  0.0640  0.2271 -0.0350
 1241ERGO    R213943   1.432   2.134   9.063  0.1008  0.0438  0.0677
 1241ERGO    R313944   1.356   1.885   8.983 -0.0992  0.1531 -0.0934
 1241ERGO    R413945   1.571   1.962   8.797  0.2423 -0.0424  0.1957
 1241ERGO    R513946   1.370   1.893   8.744  0.2179  0.2101 -0.0803
 1241ERGO    C113947   1.580   1.628   8.568  0.1371  0.0100  0.1191
 1241ERGO    C213948   1.807   1.379   8.449  0.0634 -0.3230 -0.0391
 1242ERGO   ROH13949   5.537   3.565   9.534  0.1625 -0.0745  0.0843
 1242ERGO    R113950   5.370   3.554   9.305  0.1296  0.0114  0.1038
 1242ERGO    R213951   5.425   3.695   9.074  0.2497 -0.1218  0.0497
 1242ERGO    R313952   5.404   3.450   8.958 -0.0040 -0.1438  0.1358
 1242ERGO    R413953   5.381   3.638   8.736  0.3284 -0.1955  0.0514
 1242ERGO    R513954   5.242   3.478   8.786  0.1056 -0.0060  0.0532
 1242ERGO    C113955   5.336   3.374   8.431  0.1361 -0.2589  0.1334
 1242ERGO    C213956   5.368   3.321   8.104 -0.0502 -0.2559  0.1489
 1243ERGO   ROH13957  15.515  11.841   6.943  0.3070  0.1760 -0.1189
 1243ERGO    R113958  15.396  11.869   7.198  0.1791  0.0745 -0.1653
 1243ERGO    R213959  15.457  11.703   7.410 -0.0233 -0.0970 -0.2293
 1243ERGO    R313960  15.509  11.937   7.537  0.0318 -0.2009 -0.0595
 1243ERGO    R413961  15.448  11.748   7.752  0.0112 -0.3333 -0.1962
 1243ERGO    R513962  15.354  11.942   7.719  0.0516 -0.2957 -0.0469
 1243ERGO    C113963  15.492  11.995   8.071  0.0831 -0.5685 -0.0174
 1243ERGO    C213964  15.386  12.030   8.419  0.1399 -0.0599 -0.2608
 1244ERGO   ROH13965  14.805   4.310   9.717  0.0001 -0.0588  0.1720
 1244ERGO    R113966  14.609   4.286   9.515  0.0141 -0.0066  0.1521
 1244ERGO    R213967  14.519   4.501   9.368  0.0594  0.0240  0.1680
 1244ERGO    R313968  14.590   4.345   9.156  0.0552  0.0366  0.1574
 1244ERGO    R413969  14.373   4.515   9.055 -0.0519 -0.0683  0.2152
 1244ERGO    R513970  14.383   4.297   9.046  0.0397 -0.0639  0.2311
 1244ERGO    C113971  14.354   4.376   8.674 -0.1208 -0.1103  0.2326
 1244ERGO    C213972  14.240   4.444   8.271  0.0730  0.1548 -0.3197
 1245ERGO   ROH13973  15.288  13.878   7.247 -0.0729  0.1638 -0.0916
 1245ERGO    R113974  15.270  13.791   7.516 -0.1278 -0.0345 -0.1578
 1245ERGO    R213975  15.281  13.966   7.730  0.1272 -0.2171 -0.0153
 1245ERGO    R313976  15.046  13.846   7.797 -0.0097  0.0130 -0.0729
 1245ERGO    R413977  15.132  13.986   8.041  0.2102 -0.2975  0.0303
 1245ERGO    R513978  15.079  13.775   8.024 -0.0534 -0.2209 -0.1389
 1245ERGO    C113979  14.825  13.886   8.286  0.1301 -0.1283  0.0030
 1245ERGO    C213980  14.669  14.125   8.536 -0.4846 -0.2140  0.2099
 1246ERGO   ROH13981  11.795  13.873   6.894  0.1944 -0.0309 -0.0848
 1246ERGO    R113982  11.819  13.674   7.093  0.2535 -0.1071 -0.1676
 1246ERGO    R213983  12.063  13.588   7.189  0.2730  0.0689 -0.0623
 1246ERGO    R313984  11.954  13.652   7.430  0.0684 -0.1483 -0.0941
 1246ERGO    R413985  12.201  13.506   7.496  0.3032  0.2518 -0.0253
 1246ERGO    R513986  12.000  13.461   7.568  0.3421 -0.1009 -0.1085
 1246ERGO    C113987  12.178  13.517   7.900  0.1287  0.1543 -0.0335
 1246ERGO    C213988  12.212  13.457   8.201  0.2115 -0.1011 -0.1641
 1247ERGO   ROH13989   1.405   1.383  10.267  0.0424 -0.0514 -0.0478
 1247ERGO    R113990   1.349   1.345   9.992  0.0021 -0.0732 -0.0378
 1247ERGO    R213991   1.481   1.156   9.838 -0.0836 -0.1521 -0.0237
 1247ERGO    R313992   1.228   1.073   9.783 -0.1222 -0.0606  0.0190
 1247ERGO    R413993   1.380   1.017   9.538 -0.1942 -0.1024 -0.0090
 1247ERGO    R513994   1.195   1.132   9.553 -0.1480 -0.0407  0.0310
 1247ERGO    C113995   1.084   0.858   9.312 -0.2948  0.0125  0.0398
 1247ERGO    C213996   1.175   0.587   9.095 -0.0034 -0.4387 -0.1880
 1248ERGO   ROH13997   6.965   6.594   8.218  0.0275 -0.0999 -0.0357
 1248ERGO    R113998   7.220   6.620   8.338  0.0808 -0.0534 -0.1600
 1248ERGO    R213999   7.306   6.455   8.542  0.1182  0.1120 -0.0448
 1248ERGO    R314000   7.517   6.412   8.375  0.0460 -0.0923 -0.0879
 1248ERGO    R414001   7.585   6.266   8.619  0.1157  0.1426  0.0429
 1248ERGO    R514002   7.708   6.415   8.519  0.1034  0.0243 -0.1604
 1248ERGO    C114003   7.944   6.115   8.508  0.0464 -0.0315  0.0535
 1248ERGO    C214004   8.229   6.024   8.576 -0.1088  0.1835  0.1512
 1249ERGO   ROH14005  12.100   5.481   6.345  0.2020  0.1552 -0.0010
 1249ERGO    R114006  12.005   5.533   6.607  0.1242  0.1426 -0.0256
 1249ERGO    R214007  11.860   5.348   6.752  0.1592  0.0980 -0.0391
 1249ERGO    R314008  12.053   5.392   6.938  0.1056  0.1875 -0.0052
 1249ERGO    R414009  11.857   5.222   7.074  0.1452  0.1415 -0.0226
 1249ERGO    R514010  11.933   5.413   7.145  0.0632  0.1724 -0.0324
 1249ERGO    C114011  12.036   5.189   7.436  0.0867  0.2507  0.0188
 1249ERGO    C214012  11.848   4.947   7.574 -0.0927 -0.0864 -0.3519
 1250ERGO   ROH14013  17.471   5.518   9.663  0.0488  0.0227  0.1091
 1250ERGO    R114014  17.429   5.329   9.457 -0.0689  0.0176  0.1367
 1250ERGO    R214015  17.201   5.326   9.301 -0.0494  0.1701  0.1025
 1250ERGO    R314016  17.380   5.337   9.096 -0.0070 -0.0058  0.1281
 1250ERGO    R414017  17.127   5.262   8.970 -0.0669  0.2751  0.0854
 1250ERGO    R514018  17.317   5.156   8.952 -0.1773  0.0729  0.1049
 1250ERGO    C114019  17.251   5.235   8.585 -0.0373  0.1712  0.0995
 1250ERGO    C214020  17.327   5.327   8.226 -0.0278 -0.1479 -0.4334
 1251ERGO   ROH14021   3.113   2.963   6.834  0.1310 -0.2318  0.1718
 1251ERGO    R114022   2.983   3.076   7.059  0.3059  0.0057  0.1557
 1251ERGO    R214023   2.812   2.932   7.221 -0.0369  0.3299  0.0917
 1251ERGO    R314024   2.978   3.017   7.418  0.0980 -0.0381  0.1471
 1251ERGO    R414025   2.709   3.035   7.534  0.1065  0.3766  0.1247
 1251ERGO    R514026   2.857   3.195   7.524  0.3889  0.1316  0.2085
 1251ERGO    C114027   2.805   3.176   7.902  0.3165  0.0584  0.1959
 1251ERGO    C214028   2.529   3.126   8.137  0.1997  0.0214 -0.0660
 1252ERGO   ROH14029   9.207   5.018   9.495  0.0231  0.1512  0.0519
 1252ERGO    R114030   9.305   5.245   9.356 -0.0156  0.0815 -0.0906
 1252ERGO    R214031   9.484   5.226   9.146  0.0476 -0.0162 -0.0256
 1252ERGO    R314032   9.295   5.371   9.015  0.0365 -0.1742 -0.1892
 1252ERGO    R414033   9.529   5.376   8.838  0.1774 -0.0226 -0.0107
 1252ERGO    R514034   9.418   5.548   8.911 -0.0125 -0.0935 -0.1150
 1252ERGO    C114035   9.377   5.600   8.536  0.2426 -0.1747 -0.1558
 1252ERGO    C214036   9.461   5.611   8.271 -0.1547 -0.2581  0.2926
 1253ERGO   ROH14037  12.481  11.259   6.543 -0.0280  0.0574  0.0953
 1253ERGO    R114038  12.592  11.253   6.804  0.0101  0.1028  0.0807
 1253ERGO    R214039  12.575  11.467   6.978  0.0821  0.1534  0.0279
 1253ERGO    R314040  12.467  11.282   7.144  0.0669  0.2199  0.0919
 1253ERGO    R414041  12.572  11.490   7.322  0.1807  0.2203  0.0242
 1253ERGO    R514042  12.617  11.277   7.332  0.1146  0.2081  0.0530
 1253ERGO    C114043  12.470  11.329   7.680  0.2237  0.3214  0.0822
 1253ERGO    C214044  12.347  11.414   8.016  0.2381 -0.1195 -0.3648
 1254ERGO   ROH14045  14.726   0.636   9.973  0.0298  0.2464  0.0326
 1254ERGO    R114046  14.841   0.818   9.789  0.1640  0.0803 -0.0510
 1254ERGO    R214047  15.098   0.788   9.692  0.1250 -0.1871 -0.0887
 1254ERGO    R314048  14.973   0.801   9.451  0.0918 -0.1592 -0.0691
 1254ERGO    R414049  15.254   0.858   9.391  0.0558 -0.0010 -0.0815
 1254ERGO    R514050  15.083   0.981   9.336 -0.0092 -0.0647 -0.0167
 1254ERGO    C114051  15.228   0.912   8.990 -0.0158  0.1336 -0.0589
 1254ERGO    C214052  15.127   0.941   8.569 -0.0441 -0.1721  0.3160
 1255ERGO   ROH14053  15.795  15.077   8.929  0.0167  0.1291 -0.0616
 1255ERGO    R114054  15.621  15.001   9.140 -0.0006  0.0425 -0.1071
 1255ERGO    R214055  15.641  15.107   9.395 -0.0590 -0.0198 -0.0794
 1255ERGO    R314056  15.379  15.166   9.355 -0.0656 -0.0599 -0.0994
 1255ERGO    R414057  15.402  15.118   9.643 -0.1182 -0.2672 -0.1219
 1255ERGO    R514058  15.262  15.023   9.507 -0.0624 -0.2064 -0.2293
 1255ERGO    C114059  15.016  15.181   9.751 -0.1588 -0.4491 -0.1656
 1255ERGO    C214060  14.704  15.261   9.832  0.3646 -0.0741 -0.0085
 1256ERGO   ROH14061   7.999  12.045   6.615 -0.0665 -0.2173 -0.0265
 1256ERGO    R114062   8.046  11.892   6.849  0.1090 -0.2141 -0.0580
 1256ERGO    R214063   8.300  11.829   6.937  0.1889  0.1405 -0.0186
 1256ERGO    R314064   8.212  11.942   7.168 -0.0354 -0.0495 -0.0067
 1256ERGO    R414065   8.362  11.705   7.253  0.2034  0.0839 -0.0437
 1256ERGO    R514066   8.157  11.756   7.308  0.1195 -0.1712 -0.1040
 1256ERGO    C114067   8.316  11.738   7.655  0.0013 -0.1275 -0.0472
 1256ERGO    C214068   8.259  11.640   7.991  0.1411  0.0455 -0.0922
 1257ERGO   ROH14069  16.043   3.527   9.778 -0.0281  0.1490  0.0190
 1257ERGO    R114070  16.147   3.312   9.625  0.0133  0.1532  0.0426
 1257ERGO    R214071  15.986   3.129   9.496  0.0501  0.1121  0.0617
 1257ERGO    R314072  16.131   3.201   9.279  0.0390  0.1128  0.0532
 1257ERGO    R414073  15.926   3.021   9.174  0.1289 -0.0211  0.0898
 1257ERGO    R514074  16.141   3.003   9.145  0.1442  0.0704  0.1173
 1257ERGO    C114075  16.027   3.027   8.781  0.1643 -0.0980  0.0984
 1257ERGO    C214076  15.988   3.273   8.535 -0.2571  0.2251  0.2686
 1258ERGO   ROH14077   1.146   4.315   9.752 -0.2116  0.1565 -0.0673
 1258ERGO    R114078   1.108   4.441   9.501 -0.0674  0.2869 -0.0249
 1258ERGO    R214079   1.162   4.709   9.459  0.2943  0.2293  0.0525
 1258ERGO    R314080   1.316   4.612   9.257  0.1440  0.0801  0.0058
 1258ERGO    R414081   1.260   4.890   9.182 -0.0610 -0.0244 -0.2494
 1258ERGO    R514082   1.226   4.712   9.060 -0.0983 -0.1796 -0.0225
 1258ERGO    C114083   1.462   4.904   8.831 -0.4089 -0.3122 -0.4692
 1258ERGO    C214084   1.569   4.938   8.440 -0.1156  0.0027 -0.4777
 1259ERGO   ROH14085   6.950   2.725   6.092  0.3154  0.3889 -0.1182
 1259ERGO    R114086   6.876   2.770   6.361  0.2238  0.2011 -0.1098
 1259ERGO    R214087   6.890   2.572   6.554  0.0730  0.0372 -0.2559
 1259ERGO    R314088   7.040   2.757   6.686  0.0922 -0.1205 -0.0544
 1259ERGO    R414089   6.905   2.606   6.897 -0.1365 -0.1446 -0.2277
 1259ERGO    R514090   6.904   2.822   6.872  0.0100 -0.1354 -0.1146
 1259ERGO    C114091   7.054   2.798   7.222 -0.2406 -0.3985 -0.0222
 1259ERGO    C214092   6.950   2.868   7.602  0.2321  0.1485 -0.1841
 1260ERGO   ROH14093   9.540   2.304   6.260  0.0071 -0.1183 -0.0018
 1260ERGO    R114094   9.633   2.432   6.495 -0.0725 -0.1585  0.0513
 1260ERGO    R214095   9.545   2.682   6.573 -0.0440 -0.1432  0.0238
 1260ERGO    R314096   9.487   2.554   6.805 -0.1891 -0.1404 -0.0092
 1260ERGO    R414097   9.489   2.839   6.876  0.0545 -0.1494  0.0461
 1260ERGO    R514098   9.603   2.680   6.973 -0.0966 -0.2729  0.0311
 1260ERGO    C114099   9.402   2.809   7.271 -0.0244 -0.1503  0.0281
 1260ERGO    C214100   9.218   2.939   7.602  0.2407 -0.0365  0.0254
 1261ERGO   ROH14101   5.314   4.762   9.473 -0.1024  0.2063  0.1797
 1261ERGO    R114102   5.377   4.867   9.218 -0.0431  0.3331  0.2457
 1261ERGO    R214103   5.285   4.754   8.983  0.2662  0.2612  0.1540
 1261ERGO    R314104   5.194   5.006   8.936 -0.0099  0.1609  0.1381
 1261ERGO    R414105   5.212   4.882   8.671  0.0762  0.1462  0.1502
 1261ERGO    R514106   5.302   5.071   8.732 -0.1126  0.2514  0.1112
 1261ERGO    C114107   5.083   5.192   8.444 -0.2936 -0.0148  0.1329
 1261ERGO    C214108   5.034   5.314   8.126  0.4819 -0.3191  0.2031
 1262ERGO   ROH14109  16.057  16.610  10.394 -0.1246 -0.0615  0.1358
 1262ERGO    R114110  16.194  16.700  10.163 -0.2779  0.0170  0.0728
 1262ERGO    R214111  16.464  16.652  10.121 -0.2114  0.3569  0.0554
 1262ERGO    R314112  16.375  16.546   9.887 -0.1138  0.1254  0.1205
 1262ERGO    R414113  16.641  16.651   9.825 -0.1083  0.0835  0.1149
 1262ERGO    R514114  16.456  16.697   9.719 -0.0680 -0.0330  0.0037
 1262ERGO    C114115  16.662  16.552   9.432  0.0433 -0.2929  0.2106
 1262ERGO    C214116  16.872  16.371   9.302  0.0513  0.1522  0.0977
 1263ERGO   ROH14117   5.200  11.023   9.869  0.1886 -0.0912 -0.0684
 1263ERGO    R114118   5.350  11.135   9.657  0.2113 -0.2433 -0.1350
 1263ERGO    R214119   5.450  10.983   9.448 -0.1712 -0.3249 -0.2699
 1263ERGO    R314120   5.317  11.165   9.296 -0.0088 -0.0592 -0.1015
 1263ERGO    R414121   5.519  11.052   9.117 -0.1988 -0.1743 -0.2444
 1263ERGO    R514122   5.487  11.263   9.158  0.0628 -0.1623 -0.0857
 1263ERGO    C114123   5.435  11.262   8.781 -0.0623  0.1631 -0.0715
 1263ERGO    C214124   5.366  11.300   8.519  0.1590  0.0723  0.0842
 1264ERGO   ROH14125  14.876  17.058   7.430 -0.0727  0.1133  0.0093
 1264ERGO    R114126  14.882  17.187   7.682  0.1552  0.1766 -0.0265
 1264ERGO    R214127  14.989  17.439   7.718 -0.0931  0.3174 -0.2543
 1264ERGO    R314128  14.745  17.492   7.826 -0.0017  0.0461  0.1079
 1264ERGO    R414129  14.937  17.619   8.008  0.1347  0.5244 -0.3386
 1264ERGO    R514130  14.781  17.477   8.063  0.4333  0.3280  0.0737
 1264ERGO    C114131  14.678  17.775   8.279  0.3529  0.3902 -0.0476
 1264ERGO    C214132  14.779  17.917   8.543  0.0294 -0.0288  0.1163
 1265ERGO   ROH14133   8.041  11.589   9.949  0.1658  0.2138  0.0276
 1265ERGO    R114134   7.892  11.735   9.758  0.1256  0.0778 -0.0437
 1265ERGO    R214135   7.970  11.984   9.668  0.0479  0.0545 -0.1530
 1265ERGO    R314136   7.949  11.867   9.423  0.0883 -0.0565 -0.1060
 1265ERGO    R414137   7.813  12.126   9.394  0.1550 -0.0244 -0.2581
 1265ERGO    R514138   7.731  11.929   9.346  0.1178 -0.0343 -0.1906
 1265ERGO    C114139   7.703  12.098   9.005  0.2553 -0.1746 -0.2752
 1265ERGO    C214140   7.764  12.428   8.814  0.0826 -0.0610 -0.6322
 1266ERGO   ROH14141   8.947   5.495   6.375  0.3245  0.1349  0.1548
 1266ERGO    R114142   8.919   5.490   6.656 -0.2531  0.3171  0.1126
 1266ERGO    R214143   8.672   5.489   6.780 -0.5468 -0.3130 -0.4096
 1266ERGO    R314144   8.770   5.267   6.903 -0.1049  0.0797 -0.0099
 1266ERGO    R414145   8.572   5.374   7.090 -0.6631 -0.2154 -0.4102
 1266ERGO    R514146   8.780   5.327   7.135 -0.5789  0.3908 -0.0580
 1266ERGO    C114147   8.605   5.099   7.386 -0.3161  0.2102 -0.0355
 1266ERGO    C214148   8.499   4.892   7.702  0.1684  0.1282  0.1342
 1267ERGO   ROH14149   9.428  11.142   9.537 -0.2902  0.0191 -0.0596
 1267ERGO    R114150   9.550  11.228   9.296 -0.1840  0.0903  0.0194
 1267ERGO    R214151   9.499  11.109   9.053  0.0098  0.0903 -0.0196
 1267ERGO    R314152   9.440  11.364   8.977 -0.0508  0.0718 -0.0364
 1267ERGO    R414153   9.473  11.218   8.725  0.0726  0.0742 -0.0303
 1267ERGO    R514154   9.575  11.401   8.783 -0.0017  0.1112  0.0013
 1267ERGO    C114155   9.403  11.520   8.464  0.0524  0.0476 -0.0520
 1267ERGO    C214156   9.202  11.780   8.194  0.3010  0.0277  0.2225
 1268ERGO   ROH14157   4.886  18.215   6.941  0.2189 -0.1899 -0.1188
 1268ERGO    R114158   4.946  18.356   7.178  0.1518 -0.1981 -0.0971
 1268ERGO    R214159   4.793  18.333   7.408  0.1314 -0.2645 -0.1185
 1268ERGO    R314160   5.032  18.271   7.522  0.1352 -0.2095 -0.0954
 1268ERGO    R414161   4.857  18.332   7.748  0.0787 -0.3185 -0.1084
 1268ERGO    R514162   5.051  18.421   7.707  0.0558 -0.2437 -0.0587
 1268ERGO    C114163   5.118  18.273   8.052  0.0515 -0.2984 -0.0809
 1268ERGO    C214164   5.140  18.002   8.298 -0.0300 -0.1744 -0.0971
 1269ERGO   ROH14165  13.940  11.597  10.019  0.0264  0.0599 -0.0287
 1269ERGO    R114166  13.924  11.535   9.743  0.3273  0.0696 -0.0516
 1269ERGO    R214167  13.753  11.666   9.571 -0.0388 -0.4177 -0.0830
 1269ERGO    R314168  13.981  11.710   9.429 -0.0993  0.3410  0.0163
 1269ERGO    R414169  13.772  11.675   9.226  0.0873 -0.3603 -0.0749
 1269ERGO    R514170  13.960  11.567   9.238  0.4619  0.2568  0.0062
 1269ERGO    C114171  13.996  11.723   8.892  0.1038  0.3853  0.0231
 1269ERGO    C214172  13.857  11.748   8.573  0.0046 -0.1608  0.0634
 1270ERGO   ROH14173  16.624   6.872   9.401  0.2173  0.3000 -0.1535
 1270ERGO    R114174  16.816   6.754   9.230  0.1692  0.0819 -0.0580
 1270ERGO    R214175  16.951   6.522   9.295 -0.1416 -0.0797  0.0010
 1270ERGO    R314176  16.855   6.437   9.055 -0.1110  0.0421 -0.0569
 1270ERGO    R414177  17.105   6.288   9.093 -0.3066 -0.2757  0.0949
 1270ERGO    R514178  17.051   6.410   8.920 -0.0560 -0.1997  0.0583
 1270ERGO    C114179  17.106   6.073   8.749 -0.3738 -0.2755  0.0953
 1270ERGO    C214180  17.052   5.662   8.801 -0.0028 -0.0101 -0.1188
 1271ERGO   ROH14181   8.395  13.202  10.118 -0.4440 -0.1213  0.2540
 1271ERGO    R114182   8.170  13.083   9.994 -0.1496 -0.4492  0.0169
 1271ERGO    R214183   8.003  13.222   9.823 -0.5063 -0.5092  0.3061
 1271ERGO    R314184   8.060  13.018   9.653  0.0227 -0.0360 -0.1244
 1271ERGO    R414185   7.813  13.137   9.547 -0.5389 -0.6635  0.3747
 1271ERGO    R514186   7.846  12.927   9.596  0.2446 -0.6758 -0.0268
 1271ERGO    C114187   7.756  12.896   9.226 -0.0612 -0.3090  0.0108
 1271ERGO    C214188   7.769  12.960   8.959 -0.0508  0.0215 -0.0119
 1272ERGO   ROH14189  13.809  11.438   6.989 -0.5743 -0.2924  0.2422
 1272ERGO    R114190  13.897  11.316   7.229 -0.3797 -0.2513  0.1946
 1272ERGO    R214191  14.100  11.423   7.384 -0.1779 -0.2781 -0.0361
 1272ERGO    R314192  13.913  11.407   7.581  0.0072 -0.1443  0.1535
 1272ERGO    R414193  14.163  11.328   7.710  0.1154 -0.1136 -0.0431
 1272ERGO    R514194  13.977  11.216   7.709  0.0963 -0.0836  0.1956
 1272ERGO    C114195  14.024  11.259   8.085  0.4601  0.1078  0.1309
 1272ERGO    C214196  13.815  11.317   8.282  0.0760 -0.2176 -0.2042
 1273ERGO   ROH14197   9.614  10.989   6.613 -0.2518 -0.2700 -0.2331
 1273ERGO    R114198   9.412  10.933   6.803 -0.0695  0.0768  0.0728
 1273ERGO    R214199   9.308  10.680   6.840 -0.5588  0.2796  0.1090
 1273ERGO    R314200   9.379  10.723   7.099 -0.0380  0.0046  0.0282
 1273ERGO    R414201   9.206  10.487   7.107 -0.4191  0.2590  0.1491
 1273ERGO    R514202   9.182  10.669   7.224  0.0700  0.2382  0.3246
 1273ERGO    C114203   9.212  10.415   7.506  0.1510 -0.0111  0.0965
 1273ERGO    C214204   9.163  10.338   7.771 -0.1297  0.1459 -0.0882
 1274ERGO   ROH14205  15.665  14.316  10.406 -0.0467  0.0448 -0.0653
 1274ERGO    R114206  15.830  14.323  10.176 -0.0672  0.1943 -0.0767
 1274ERGO    R214207  16.026  14.134  10.127  0.0620  0.3364 -0.1204
 1274ERGO    R314208  15.895  14.106   9.891  0.0627  0.2820 -0.1140
 1274ERGO    R414209  16.105  13.903   9.883  0.0579  0.2785 -0.0669
 1274ERGO    R514210  16.067  14.055   9.733  0.0607  0.2423 -0.1020
 1274ERGO    C114211  16.028  13.742   9.519  0.0563  0.1937 -0.0298
 1274ERGO    C214212  16.257  13.652   9.307 -0.0921  0.0172  0.1985
 1275ERGO   ROH14213   1.160   8.079   9.693  0.0917  0.2368  0.0323
 1275ERGO    R114214   1.136   8.174   9.428  0.0558  0.1997  0.0232
 1275ERGO    R214215   0.893   8.242   9.315  0.0421  0.1794  0.0473
 1275ERGO    R314216   1.020   8.477   9.265  0.0307  0.1757 -0.0049
 1275ERGO    R414217   0.787   8.477   9.086 -0.0704  0.2049  0.1232
 1275ERGO    R514218   0.995   8.508   9.028 -0.0985  0.1952  0.0093
 1275ERGO    C114219   0.843   8.835   8.904 -0.1467  0.2161  0.1185
 1275ERGO    C214220   0.864   9.105   8.849 -0.4161  0.0754 -0.0903
 1276ERGO   ROH14221  14.573   6.376   9.091 -0.0456 -0.1647  0.0573
 1276ERGO    R114222  14.474   6.381   8.826 -0.0167 -0.0565  0.0488
 1276ERGO    R214223  14.612   6.499   8.617  0.0265 -0.0149  0.1059
 1276ERGO    R314224  14.580   6.255   8.501 -0.0098  0.0317  0.0152
 1276ERGO    R414225  14.704   6.420   8.294  0.4164 -0.0159  0.2117
 1276ERGO    R514226  14.521   6.304   8.275  0.3409  0.1312 -0.0645
 1276ERGO    C114227  14.728   6.146   7.996  0.6094  0.0273  0.1880
 1276ERGO    C214228  14.952   6.002   7.757  0.0116 -0.1144 -0.0187
 1277ERGO   ROH14229   5.923   6.726   9.487 -0.0153  0.2114  0.0104
 1277ERGO    R114230   5.985   6.861   9.246 -0.0647  0.2322  0.0081
 1277ERGO    R214231   6.092   6.732   9.027  0.1466  0.2971  0.0649
 1277ERGO    R314232   5.879   6.844   8.898  0.0751  0.0601 -0.0260
 1277ERGO    R414233   6.080   6.801   8.688  0.0617 -0.0586 -0.0075
 1277ERGO    R514234   5.978   6.988   8.735 -0.0224 -0.0607 -0.1907
 1277ERGO    C114235   5.873   6.946   8.371 -0.0550 -0.4883 -0.1350
 1277ERGO    C214236   6.041   6.811   8.049  0.0291  0.1203  0.0253
 1278ERGO   ROH14237   9.045   1.447   9.752 -0.0262 -0.2775  0.1613
 1278ERGO    R114238   9.169   1.461   9.498 -0.1492 -0.1336  0.1082
 1278ERGO    R214239   9.423   1.363   9.450 -0.0413  0.1832  0.0077
 1278ERGO    R314240   9.297   1.225   9.253  0.0483  0.0125  0.0678
 1278ERGO    R414241   9.574   1.253   9.160 -0.0172  0.3393 -0.0402
 1278ERGO    R514242   9.394   1.309   9.051 -0.1298  0.1132  0.0227
 1278ERGO    C114243   9.544   1.059   8.805  0.0809  0.2700 -0.0115
 1278ERGO    C214244   9.630   1.082   8.401 -0.1034  0.0730 -0.1237
 1279ERGO   ROH14245  16.886   2.740  10.255 -0.1928  0.2065  0.1131
 1279ERGO    R114246  16.873   2.544  10.052 -0.2130  0.1759  0.1438
 1279ERGO    R214247  16.645   2.500   9.901 -0.1680  0.2834  0.0437
 1279ERGO    R314248  16.815   2.539   9.692 -0.0453  0.1435  0.1164
 1279ERGO    R414249  16.593   2.382   9.580 -0.0733  0.2310  0.0474
 1279ERGO    R514250  16.805   2.333   9.570 -0.0925  0.1173  0.1630
 1279ERGO    C114251  16.723   2.350   9.198  0.0971  0.0691  0.1179
 1279ERGO    C214252  16.513   2.172   8.999 -0.4423  0.1991  0.2867
 1280ERGO   ROH14253   0.427  11.424   9.518  0.0045  0.1095  0.0874
 1280ERGO    R114254   0.579  11.490   9.288 -0.1931  0.0899 -0.0523
 1280ERGO    R214255   0.475  11.479   9.032 -0.4375  0.1380  0.0413
 1280ERGO    R314256   0.562  11.737   9.021 -0.3824  0.1167 -0.0167
 1280ERGO    R414257   0.475  11.676   8.748 -0.1748 -0.0034 -0.0594
 1280ERGO    R514258   0.669  11.754   8.808 -0.2075 -0.0094  0.0584
 1280ERGO    C114259   0.556  12.032   8.572  0.0299 -0.1057 -0.1725
 1280ERGO    C214260   0.601  12.216   8.350  0.0223  0.0454  0.0169
 1281ERGO   ROH14261  17.756  16.679  10.248  0.0878  0.1234  0.2477
 1281ERGO    R114262  17.828  16.772   9.991  0.1479  0.0885  0.2507
 1281ERGO    R214263  18.091  16.822   9.919  0.1890 -0.1104  0.2395
 1281ERGO    R314264  18.033  16.652   9.714  0.0412 -0.0522  0.2329
 1281ERGO    R414265  18.267  16.802   9.622  0.0459 -0.1184  0.1551
 1281ERGO    R514266  18.077  16.780   9.517 -0.0061 -0.0348  0.2369
 1281ERGO    C114267  18.315  16.632   9.257 -0.1763 -0.0683  0.0998
 1281ERGO    C214268  18.435  16.471   9.048 -0.0803  0.0698  0.2912
 1282ERGO   ROH14269   4.832   3.778   6.535  0.0160 -0.0722  0.0343
 1282ERGO    R114270   4.972   3.867   6.764  0.0599  0.1238 -0.0684
 1282ERGO    R214271   4.915   4.107   6.889 -0.2040  0.0310 -0.0182
 1282ERGO    R314272   4.889   3.949   7.109  0.2014 -0.0189  0.0024
 1282ERGO    R414273   4.970   4.211   7.214 -0.4271  0.2174 -0.0362
 1282ERGO    R514274   5.067   4.020   7.254  0.0564  0.4438 -0.0213
 1282ERGO    C114275   4.978   4.123   7.610 -0.1763  0.2793 -0.0274
 1282ERGO    C214276   5.064   4.219   8.002 -0.1356 -0.1643  0.0547
 1283ERGO   ROH14277  13.823  15.032   6.993  0.1628  0.1297 -0.0415
 1283ERGO    R114278  13.762  15.175   7.230  0.1919  0.0936 -0.0120
 1283ERGO    R214279  13.503  15.231   7.307  0.2057  0.2281 -0.0587
 1283ERGO    R314280  13.579  15.110   7.538  0.0762  0.1079 -0.0771
 1283ERGO    R414281  13.287  15.086   7.535  0.0675  0.2297 -0.1868
 1283ERGO    R514282  13.409  15.170   7.696  0.0472  0.1181 -0.1131
 1283ERGO    C114283  13.234  14.889   7.885 -0.1347  0.1179 -0.2787
 1283ERGO    C214284  13.068  14.765   8.070 -0.3154 -0.0050  0.1608
 1284ERGO   ROH14285   4.537   1.464   6.674  0.1163  0.0528  0.0612
 1284ERGO    R114286   4.598   1.512   6.946  0.1265 -0.0328  0.0743
 1284ERGO    R214287   4.652   1.308   7.124  0.2035 -0.0862 -0.0069
 1284ERGO    R314288   4.880   1.449   7.168  0.1648 -0.0347  0.0241
 1284ERGO    R414289   4.835   1.302   7.418  0.1336  0.0058  0.0388
 1284ERGO    R514290   4.865   1.517   7.397  0.0969  0.0055  0.0064
 1284ERGO    C114291   5.155   1.432   7.630  0.0566  0.1076  0.0944
 1284ERGO    C214292   5.254   1.128   7.855  0.0552  0.0743  0.3518
 1285ERGO   ROH14293  11.582   9.233   9.430  0.1132  0.3951  0.1499
 1285ERGO    R114294  11.713   9.377   9.224  0.1609  0.1864  0.0328
 1285ERGO    R214295  11.986   9.413   9.219  0.1780  0.0349 -0.0333
 1285ERGO    R314296  11.964   9.305   8.970  0.0861 -0.1191  0.0397
 1285ERGO    R414297  12.252   9.345   9.008  0.0810  0.2729 -0.2377
 1285ERGO    R514298  12.131   9.418   8.841 -0.1697  0.0385 -0.1699
 1285ERGO    C114299  12.384   9.204   8.651 -0.0617  0.2670 -0.2881
 1285ERGO    C214300  12.758   9.191   8.560  0.0515 -0.1641  0.0008
 1286ERGO   ROH14301   9.637  12.508   9.936 -0.0742 -0.0298  0.1420
 1286ERGO    R114302   9.556  12.512   9.665  0.0156  0.1099  0.1164
 1286ERGO    R214303   9.699  12.644   9.469  0.2637 -0.0666  0.1748
 1286ERGO    R314304   9.693  12.401   9.347 -0.0345 -0.0505  0.1491
 1286ERGO    R414305   9.688  12.596   9.127  0.4075 -0.0126  0.1620
 1286ERGO    R514306   9.547  12.433   9.159  0.1293  0.1983  0.0574
 1286ERGO    C114307   9.677  12.341   8.813  0.2113  0.0340  0.1304
 1286ERGO    C214308   9.702  12.263   8.472 -0.1944 -0.3047  0.0106
 1287ERGO   ROH14309   0.454   8.417   7.776  0.0726  0.1629 -0.1836
 1287ERGO    R114310   0.688   8.571   7.812  0.0818  0.1156 -0.0370
 1287ERGO    R214311   0.864   8.528   8.021 -0.0287  0.0434  0.0409
 1287ERGO    R314312   1.047   8.510   7.821  0.0683  0.0533  0.1273
 1287ERGO    R414313   1.205   8.565   8.061 -0.0386 -0.0495  0.2235
 1287ERGO    R514314   1.210   8.677   7.874  0.0828  0.0004  0.2548
 1287ERGO    C114315   1.576   8.569   7.896  0.0468 -0.0943  0.4109
 1287ERGO    C214316   2.016   8.575   7.829  0.1159 -0.2254 -0.0434
 1288ERGO   ROH14317  10.651   6.258   6.441 -0.0548  0.0211  0.0671
 1288ERGO    R114318  10.604   6.086   6.661 -0.0007 -0.0279  0.0400
 1288ERGO    R214319  10.798   5.919   6.763  0.0593  0.0401  0.0308
 1288ERGO    R314320  10.738   6.044   6.997 -0.0101 -0.0192  0.0457
 1288ERGO    R414321  10.950   5.854   7.067 -0.0415 -0.0557  0.0618
 1288ERGO    R514322  10.755   5.871   7.162 -0.0749 -0.0693  0.0038
 1288ERGO    C114323  10.982   5.933   7.463 -0.1652 -0.1672  0.0939
 1288ERGO    C214324  11.260   5.987   7.640 -0.2486  0.0932 -0.0666
 1289ERGO   ROH14325  12.306  16.906   6.717 -0.0022  0.2000 -0.2198
 1289ERGO    R114326  12.191  16.875   6.974  0.1153 -0.0517 -0.1940
 1289ERGO    R214327  12.341  16.821   7.199  0.2619  0.0753 -0.2595
 1289ERGO    R314328  12.216  17.041   7.297 -0.0170 -0.1283 -0.1434
 1289ERGO    R414329  12.302  16.892   7.535  0.3548 -0.0501 -0.2211
 1289ERGO    R514330  12.100  16.962   7.491  0.2165 -0.3454 -0.0860
 1289ERGO    C114331  12.162  17.141   7.822  0.1471 -0.3142 -0.0897
 1289ERGO    C214332  11.900  17.307   8.090  0.1695 -0.0312 -0.0458
 1290ERGO   ROH14333   0.597  17.681  10.639 -0.1821 -0.0595 -0.1502
 1290ERGO    R114334   0.715  17.820  10.423 -0.0997 -0.1130 -0.1409
 1290ERGO    R214335   0.988  17.838  10.389 -0.0834 -0.0744 -0.0111
 1290ERGO    R314336   0.931  17.739  10.142  0.0566 -0.1722 -0.0044
 1290ERGO    R414337   1.211  17.829  10.124 -0.0857  0.2867 -0.0301
 1290ERGO    R514338   1.047  17.886   9.991 -0.1938  0.0184 -0.0164
 1290ERGO    C114339   1.288  17.731   9.739  0.0444  0.4051 -0.0348
 1290ERGO    C214340   1.544  17.622   9.513 -0.1164  0.1763  0.0709
 1291ERGO   ROH14341   3.253   6.521   6.376  0.0052  0.1698 -0.0796
 1291ERGO    R114342   3.186   6.433   6.637 -0.0081  0.1733 -0.0804
 1291ERGO    R214343   3.375   6.391   6.834 -0.0191  0.2159 -0.0530
 1291ERGO    R314344   3.219   6.562   6.976 -0.0636  0.2007 -0.0864
 1291ERGO    R414345   3.370   6.415   7.178 -0.1910  0.1281 -0.0500
 1291ERGO    R514346   3.154   6.436   7.169 -0.1798  0.1630 -0.1526
 1291ERGO    C114347   3.220   6.588   7.512 -0.3329  0.0628 -0.0797
 1291ERGO    C214348   3.422   6.710   7.850 -0.2585 -0.2795 -0.2085
 1292ERGO   ROH14349   2.968  18.284   7.149 -0.1028 -0.0250 -0.0669
 1292ERGO    R114350   3.030  18.155   7.393 -0.0079  0.0325 -0.0609
 1292ERGO    R214351   3.279  18.046   7.444  0.0362  0.1186 -0.1003
 1292ERGO    R314352   3.267  18.204   7.665  0.0380  0.1479 -0.1205
 1292ERGO    R414353   3.401  17.959   7.756  0.0485  0.1611 -0.0927
 1292ERGO    R514354   3.225  18.052   7.845  0.0471  0.1685 -0.0991
 1292ERGO    C114355   3.462  18.057   8.144  0.0574  0.2135 -0.1072
 1292ERGO    C214356   3.672  18.072   8.420 -0.0936 -0.1689 -0.1441
 1293ERGO   ROH14357  16.190  12.587  10.202 -0.3155 -0.0993 -0.0528
 1293ERGO    R114358  16.276  12.734   9.976 -0.3031  0.0495  0.0450
 1293ERGO    R214359  16.370  12.611   9.746  0.1381  0.1999  0.1267
 1293ERGO    R314360  16.177  12.761   9.626  0.0145 -0.0954 -0.0583
 1293ERGO    R414361  16.411  12.786   9.451  0.1398  0.2628  0.1651
 1293ERGO    R514362  16.296  12.950   9.538 -0.1955  0.0878  0.0533
 1293ERGO    C114363  16.254  13.030   9.167  0.0247  0.0222  0.0136
 1293ERGO    C214364  16.228  13.139   8.817 -0.0702 -0.2947 -0.0624
 1294ERGO   ROH14365   3.638   0.448   6.948  0.0598  0.0524  0.1407
 1294ERGO    R114366   3.824   0.619   7.075 -0.1033  0.1913  0.1985
 1294ERGO    R214367   3.770   0.744   7.317 -0.1385 -0.1239  0.3647
 1294ERGO    R314368   4.003   0.626   7.392  0.0783  0.1201  0.0969
 1294ERGO    R414369   3.945   0.817   7.606 -0.0404 -0.1608  0.3137
 1294ERGO    R514370   4.130   0.802   7.492 -0.0940  0.1983  0.1741
 1294ERGO    C114371   4.266   0.748   7.845  0.2202  0.0469  0.0326
 1294ERGO    C214372   4.447   0.667   8.203 -0.2046 -0.1053 -0.2399
 1295ERGO   ROH14373   8.535  10.649   9.479  0.0560  0.1628 -0.0703
 1295ERGO    R114374   8.692  10.614   9.246  0.0771  0.1412 -0.0521
 1295ERGO    R214375   8.599  10.482   9.021  0.1354  0.0298 -0.0070
 1295ERGO    R314376   8.672  10.712   8.897  0.0554  0.0121 -0.0889
 1295ERGO    R414377   8.672  10.511   8.685  0.1585 -0.0803 -0.0123
 1295ERGO    R514378   8.836  10.645   8.736  0.1024  0.0095 -0.0450
 1295ERGO    C114379   8.783  10.745   8.372  0.0968 -0.1610 -0.0924
 1295ERGO    C214380   8.955  10.757   8.025  0.0123 -0.1337 -0.0082
 1296ERGO   ROH14381   9.086   4.193   6.339  0.0583  0.0339 -0.0639
 1296ERGO    R114382   8.998   4.056   6.570  0.0425  0.1090 -0.0244
 1296ERGO    R214383   9.172   3.930   6.744  0.0090 -0.1294 -0.1529
 1296ERGO    R314384   9.048   4.085   6.930  0.3176  0.0039 -0.0531
 1296ERGO    R414385   9.093   3.828   7.064 -0.3314 -0.2309 -0.2655
 1296ERGO    R514386   8.903   3.934   7.046 -0.0815  0.2398 -0.2322
 1296ERGO    C114387   8.930   3.914   7.426 -0.2400 -0.1649 -0.2376
 1296ERGO    C214388   8.840   3.751   7.689 -0.0151  0.0054  0.1589
 1297ERGO   ROH14389  12.028   6.273   9.346  0.2553 -0.1033 -0.0355
 1297ERGO    R114390  12.024   6.344   9.072  0.3032 -0.3339 -0.0982
 1297ERGO    R214391  11.970   6.161   8.873 -0.2759 -0.3860  0.0851
 1297ERGO    R314392  11.781   6.343   8.802  0.1500  0.0568  0.0328
 1297ERGO    R414393  11.814   6.174   8.564 -0.6413 -0.4709  0.2609
 1297ERGO    R514394  11.828   6.392   8.572  0.0075 -0.4752 -0.1211
 1297ERGO    C114395  11.546   6.352   8.318 -0.4543 -0.1046  0.3142
 1297ERGO    C214396  11.352   6.274   8.122 -0.0554  0.0860 -0.0931
 1298ERGO   ROH14397  11.428  12.644   6.736 -0.0651 -0.1989 -0.1690
 1298ERGO    R114398  11.427  12.762   6.994 -0.0571 -0.1025 -0.2117
 1298ERGO    R214399  11.252  12.963   7.065 -0.0560 -0.0717 -0.2811
 1298ERGO    R314400  11.191  12.794   7.269 -0.0511  0.0003 -0.2194
 1298ERGO    R414401  11.044  13.040   7.330 -0.0164  0.0299 -0.2798
 1298ERGO    R514402  11.182  12.935   7.462 -0.0147  0.0590 -0.2632
 1298ERGO    C114403  10.867  12.927   7.676  0.0113  0.1566 -0.2211
 1298ERGO    C214404  10.790  13.044   8.045 -0.0886  0.0409 -0.0170
 1299ERGO   ROH14405  15.601   7.595   6.148  0.1209  0.0590 -0.0675
 1299ERGO    R114406  15.653   7.454   6.388  0.0062  0.0055 -0.0736
 1299ERGO    R214407  15.792   7.566   6.598  0.1620 -0.1414 -0.0976
 1299ERGO    R314408  15.572   7.495   6.740  0.1041  0.0998 -0.0615
 1299ERGO    R414409  15.750   7.618   6.937  0.2165  0.0232 -0.1148
 1299ERGO    R514410  15.658   7.421   6.951  0.0484  0.1055 -0.0366
 1299ERGO    C114411  15.519   7.581   7.268  0.1939  0.3455 -0.0910
 1299ERGO    C214412  15.429   7.874   7.426 -0.0814 -0.2115 -0.0817
 1300ERGO   ROH14413   7.053  14.183  10.082 -0.0579 -0.0589 -0.0702
 1300ERGO    R114414   7.072  14.078   9.819 -0.2757 -0.0075 -0.1090
 1300ERGO    R214415   6.912  14.167   9.612 -0.0657  0.4441 -0.0930
 1300ERGO    R314416   7.151  14.207   9.488  0.0513 -0.0527 -0.0517
 1300ERGO    R414417   6.951  14.249   9.278  0.1832  0.1904 -0.1306
 1300ERGO    R514418   7.122  14.114   9.270 -0.0515 -0.1256 -0.0067
 1300ERGO    C114419   7.197  14.336   8.968  0.4381 -0.4239 -0.1137
 1300ERGO    C214420   7.233  14.364   8.654  0.0787  0.1083  0.0536
 1301ERGO   ROH14421   6.125   8.430   6.648  0.0839  0.2642  0.2421
 1301ERGO    R114422   6.049   8.165   6.715 -0.0469  0.2409  0.0109
 1301ERGO    R214423   6.177   8.019   6.911 -0.0612 -0.0266 -0.1770
 1301ERGO    R314424   5.925   7.993   7.011 -0.0415  0.0226 -0.1116
 1301ERGO    R414425   6.097   7.858   7.207 -0.0273 -0.1283 -0.2223
 1301ERGO    R514426   5.922   7.774   7.108 -0.0907 -0.0213 -0.2074
 1301ERGO    C114427   5.815   7.739   7.472  0.0108 -0.1413 -0.1872
 1301ERGO    C214428   5.763   7.845   7.878 -0.1223 -0.3974 -0.0479
 1302ERGO   ROH14429   6.076   6.181   6.540 -0.1262 -0.0584 -0.0466
 1302ERGO    R114430   6.262   6.056   6.713 -0.1667 -0.0754 -0.0147
 1302ERGO    R214431   6.227   6.046   6.987 -0.1852 -0.0212 -0.0133
 1302ERGO    R314432   6.259   5.779   6.949 -0.2499 -0.0351  0.0313
 1302ERGO    R414433   6.241   5.811   7.240 -0.0082  0.0415  0.0364
 1302ERGO    R514434   6.400   5.709   7.130 -0.1113 -0.0063 -0.0658
 1302ERGO    C114435   6.279   5.423   7.352  0.0341  0.0649  0.1072
 1302ERGO    C214436   6.049   5.150   7.449  0.1816  0.1482  0.1744
 1303ERGO   ROH14437   4.980  15.586   6.616 -0.1815  0.0423  0.1316
 1303ERGO    R114438   4.971  15.746   6.850  0.1675  0.1652  0.0639
 1303ERGO    R214439   4.952  15.638   7.103 -0.0645  0.3127  0.0990
 1303ERGO    R314440   5.174  15.788   7.150  0.2673 -0.1395  0.0469
 1303ERGO    R414441   5.085  15.701   7.416 -0.2010  0.4541  0.1310
 1303ERGO    R514442   5.124  15.906   7.352  0.3492  0.2936 -0.1621
 1303ERGO    C114443   5.371  15.878   7.642  0.0309  0.1120  0.1007
 1303ERGO    C214444   5.447  15.923   7.915 -0.0103 -0.4110  0.1534
 1304ERGO   ROH14445  13.826   4.109   6.677  0.2511 -0.1041 -0.0560
 1304ERGO    R114446  13.924   4.036   6.933  0.1246 -0.2413 -0.0453
 1304ERGO    R214447  13.884   4.192   7.157  0.2535 -0.2214 -0.0356
 1304ERGO    R314448  13.781   3.962   7.259 -0.0191 -0.1228 -0.0806
 1304ERGO    R414449  13.868   4.115   7.494 -0.0618 -0.1703 -0.0364
 1304ERGO    R514450  13.923   3.910   7.445 -0.2000 -0.2240  0.0316
 1304ERGO    C114451  13.761   3.855   7.785 -0.5014 -0.0480 -0.0791
 1304ERGO    C214452  13.597   3.824   7.995  0.4267 -0.2605 -0.0005
 1305ERGO   ROH14453  16.727  15.783  10.523  0.3315  0.1821  0.0240
 1305ERGO    R114454  16.704  15.714  10.249  0.1955  0.1203  0.0503
 1305ERGO    R214455  16.890  15.789  10.060  0.0702  0.1306 -0.0711
 1305ERGO    R314456  16.898  15.523  10.008  0.1100  0.1217 -0.0204
 1305ERGO    R414457  17.014  15.649   9.770  0.0087  0.0993 -0.0823
 1305ERGO    R514458  16.849  15.507   9.774  0.0398  0.0648 -0.0021
 1305ERGO    C114459  17.094  15.317   9.551  0.0102  0.0728 -0.0411
 1305ERGO    C214460  17.481  15.193   9.416 -0.0285 -0.2977  0.0188
 1306ERGO   ROH14461  17.482  18.023   7.884 -0.0464 -0.0860  0.0348
 1306ERGO    R114462  17.458  18.237   8.068 -0.2524 -0.0636 -0.0152
 1306ERGO    R214463  17.246  18.258   8.244 -0.2012 -0.3079  0.0842
 1306ERGO    R314464  17.444  18.274   8.430 -0.1252  0.0172 -0.0188
 1306ERGO    R414465  17.196  18.314   8.581 -0.1164 -0.4049  0.1131
 1306ERGO    R514466  17.371  18.445   8.580 -0.3340 -0.1097  0.0249
 1306ERGO    C114467  17.353  18.362   8.952  0.0040 -0.1562  0.0334
 1306ERGO    C214468  17.361  18.095   9.171  0.1806  0.0132 -0.1487
 1307ERGO   ROH14469   6.762  17.333   9.619  0.3070  0.2169  0.1798
 1307ERGO    R114470   6.772  17.192   9.374  0.3293  0.2074  0.1871
 1307ERGO    R214471   6.570  17.205   9.186  0.1925 -0.0575  0.3126
 1307ERGO    R314472   6.774  17.276   9.020  0.0052  0.1800  0.1758
 1307ERGO    R414473   6.573  17.156   8.843 -0.0990  0.2202  0.2655
 1307ERGO    R514474   6.782  17.100   8.858 -0.0533  0.3136  0.0243
 1307ERGO    C114475   6.765  17.195   8.489 -0.4445  0.6049  0.1098
 1307ERGO    C214476   6.552  17.114   8.215  0.2307  0.1702 -0.1761
 1308ERGO   ROH14477   3.696  12.374   6.690 -0.1301 -0.2055 -0.1888
 1308ERGO    R114478   3.509  12.416   6.898 -0.0280 -0.1277 -0.1110
 1308ERGO    R214479   3.271  12.276   6.915 -0.0785 -0.0341 -0.0100
 1308ERGO    R314480   3.361  12.216   7.164  0.0035 -0.0655 -0.0470
 1308ERGO    R414481   3.070  12.188   7.182 -0.0248  0.2973  0.1448
 1308ERGO    R514482   3.196  12.309   7.311  0.2068  0.1847  0.0287
 1308ERGO    C114483   3.037  12.080   7.572  0.0834  0.4606  0.2002
 1308ERGO    C214484   3.085  11.845   7.947  0.3204  0.1267  0.0567
 1309ERGO   ROH14485   2.369   6.920   6.261 -0.1382  0.1721  0.0906
 1309ERGO    R114486   2.420   6.890   6.538  0.0118  0.2199  0.0706
 1309ERGO    R214487   2.353   7.084   6.724 -0.0720  0.1728  0.1031
 1309ERGO    R314488   2.223   6.877   6.843  0.1537  0.0592  0.1544
 1309ERGO    R414489   2.235   7.086   7.048 -0.0273  0.0884  0.1187
 1309ERGO    R514490   2.302   6.880   7.069  0.1805  0.1644  0.1374
 1309ERGO    C114491   2.045   6.894   7.350  0.2106 -0.0674  0.1757
 1309ERGO    C214492   2.046   6.879   7.648  0.1102  0.1687  0.1404
 1310ERGO   ROH14493   4.460   3.440   9.782  0.3535  0.0040 -0.2134
 1310ERGO    R114494   4.426   3.542   9.520  0.3226 -0.1823 -0.2815
 1310ERGO    R214495   4.396   3.379   9.299 -0.2603 -0.3470 -0.0860
 1310ERGO    R314496   4.171   3.526   9.261  0.0173  0.1224 -0.0144
 1310ERGO    R414497   4.240   3.427   8.994 -0.4934 -0.4271  0.0163
 1310ERGO    R514498   4.205   3.634   9.050  0.0422 -0.2424 -0.2164
 1310ERGO    C114499   3.937   3.593   8.781 -0.3686 -0.0331  0.1432
 1310ERGO    C214500   3.735   3.663   8.461 -0.0390 -0.0375 -0.1101
 1311ERGO   ROH14501  12.519  14.754   6.895 -0.1528 -0.2013 -0.0313
 1311ERGO    R114502  12.423  14.963   7.060 -0.1159 -0.1438 -0.0809
 1311ERGO    R214503  12.197  14.936   7.217 -0.0581 -0.1050  0.0144
 1311ERGO    R314504  12.365  15.012   7.416  0.0081 -0.0064 -0.0796
 1311ERGO    R414505  12.103  14.993   7.545  0.0218  0.2266 -0.0171
 1311ERGO    R514506  12.237  15.165   7.549  0.1004  0.1689 -0.1904
 1311ERGO    C114507  12.207  15.097   7.923  0.1304  0.5123 -0.1237
 1311ERGO    C214508  11.935  15.151   8.180  0.0935 -0.2071 -0.2174
 1312ERGO   ROH14509  12.070   2.476   9.382  0.2259  0.2055 -0.1774
 1312ERGO    R114510  12.138   2.485   9.107  0.0494  0.1431 -0.2233
 1312ERGO    R214511  12.317   2.309   8.993  0.3726  0.4428 -0.1765
 1312ERGO    R314512  12.112   2.263   8.821  0.3705 -0.1465 -0.0395
 1312ERGO    R414513  12.354   2.196   8.668  0.4678  0.2429 -0.0992
 1312ERGO    R514514  12.196   2.334   8.608  0.1244 -0.1334 -0.1449
 1312ERGO    C114515  12.182   2.088   8.317  0.5213 -0.4267  0.0742
 1312ERGO    C214516  12.175   1.883   8.142 -0.4895  0.2868 -0.0681
 1313ERGO   ROH14517  11.661  12.297   6.967 -0.0121 -0.1954 -0.0948
 1313ERGO    R114518  11.546  12.057   7.062 -0.0104 -0.2002 -0.1014
 1313ERGO    R214519  11.685  11.876   7.218  0.0009 -0.2180 -0.1189
 1313ERGO    R314520  11.474  11.907   7.386  0.0137 -0.2140 -0.1052
 1313ERGO    R414521  11.533  11.620   7.394 -0.0488 -0.2122 -0.1544
 1313ERGO    R514522  11.340  11.712   7.350 -0.0257 -0.1744 -0.1275
 1313ERGO    C114523  11.246  11.501   7.653 -0.0655 -0.2050 -0.1623
 1313ERGO    C214524  11.230  11.226   7.905 -0.1845  0.0689  0.0887
 1314ERGO   ROH14525  13.881  15.605  10.366  0.1269  0.3587 -0.1155
 1314ERGO    R114526  13.804  15.471  10.129  0.0778  0.2972 -0.0655
 1314ERGO    R214527  13.745  15.605   9.895  0.0134  0.2385 -0.0854
 1314ERGO    R314528  13.933  15.438   9.791 -0.0006  0.2250 -0.0880
 1314ERGO    R414529  13.840  15.597   9.563 -0.1781  0.0487 -0.1375
 1314ERGO    R514530  13.847  15.380   9.575 -0.1096  0.0597 -0.0006
 1314ERGO    C114531  14.071  15.435   9.271 -0.3027 -0.0744 -0.1704
 1314ERGO    C214532  14.145  15.357   8.934 -0.0983  0.0972  0.0389
 1315ERGO   ROH14533   9.133  16.312   9.405 -0.0261 -0.2181  0.0516
 1315ERGO    R114534   9.095  16.097   9.224 -0.0875 -0.1090 -0.0668
 1315ERGO    R214535   8.882  16.086   9.049 -0.1145  0.0267 -0.0439
 1315ERGO    R314536   9.078  16.056   8.863 -0.1458  0.1008 -0.0893
 1315ERGO    R414537   8.828  16.019   8.714 -0.1653 -0.1517 -0.0011
 1315ERGO    R514538   8.997  15.882   8.719 -0.0576 -0.0213  0.0061
 1315ERGO    C114539   8.981  15.952   8.345 -0.2243 -0.1863 -0.0187
 1315ERGO    C214540   8.973  15.954   7.996 -0.2708  0.0202  0.3433
 1316ERGO   ROH14541   4.782   1.429  10.031  0.0426 -0.0181  0.0112
 1316ERGO    R114542   4.782   1.611   9.814  0.1760 -0.0895 -0.0494
 1316ERGO    R214543   4.717   1.877   9.843 -0.0158 -0.1210 -0.2063
 1316ERGO    R314544   4.958   1.916   9.724  0.0956 -0.0123  0.0460
 1316ERGO    R414545   4.815   2.169   9.685 -0.2284 -0.2604 -0.6097
 1316ERGO    R514546   4.908   2.048   9.530  0.1528 -0.4319 -0.2736
 1316ERGO    C114547   5.098   2.375   9.481 -0.2478 -0.2396 -0.6077
 1316ERGO    C214548   5.199   2.618   9.590 -0.1459 -0.0258  0.2765
 1317ERGO   ROH14549   5.317   9.346   6.592 -0.0034 -0.0981 -0.0418
 1317ERGO    R114550   5.160   9.433   6.811  0.2193  0.1034  0.0406
 1317ERGO    R214551   4.942   9.292   6.904  0.0224  0.4330  0.0840
 1317ERGO    R314552   5.073   9.307   7.141  0.1382  0.1599  0.0426
 1317ERGO    R414553   4.847   9.129   7.194 -0.1593  0.5214  0.0768
 1317ERGO    R514554   4.900   9.308   7.306  0.1859  0.4181  0.1021
 1317ERGO    C114555   4.916   9.048   7.585 -0.1565  0.3167  0.0337
 1317ERGO    C214556   5.129   8.897   7.825 -0.3059  0.1111 -0.1650
 1318ERGO   ROH14557  12.319   0.361   9.449 -0.1149 -0.1287  0.1013
 1318ERGO    R114558  12.541   0.256   9.308 -0.0891 -0.1559  0.1639
 1318ERGO    R214559  12.549  -0.004   9.216 -0.1984 -0.0831 -0.0422
 1318ERGO    R314560  12.602   0.117   8.978  0.0424  0.0755  0.0868
 1318ERGO    R414561  12.767  -0.126   8.977 -0.2845 -0.1631 -0.0822
 1318ERGO    R514562  12.836   0.078   8.943  0.0091 -0.2142  0.1336
 1318ERGO    C114563  12.945  -0.084   8.615 -0.1087 -0.0606  0.0157
 1318ERGO    C214564  12.971  -0.031   8.230  0.3116  0.0388 -0.2087
 1319ERGO   ROH14565   7.039   8.786   9.630  0.0942  0.0073 -0.0090
 1319ERGO    R114566   7.084   8.585   9.436  0.0066 -0.0177 -0.0048
 1319ERGO    R214567   6.960   8.586   9.190 -0.0100  0.0194 -0.0003
 1319ERGO    R314568   7.215   8.570   9.097 -0.0207 -0.0771 -0.0117
 1319ERGO    R414569   7.047   8.493   8.868 -0.0612  0.1163 -0.0421
 1319ERGO    R514570   7.213   8.378   8.952 -0.1234 -0.0096 -0.0970
 1319ERGO    C114571   7.337   8.423   8.594 -0.1010  0.0821 -0.0771
 1319ERGO    C214572   7.483   8.630   8.278  0.1112  0.0376  0.2263
 1320ERGO   ROH14573   6.426   3.286   9.258  0.0034  0.0150  0.0456
 1320ERGO    R114574   6.325   3.342   9.000  0.0087  0.1074  0.0632
 1320ERGO    R214575   6.487   3.427   8.792  0.0334  0.0618  0.0629
 1320ERGO    R314576   6.377   3.216   8.663 -0.0828  0.1368  0.0380
 1320ERGO    R414577   6.463   3.397   8.449  0.2213  0.0156  0.0527
 1320ERGO    R514578   6.263   3.313   8.475  0.1243  0.2057 -0.0542
 1320ERGO    C114579   6.345   3.180   8.127  0.2216  0.0590  0.0236
 1320ERGO    C214580   6.530   3.056   7.889 -0.3171 -0.2051  0.0546
 1321ERGO   ROH14581  10.226  15.080   9.727  0.0823  0.1471 -0.1676
 1321ERGO    R114582  10.184  14.954   9.477  0.1847  0.0033 -0.1140
 1321ERGO    R214583  10.038  15.073   9.274 -0.1369 -0.3099 -0.0730
 1321ERGO    R314584  10.262  15.025   9.129 -0.1162  0.0632 -0.1729
 1321ERGO    R414585  10.042  14.981   8.941 -0.1384 -0.3701 -0.0570
 1321ERGO    R514586  10.204  14.842   8.986  0.1384 -0.0763 -0.1060
 1321ERGO    C114587  10.256  14.883   8.610 -0.1198 -0.0547 -0.1415
 1321ERGO    C214588  10.303  14.924   8.274  0.2518  0.2563  0.5402
 1322ERGO   ROH14589   0.501  15.158   7.722  0.0028 -0.0539 -0.1043
 1322ERGO    R114590   0.616  15.068   7.964 -0.0969 -0.0180 -0.0425
 1322ERGO    R214591   0.866  15.149   8.049 -0.0832 -0.0922 -0.0062
 1322ERGO    R314592   0.732  15.219   8.274 -0.1143  0.0435 -0.0663
 1322ERGO    R414593   1.015  15.216   8.353 -0.1645 -0.4735  0.1233
 1322ERGO    R514594   0.851  15.109   8.451 -0.4159 -0.2380 -0.0292
 1322ERGO    C114595   0.975  15.321   8.743 -0.2410 -0.5680  0.1423
 1322ERGO    C214596   0.863  15.453   9.105 -0.2400 -0.1165  0.4092
 1323ERGO   ROH14597  14.841   5.416   9.216  0.0298 -0.0252  0.0466
 1323ERGO    R114598  14.734   5.394   8.955  0.0737  0.0710  0.0204
 1323ERGO    R214599  14.893   5.389   8.729  0.1205 -0.0014  0.0565
 1323ERGO    R314600  14.758   5.159   8.679 -0.0118  0.0875 -0.0021
 1323ERGO    R414601  14.790   5.285   8.416  0.3034  0.0099 -0.0085
 1323ERGO    R514602  14.603   5.217   8.505  0.1741  0.1691 -0.1459
 1323ERGO    C114603  14.604   5.008   8.186  0.2858  0.1001 -0.1013
 1323ERGO    C214604  14.525   5.124   7.908  0.0525 -0.1080  0.1675
 1324ERGO   ROH14605  13.673  17.092  10.029 -0.0466  0.2743  0.0584
 1324ERGO    R114606  13.652  17.170   9.758 -0.0506  0.1121  0.0121
 1324ERGO    R214607  13.825  17.349   9.640 -0.0733  0.0608 -0.0899
 1324ERGO    R314608  13.859  17.149   9.459 -0.0457 -0.0369  0.0239
 1324ERGO    R414609  13.865  17.396   9.300  0.2375 -0.0963 -0.0792
 1324ERGO    R514610  13.737  17.222   9.267  0.1547 -0.0354 -0.1102
 1324ERGO    C114611  13.920  17.235   8.932  0.4443 -0.2798  0.0339
 1324ERGO    C214612  14.145  17.102   8.729 -0.0022 -0.2286 -0.1700
 1325ERGO   ROH14613  12.087   0.755   9.252 -0.0714 -0.0166  0.0305
 1325ERGO    R114614  12.134   0.888   9.007  0.1192  0.1893  0.1756
 1325ERGO    R214615  11.952   0.887   8.798  0.4506  0.0038 -0.1274
 1325ERGO    R314616  11.978   1.157   8.818 -0.0077  0.0422  0.0702
 1325ERGO    R414617  11.921   1.109   8.535  0.3805  0.1191 -0.0228
 1325ERGO    R514618  12.089   1.221   8.616  0.1132  0.3478  0.2292
 1325ERGO    C114619  11.927   1.491   8.400 -0.0906  0.2223  0.2235
 1325ERGO    C214620  11.821   1.501   8.083  0.1680 -0.1248 -0.1968
 1326ERGO   ROH14621   0.970  10.359   9.419 -0.0788 -0.0990 -0.1011
 1326ERGO    R114622   0.975  10.424   9.144 -0.2486  0.0477 -0.0704
 1326ERGO    R214623   1.049  10.242   8.949 -0.0774  0.2380 -0.1854
 1326ERGO    R314624   0.807  10.308   8.842 -0.1986 -0.0131 -0.0751
 1326ERGO    R414625   0.977  10.253   8.611 -0.2243  0.2371 -0.1557
 1326ERGO    R514626   0.861  10.433   8.646 -0.4198  0.0971 -0.0682
 1326ERGO    C114627   0.710  10.321   8.314 -0.4236  0.0009 -0.0348
 1326ERGO    C214628   0.407  10.433   8.051 -0.2759  0.2635 -0.2663
 1327ERGO   ROH14629  13.802   0.037   9.888  0.1164  0.0339  0.0139
 1327ERGO    R114630  13.761  -0.080   9.634  0.0972  0.0447  0.0121
 1327ERGO    R214631  13.660   0.061   9.419  0.0968  0.0577  0.0221
 1327ERGO    R314632  13.885  -0.029   9.296  0.0847  0.0469  0.0074
 1327ERGO    R414633  13.727   0.094   9.082  0.0640  0.0357  0.0134
 1327ERGO    R514634  13.809  -0.108   9.083  0.0626  0.0336  0.0193
 1327ERGO    C114635  13.977   0.029   8.769  0.0337  0.0126 -0.0055
 1327ERGO    C214636  14.070   0.228   8.470  0.0857  0.0699  0.0716
 1328ERGO   ROH14637   7.589   7.713   9.829 -0.0963  0.1228 -0.0126
 1328ERGO    R114638   7.699   7.796   9.582 -0.0500  0.0873 -0.0034
 1328ERGO    R214639   7.837   7.625   9.416 -0.0765  0.0487  0.0187
 1328ERGO    R314640   7.656   7.709   9.231 -0.0341  0.0876 -0.0063
 1328ERGO    R414641   7.822   7.514   9.089  0.0191  0.1323 -0.0153
 1328ERGO    R514642   7.780   7.718   9.026  0.0227  0.1494  0.0279
 1328ERGO    C114643   7.643   7.528   8.725  0.1145  0.2175 -0.0583
 1328ERGO    C214644   7.412   7.319   8.625 -0.0215 -0.2311 -0.2497
 1329ERGO   ROH14645   7.894  10.567   9.569 -0.0879  0.2001 -0.1785
 1329ERGO    R114646   7.726  10.548   9.343 -0.0309  0.2191 -0.2240
 1329ERGO    R214647   7.659  10.768   9.188  0.0455  0.2274 -0.2542
 1329ERGO    R314648   7.754  10.614   8.986  0.0787  0.2015 -0.2174
 1329ERGO    R414649   7.531  10.762   8.867 -0.0790 -0.0326 -0.2015
 1329ERGO    R514650   7.559  10.546   8.865  0.0849 -0.0092 -0.1063
 1329ERGO    C114651   7.546  10.613   8.490 -0.1203 -0.2084 -0.1364
 1329ERGO    C214652   7.480  10.471   8.131 -0.0233 -0.2338  0.2157
 1330ERGO   ROH14653   6.837   1.661   6.628 -0.1695 -0.2370  0.1334
 1330ERGO    R114654   6.802   1.583   6.898 -0.2252 -0.1671  0.1466
 1330ERGO    R214655   6.958   1.680   7.103 -0.1224 -0.2818  0.1225
 1330ERGO    R314656   6.718   1.746   7.212 -0.0564 -0.0461  0.1301
 1330ERGO    R414657   6.916   1.830   7.412  0.0381 -0.2117  0.1118
 1330ERGO    R514658   6.744   1.700   7.446 -0.0844 -0.0497  0.1336
 1330ERGO    C114659   6.665   1.978   7.694  0.1935  0.0504  0.1128
 1330ERGO    C214660   6.498   2.225   7.839 -0.1389  0.1626  0.0154
 1331ERGO   ROH14661   3.935   9.878   6.318  0.2012  0.2435  0.0507
 1331ERGO    R114662   3.935   9.907   6.600  0.2963  0.0152  0.0753
 1331ERGO    R214663   3.730   9.811   6.759  0.2299  0.1076  0.0358
 1331ERGO    R314664   3.934   9.685   6.888  0.1226 -0.2202 -0.0999
 1331ERGO    R414665   3.719   9.699   7.086  0.2568  0.1163  0.0410
 1331ERGO    R514666   3.923   9.769   7.112  0.3937 -0.2027 -0.0862
 1331ERGO    C114667   3.903   9.517   7.398  0.1718 -0.1863 -0.0833
 1331ERGO    C214668   4.103   9.540   7.703 -0.0320  0.2637 -0.1343
 1332ERGO   ROH14669  15.069   6.770   9.199 -0.0609  0.0222  0.1209
 1332ERGO    R114670  15.192   6.711   8.951  0.0896  0.0699  0.1838
 1332ERGO    R214671  15.049   6.627   8.730  0.2394 -0.0060  0.1188
 1332ERGO    R314672  15.172   6.837   8.610  0.2004  0.0457  0.1669
 1332ERGO    R414673  15.031   6.699   8.393  0.1268  0.1294  0.1523
 1332ERGO    R514674  15.243   6.751   8.398  0.1326  0.1288  0.1064
 1332ERGO    C114675  15.138   6.939   8.084  0.0248  0.2568  0.2169
 1332ERGO    C214676  15.162   7.219   7.732  0.2579 -0.4065 -0.3142
 1333ERGO   ROH14677   3.356  13.452  10.269 -0.0074  0.0764 -0.1602
 1333ERGO    R114678   3.381  13.372   9.998  0.0929  0.0121 -0.1324
 1333ERGO    R214679   3.306  13.534   9.788  0.0214 -0.0996 -0.1938
 1333ERGO    R314680   3.561  13.488   9.703  0.0678  0.0438 -0.1350
 1333ERGO    R414681   3.426  13.608   9.472  0.0326 -0.0986 -0.1894
 1333ERGO    R514682   3.536  13.420   9.475  0.1541 -0.0277 -0.1235
 1333ERGO    C114683   3.734  13.609   9.209  0.0826  0.0367 -0.1317
 1333ERGO    C214684   3.898  13.764   8.835  0.0298  0.2263 -0.1399
 1334ERGO   ROH14685  15.214  16.006   7.417 -0.1002  0.1359 -0.0033
 1334ERGO    R114686  15.033  15.868   7.585 -0.0679  0.1323  0.0315
 1334ERGO    R214687  15.000  15.594   7.575 -0.2058  0.1429 -0.0959
 1334ERGO    R314688  15.053  15.610   7.841 -0.0310 -0.0140 -0.1213
 1334ERGO    R414689  14.888  15.370   7.813 -0.2390  0.1463 -0.1100
 1334ERGO    R514690  14.851  15.538   7.947 -0.0164  0.1137 -0.0221
 1334ERGO    C114691  14.873  15.255   8.202 -0.0945  0.0010 -0.1420
 1334ERGO    C214692  15.023  15.116   8.442  0.2909 -0.0919 -0.1440
 1335ERGO   ROH14693   7.751  10.425   6.897  0.2154 -0.0198 -0.0298
 1335ERGO    R114694   7.692  10.367   7.168  0.0322  0.0720 -0.0484
 1335ERGO    R214695   7.869  10.233   7.334 -0.1398 -0.0068  0.0754
 1335ERGO    R314696   7.833  10.451   7.493 -0.0896  0.0495  0.0104
 1335ERGO    R414697   7.963  10.252   7.666 -0.2271  0.0354  0.0979
 1335ERGO    R514698   7.777  10.358   7.707 -0.1920  0.1282  0.0180
 1335ERGO    C114699   7.983  10.466   8.009 -0.2309  0.1128  0.0500
 1335ERGO    C214700   7.946  10.618   8.172  0.0356 -0.1570 -0.2271
 1336ERGO   ROH14701   8.616  14.162   6.577 -0.2872 -0.0462 -0.1092
 1336ERGO    R114702   8.564  14.090   6.845 -0.1225 -0.1522 -0.1061
 1336ERGO    R214703   8.757  13.981   7.010  0.0693  0.0985 -0.1693
 1336ERGO    R314704   8.687  14.186   7.174 -0.1795 -0.0190 -0.1212
 1336ERGO    R414705   8.829  13.996   7.348  0.2608  0.2001 -0.2121
 1336ERGO    R514706   8.630  14.079   7.381  0.1283 -0.1345 -0.0852
 1336ERGO    C114707   8.805  14.197   7.698  0.1387  0.1490 -0.1918
 1336ERGO    C214708   9.043  14.363   7.770 -0.0877  0.2338  0.0858
 1337ERGO   ROH14709  18.187  11.472   9.863 -0.4349 -0.0772 -0.2843
 1337ERGO    R114710  18.393  11.543   9.683 -0.2737 -0.0373 -0.0881
 1337ERGO    R214711  18.341  11.636   9.428 -0.0493  0.0679 -0.0973
 1337ERGO    R314712  18.498  11.844   9.507 -0.0831  0.0155  0.1122
 1337ERGO    R414713  18.517  11.844   9.215  0.0392  0.2177  0.1187
 1337ERGO    R514714  18.683  11.840   9.355 -0.0194  0.1222  0.1863
 1337ERGO    C114715  18.766  12.160   9.165  0.0589  0.2556  0.4411
 1337ERGO    C214716  18.859  12.410   8.854  0.0976 -0.1143  0.0615
 1338ERGO   ROH14717  13.974  10.491   9.855  0.1978  0.0945 -0.0509
 1338ERGO    R114718  14.039  10.433   9.585  0.3042  0.1409 -0.0353
 1338ERGO    R214719  13.854  10.451   9.381  0.2349 -0.3499 -0.0235
 1338ERGO    R314720  14.041  10.614   9.269 -0.1351  0.0407 -0.1027
 1338ERGO    R414721  13.888  10.507   9.042  0.1489 -0.5049 -0.0594
 1338ERGO    R514722  14.105  10.500   9.068  0.1780  0.0447 -0.0128
 1338ERGO    C114723  14.084  10.693   8.739 -0.2485 -0.2284 -0.1545
 1338ERGO    C214724  13.803  10.848   8.571 -0.3205  0.0944  0.0848
 1339ERGO   ROH14725   0.702   8.621   9.546  0.0189  0.1573  0.1578
 1339ERGO    R114726   0.705   8.850   9.380  0.1298  0.1604  0.1628
 1339ERGO    R214727   0.474   8.974   9.293  0.1810  0.0561 -0.1374
 1339ERGO    R314728   0.589   9.195   9.402 -0.0595  0.1071  0.0194
 1339ERGO    R414729   0.449   9.294   9.165  0.4021  0.0083 -0.3044
 1339ERGO    R514730   0.659   9.325   9.214  0.3064  0.0467  0.1081
 1339ERGO    C114731   0.543   9.688   9.193  0.3051  0.0284 -0.2545
 1339ERGO    C214732   0.517  10.039   9.179 -0.3364 -0.0617 -0.0401
 1340ERGO   ROH14733  16.881  10.872   6.552 -0.0683  0.1135 -0.1297
 1340ERGO    R114734  16.725  10.760   6.760 -0.0125  0.0983 -0.0968
 1340ERGO    R214735  16.835  10.608   6.962  0.0302  0.0132 -0.1868
 1340ERGO    R314736  16.708  10.788   7.122  0.1433  0.0012 -0.0805
 1340ERGO    R414737  16.739  10.548   7.289  0.1515 -0.0593 -0.1629
 1340ERGO    R514738  16.553  10.656   7.249  0.1606  0.0028 -0.0546
 1340ERGO    C114739  16.564  10.683   7.629  0.3286 -0.1126 -0.0492
 1340ERGO    C214740  16.517  10.826   7.865 -0.0415 -0.0650 -0.2477
 1341ERGO   ROH14741  16.225  13.980   7.490 -0.1294  0.1069  0.2238
 1341ERGO    R114742  16.288  13.872   7.744  0.3010  0.0505  0.1010
 1341ERGO    R214743  16.527  13.925   7.872  0.2428  0.5979  0.0147
 1341ERGO    R314744  16.364  14.003   8.075  0.1165 -0.0181  0.1706
 1341ERGO    R414745  16.625  13.959   8.202  0.3288  0.6331 -0.0145
 1341ERGO    R514746  16.435  13.871   8.262  0.6025  0.0345  0.0341
 1341ERGO    C114747  16.529  14.053   8.584  0.2604  0.0753  0.1148
 1341ERGO    C214748  16.712  14.258   8.905 -0.2039 -0.0218 -0.0042
 1342ERGO   ROH14749  10.386   7.562   9.970 -0.1061 -0.1881 -0.2015
 1342ERGO    R114750  10.409   7.731   9.744 -0.0858  0.0237 -0.0450
 1342ERGO    R214751  10.376   7.639   9.486  0.1853  0.2082 -0.1540
 1342ERGO    R314752  10.193   7.840   9.473  0.0168  0.0585 -0.1118
 1342ERGO    R414753  10.278   7.799   9.195  0.1167  0.2566 -0.1039
 1342ERGO    R514754  10.278   7.988   9.305 -0.0720  0.2067 -0.0237
 1342ERGO    C114755  10.049   8.080   9.014 -0.0816  0.1443 -0.0352
 1342ERGO    C214756   9.941   8.094   8.830  0.1306  0.0150  0.0547
 1343W        W14757   5.542   8.848   0.477 -0.1821  0.2059  0.0294
 1344W        W14758   2.602   6.274  10.467 -0.1271  0.2496  0.1389
 1345W        W14759   2.839   5.149   9.790 -0.0680 -0.0102 -0.1423
 1346W        W14760   8.341  14.136   5.631 -0.3371  0.0720  0.0880
 1347W        W14761   9.686   8.676  15.578 -0.1085 -0.2069 -0.0582
 1348W        W14762   0.978  14.223   6.062  0.0639 -0.0111 -0.1387
 1349W        W14763   8.648   6.422  16.387  0.0120  0.0296 -0.0706
 1350W        W14764   8.938   0.176  12.402 -0.1979 -0.2310 -0.1392
 1351W        W14765  11.691   1.555  10.227  0.1358 -0.4694  0.0522
 1352W        W14766   5.520   1.379  15.703 -0.2184 -0.2545  0.1698
 1353W        W14767   8.665  10.314   5.445  0.1913 -0.1456 -0.2670
 1354W        W14768   5.261  15.133   3.490 -0.3366 -0.3130  0.2024
 1355W        W14769  16.262   4.137  11.537  0.2416 -0.1449  0.0866
 1356W        W14770   7.474  10.872  14.298  0.1486  0.2172 -0.1048
 1357W        W14771  12.373  11.266   5.530  0.0064 -0.4089  0.4531
 1358W        W14772   6.233   2.497  13.131  0.0796 -0.1851 -0.0155
 1359W        W14773   4.366   3.467  14.397  0.1419 -0.0632  0.1633
 1360W        W14774  14.622   4.847  11.557 -0.3350  0.0131 -0.3718
 1361W        W14775   9.417  16.314   4.909  0.2460  0.1819 -0.0475
 1362W        W14776   7.314   0.382   0.786 -0.2544  0.0560  0.0276
 1363W        W14777  13.185   6.258   0.186  0.0575 -0.1176  0.0292
 1364W        W14778   4.840  18.283  16.030 -0.0677  0.0898 -0.0772
 1365W        W14779   6.879   5.780  13.742 -0.0463 -0.1300 -0.1579
 1366W        W14780   9.735   9.968  14.268 -0.0466 -0.2117 -0.2178
 1367W        W14781  13.031  14.631  14.466 -0.2140 -0.0817 -0.0598
 1368W        W14782   9.525   8.603   1.990 -0.3461 -0.4556  0.1844
 1369W        W14783  12.148   0.448  15.549 -0.1760 -0.1131 -0.1246
 1370W        W14784  18.292   0.123  12.384  0.0866  0.2006  0.0572
 1371W        W14785  12.229   0.785  15.067 -0.0036  0.1788 -0.0557
 1372W        W14786   0.325  17.486  11.770  0.0149  0.1315 -0.3675
 1373W        W14787  11.880  14.170  11.754 -0.1559 -0.0554  0.1756
 1374W        W14788  14.953   2.492   3.701 -0.0740 -0.1149 -0.0344
 1375W        W14789  12.940   2.013   1.665  0.0379  0.1692 -0.2838
 1376W        W14790   2.809   6.101   4.624 -0.2525  0.1174  0.2024
 1377W        W14791   6.439   4.298   3.308 -0.1344  0.2074  0.4228
 1378W        W14792  17.152  18.117   5.214 -0.2264 -0.0264  0.2872
 1379W        W14793   9.204   4.140   0.089 -0.0778  0.1645  0.1671
 1380W        W14794  13.341   3.620  11.101  0.0145  0.0359 -0.3165
 1381W        W14795   7.300   2.740   2.556 -0.0276  0.0651  0.1094
 1382W        W14796  17.636  11.216  15.056 -0.0058 -0.1400  0.1293
 1383W        W14797  14.315   6.836  13.658  0.0734 -0.2061 -0.0920
 1384W        W14798  17.735  12.003   0.634  0.0520 -0.2163 -0.0413
 1385W        W14799   7.846  15.764  14.472  0.1021 -0.2246 -0.0079
 1386W        W14800  17.815   0.058  15.448  0.1141  0.0973  0.3616
 1387W        W14801  13.522   4.426  15.750  0.0302 -0.1372 -0.0240
 1388W        W14802  13.217   7.333  15.076  0.0197  0.0188  0.3422
 1389W        W14803  12.246   7.874   9.855  0.0103 -0.3183 -0.3141
 1390W        W14804   4.835  16.548   1.929  0.1692 -0.2801  0.0122
 1391W        W14805   6.063  17.179   6.182 -0.0213  0.2692 -0.0415
 1392W        W14806   5.660   2.723  11.493 -0.1377  0.1368  0.1256
 1393W        W14807   3.103   5.728   5.052 -0.2968 -0.1888 -0.0409
 1394W        W14808   3.576   6.475   3.860 -0.1089 -0.3191 -0.1266
 1395W        W14809  11.493   1.951   2.481 -0.1190  0.1668  0.1023
 1396W        W14810   8.212  17.424  11.840 -0.0463  0.0901  0.0502
 1397W        W14811   1.665   0.183   2.476  0.2030 -0.0314 -0.1790
 1398W        W14812   6.216   6.046   2.940  0.4670  0.0780  0.0497
 1399W        W14813  12.161   5.311   0.606  0.0858 -0.1282  0.0602
 1400W        W14814  12.325  13.697   5.271  0.0146 -0.1996 -0.0510
 1401W        W14815  14.163   7.036   3.948 -0.1271  0.0326  0.1352
 1402W        W14816  14.263   5.976  14.131  0.2961  0.1792 -0.1437
 1403W        W14817  11.518  11.610  16.500  0.1530  0.1101 -0.0271
 1404W        W14818  13.332   7.451  10.371  0.0068  0.0181 -0.3936
 1405W        W14819   5.336   9.792   5.959 -0.0788  0.0010  0.0439
 1406W        W14820  16.082  14.528  15.280 -0.0398 -0.3148 -0.2226
 1407W        W14821   4.936   9.363  12.348 -0.1154 -0.1930  0.0114
 1408W        W14822  15.148  14.654   4.681 -0.1997 -0.2497  0.1170
 1409W        W14823   6.554  11.108  14.930  0.0363 -0.1197 -0.1497
 1410W        W14824   1.912   7.353  10.530  0.0857 -0.3722  0.0362
 1411W        W14825   7.278   0.698   3.494 -0.1498  0.0443 -0.0032
 1412W        W14826  10.309  17.705   0.273 -0.0691 -0.0964 -0.0774
 1413W        W14827   2.505   7.661   1.938 -0.1512  0.1518 -0.3522
 1414W        W14828   5.679  17.833  15.436 -0.5257  0.0905  0.0275
 1415W        W14829   7.030  14.399   1.814 -0.0856 -0.0679  0.0271
 1416W        W14830  16.586   6.369   2.387 -0.2277  0.1839  0.3101
 1417W        W14831  17.459  16.330   4.477 -0.0532  0.2819  0.0553
 1418W        W14832  12.946   6.602  10.707 -0.0702  0.4807 -0.1989
 1419W        W14833  11.758   9.386  15.207 -0.2699 -0.2439 -0.4915
 1420W        W14834  13.423   1.751  12.040  0.0587  0.1478  0.4983
 1421W        W14835   9.531  15.847   4.058 -0.0479 -0.0763 -0.3315
 1422W        W14836  17.457  14.009  11.227  0.4137  0.2337  0.0346
 1423W        W14837   2.706  11.488  10.211  0.1107  0.1456 -0.0976
 1424W        W14838   5.698  14.422  15.779 -0.0075  0.1238 -0.1324
 1425W        W14839   7.293   1.361   2.851 -0.1147  0.2427 -0.1178
 1426W        W14840   0.763   9.040   2.657 -0.1589  0.1529  0.1137
 1427W        W14841  14.687   8.001   2.853 -0.0464  0.0819 -0.0622
 1428W        W14842   5.136  12.280   3.603 -0.2736 -0.2324  0.0185
 1429W        W14843   9.625  17.756  16.221  0.2358 -0.1018 -0.0092
 1430W        W14844  16.594   8.375  12.676 -0.1072  0.0493 -0.0705
 1431W        W14845   8.357   4.093   1.406  0.1285  0.0252  0.0728
 1432W        W14846  18.070  10.350   5.389 -0.1424  0.3331 -0.0189
 1433W        W14847   1.353  12.137   5.842 -0.0682 -0.4993 -0.1432
 1434W        W14848  10.728   5.669   2.186  0.0033 -0.3215  0.3886
 1435W        W14849  10.615   6.368  15.693 -0.0228 -0.1508 -0.1517
 1436W        W14850   9.771   4.887  11.612 -0.0480 -0.0542 -0.1237
 1437W        W14851   2.001   7.844  11.280 -0.3234 -0.0838  0.1257
 1438W        W14852   5.852  11.519  14.905  0.0380  0.1404 -0.1540
 1439W        W14853   4.278  16.284   4.412 -0.0595  0.1398  0.2054
 1440W        W14854   0.008  12.225   4.966 -0.0612  0.1007  0.0021
 1441W        W14855  12.255   7.910   4.910  0.0548  0.1122  0.1241
 1442W        W14856   0.382  13.714  16.051  0.0133 -0.0279  0.0826
 1443W        W14857  15.761   7.499  11.571 -0.2109  0.1719  0.0025
 1444W        W14858  14.878   3.198   4.359 -0.0728 -0.1078 -0.0408
 1445W        W14859   8.480  15.091  13.063 -0.2393  0.0633 -0.0451
 1446W        W14860   1.037   5.385  16.092 -0.3718 -0.0796 -0.2794
 1447W        W14861   1.700  12.626  13.828  0.1246 -0.0164 -0.2013
 1448W        W14862   6.691  13.843  13.383 -0.1764  0.0290  0.0740
 1449W        W14863  11.731   8.980   0.901  0.1402 -0.0115 -0.3652
 1450W        W14864  10.205   8.574   3.289  0.1261  0.2960  0.0793
 1451W        W14865   4.752  16.257   2.804  0.0081  0.1861 -0.1151
 1452W        W14866   4.377  13.389   5.956 -0.0218 -0.0032  0.3097
 1453W        W14867  16.545  13.718   0.972 -0.2872  0.1480 -0.1994
 1454W        W14868   8.868  16.697   1.827  0.1458 -0.2806  0.0149
 1455W        W14869   7.502  14.165  11.922  0.2149  0.4109  0.0606
 1456W        W14870  13.866  16.845   0.775 -0.2063 -0.0568 -0.1293
 1457W        W14871   3.456  15.633  12.972 -0.0625  0.0017 -0.1146
 1458W        W14872  17.444   6.642   0.588 -0.1499 -0.0976 -0.0046
 1459W        W14873   0.835  15.184   6.221  0.3050 -0.2548 -0.0237
 1460W        W14874   3.061   6.299  13.381 -0.0112  0.2517  0.1713
 1461W        W14875   5.000  16.708  15.156  0.0125 -0.2913  0.3223
 1462W        W14876   3.844   5.927  10.338 -0.4074  0.2146  0.0187
 1463W        W14877   0.322  12.806   2.857 -0.0220  0.0375 -0.2516
 1464W        W14878  13.619  16.917   2.415 -0.0988  0.1594  0.0640
 1465W        W14879   6.442   0.406   1.263 -0.0442  0.0230  0.0035
 1466W        W14880  16.723  12.362   6.474 -0.3839  0.0300  0.1329
 1467W        W14881   4.750   2.062   4.516  0.1080  0.0543 -0.2215
 1468W        W14882   6.393  13.974   6.096  0.0813  0.2502  0.0928
 1469W        W14883   2.485   0.441   2.438  0.0513  0.3021  0.1034
 1470W        W14884  10.490   6.101  13.965  0.1805  0.2480  0.0588
 1471W        W14885   4.216  17.202   1.612 -0.0865 -0.2362 -0.0473
 1472W        W14886  17.706   2.190  11.797  0.0933  0.0884  0.0128
 1473W        W14887  10.281  11.407  12.916 -0.2270  0.0890 -0.1345
 1474W        W14888  10.483   0.242  13.828  0.2434  0.1483  0.2857
 1475W        W14889  14.972  13.390   0.519  0.2836 -0.2123 -0.0063
 1476W        W14890   5.625  16.697  16.135 -0.0074  0.0864 -0.2693
 1477W        W14891  17.861   3.773   1.811 -0.1416  0.2420 -0.1944
 1478W        W14892  17.019  17.662  13.346  0.0637  0.0394  0.0342
 1479W        W14893  10.279  12.292  15.723 -0.1358 -0.0993  0.3044
 1480W        W14894   8.771  13.933  12.848 -0.0711 -0.0650 -0.2615
 1481W        W14895   7.931   5.131   2.871 -0.0473 -0.1040 -0.1718
 1482W        W14896  16.305   3.538   3.854 -0.0359  0.2935  0.0589
 1483W        W14897   2.920   6.906  15.482 -0.0163 -0.1578 -0.0742
 1484W        W14898  12.269   8.184  15.894 -0.3322  0.0599  0.3105
 1485W        W14899   1.691  11.731   5.915 -0.3738 -0.2627  0.2481
 1486W        W14900  13.011  13.499  14.968 -0.0138 -0.3380  0.1162
 1487W        W14901   5.610  12.821  15.686 -0.2144 -0.0942  0.0365
 1488W        W14902  16.079  16.607   5.856 -0.0089 -0.2149 -0.0618
 1489W        W14903   4.814   7.639  14.731  0.1820 -0.0811  0.0409
 1490W        W14904   5.566   1.713   2.959 -0.2814  0.0362 -0.1308
 1491W        W14905   1.105  12.116   4.657  0.1896 -0.1009 -0.2745
 1492W        W14906  10.786  16.223  13.551 -0.0613  0.0470  0.0888
 1493W        W14907   9.797   2.831   1.327  0.0007  0.2388  0.1325
 1494W        W14908  10.783   1.421  16.270 -0.1531 -0.0401  0.1621
 1495W        W14909   3.992  10.280  15.410 -0.1443 -0.1277  0.0146
 1496W        W14910  17.592  17.230  13.854  0.0486  0.0820  0.3217
 1497W        W14911   7.979   8.681   3.998 -0.0373 -0.0423 -0.1648
 1498W        W14912   0.514   3.863   5.053 -0.0386  0.0472  0.2473
 1499W        W14913   5.349  14.597   5.318  0.0605  0.3078  0.2153
 1500W        W14914  17.195   0.948   6.385  0.3141  0.0025  0.4151
 1501W        W14915  13.181   8.586   1.603  0.1540  0.1847 -0.2387
 1502W        W14916   7.737  17.765  12.651  0.0575 -0.0360 -0.2249
 1503W        W14917   5.957  12.681  13.537  0.2073  0.1233  0.0775
 1504W        W14918  16.306   9.526  10.825  0.0914  0.0229  0.1976
 1505W        W14919  14.214  16.864  16.137 -0.0486  0.1499  0.1344
 1506W        W14920   7.435   7.872  10.615  0.1244  0.1502  0.1300
 1507W        W14921   0.313  15.098   5.079  0.1285 -0.0133 -0.3554
 1508W        W14922   8.944   0.812  12.530 -0.1546 -0.0504 -0.1317
 1509W        W14923   0.868  14.206  12.667  0.0004 -0.2656  0.2212
 1510W        W14924   2.994  17.436   0.453 -0.1454 -0.0392  0.2646
 1511W        W14925   6.232   8.797   1.008 -0.0552  0.2637  0.2457
 1512W        W14926   2.603  15.147   6.208 -0.1723 -0.0582  0.0894
 1513W        W14927  16.868   1.194  12.172  0.2148  0.0795 -0.4842
 1514W        W14928  13.602   1.700  15.842  0.0161  0.2779 -0.1037
 1515W        W14929  16.596  15.367   3.666  0.2472  0.0717 -0.0085
 1516W        W14930  11.516   9.149   2.269 -0.2012  0.2043 -0.3329
 1517W        W14931  16.729  14.651  15.247  0.2333 -0.2991  0.2492
 1518W        W14932  17.756   9.073  12.038 -0.0611 -0.3617  0.0688
 1519W        W14933  11.613   6.682   1.499  0.3524 -0.1292  0.3149
 1520W        W14934  14.422   5.879   1.464 -0.0363  0.2910 -0.2351
 1521W        W14935  17.296  11.643   2.180  0.3330  0.1917  0.3340
 1522W        W14936   6.092   4.122   2.972 -0.2279 -0.1211 -0.0025
 1523W        W14937   6.573  10.406   3.408 -0.1064 -0.6478 -0.1391
 1524W        W14938   9.211  11.854  13.270  0.3938  0.0581 -0.1473
 1525W        W14939  18.143   2.406   2.749  0.0505 -0.0783  0.0509
 1526W        W14940   6.137   1.794   3.794 -0.0772 -0.0070 -0.0173
 1527W        W14941  18.129   4.312  12.414 -0.0651  0.1147  0.1241
 1528W        W14942   6.677   6.834  14.773  0.2036  0.0750 -0.1834
 1529W        W14943  11.943   2.963  14.957  0.3816  0.0444  0.0488
 1530W        W14944  18.237  15.346   3.112 -0.1768  0.0123  0.1560
 1531W        W14945   0.530  11.062   5.683 -0.2086  0.0948 -0.1812
 1532W        W14946  14.660  18.282   2.552  0.2126 -0.0784  0.2533
 1533W        W14947  17.214   9.428   2.165  0.0501 -0.3157  0.4048
 1534W        W14948  11.200  11.531   4.471 -0.0033  0.3031  0.2434
 1535W        W14949   2.500  13.823   0.993 -0.4296 -0.0135 -0.0685
 1536W        W14950  15.715  12.736  14.091 -0.1324 -0.2193  0.0414
 1537W        W14951   7.130   4.674  11.236  0.0754 -0.1914  0.4578
 1538W        W14952   6.114  16.282   0.248 -0.0433  0.0630  0.0407
 1539W        W14953   6.295   5.027  14.092  0.2167  0.0251 -0.0796
 1540W        W14954   2.945  14.796  11.673 -0.0836  0.0748 -0.0293
 1541W        W14955  15.130   8.330  11.250  0.2217 -0.0821  0.1038
 1542W        W14956   5.648  15.503   3.420  0.0044 -0.1095 -0.1467
 1543W        W14957  10.333   1.082   3.361 -0.2338  0.0000  0.2275
 1544W        W14958   3.971   4.326  11.362  0.0245  0.1036 -0.4322
 1545W        W14959  11.105   7.684  13.852  0.0937 -0.1689  0.2767
 1546W        W14960   8.536  15.035   2.748 -0.2621 -0.0495  0.0530
 1547W        W14961   7.532  15.588  10.406 -0.1020 -0.1090 -0.3601
 1548W        W14962   7.197   9.185   3.841 -0.3825 -0.3538 -0.1763
 1549W        W14963   4.165  13.687  15.194 -0.5312 -0.1288  0.0862
 1550W        W14964   1.057   9.675   3.873 -0.0908 -0.1219 -0.4195
 1551W        W14965  15.350   2.943   1.003 -0.0135  0.0655 -0.1211
 1552W        W14966   4.828  18.250  13.971  0.0196  0.1686 -0.2785
 1553W        W14967   5.157   7.130  11.931  0.0995 -0.2026 -0.0713
 1554W        W14968  18.149   0.380  16.301  0.1328 -0.2751 -0.1790
 1555W        W14969  15.348  17.594  15.962 -0.2670  0.0376  0.0653
 1556W        W14970  11.686  12.231  12.241 -0.2992 -0.1855  0.2153
 1557W        W14971   6.564   9.599  14.536  0.3474  0.1694 -0.2958
 1558W        W14972   0.206  18.325   4.346  0.0407 -0.0530 -0.0542
 1559W        W14973  17.071   9.532   9.686 -0.2452  0.0534 -0.0457
 1560W        W14974   7.980  10.503   0.573  0.0328 -0.0868 -0.0186
 1561W        W14975  12.879   8.004   4.763 -0.1258 -0.1939 -0.2462
 1562W        W14976   5.795  18.017   4.534 -0.1445  0.1516 -0.0726
 1563W        W14977   3.487   9.576   5.263 -0.0372 -0.0948  0.1493
 1564W        W14978  11.220  15.583   1.536 -0.2120  0.0250  0.2100
 1565W        W14979   5.768  17.423   5.463 -0.0094 -0.2593 -0.3259
 1566W        W14980   1.306   9.538  13.143  0.1726 -0.1377 -0.0172
 1567W        W14981  17.581  16.887   0.524 -0.1774 -0.1470  0.0064
 1568W        W14982   1.648   8.622  13.337 -0.0232 -0.1818 -0.1406
 1569W        W14983   6.810  11.289  10.993 -0.3581  0.1765  0.1272
 1570W        W14984   7.359   8.500   2.045  0.0617  0.1776 -0.1657
 1571W        W14985  13.557   5.701   5.801 -0.0774 -0.0631  0.0794
 1572W        W14986   6.516  11.282   0.894 -0.0333 -0.1227  0.1671
 1573W        W14987   1.801  12.304   4.734 -0.0883  0.0060  0.0202
 1574W        W14988   7.100   5.802  10.607 -0.2698 -0.1593  0.0793
 1575W        W14989  13.183  16.780  13.311 -0.0084  0.0728  0.1626
 1576W        W14990  11.349   3.528  11.959  0.0431  0.0838  0.1119
 1577W        W14991  12.155   3.649  11.798  0.1095 -0.1229 -0.0613
 1578W        W14992   7.298  16.465   2.949  0.0630 -0.0904  0.3094
 1579W        W14993  12.998   1.716  13.786 -0.2569 -0.2957  0.0859
 1580W        W14994  14.189   9.957  16.501  0.1023  0.3392  0.1257
 1581W        W14995   5.068   7.086  15.365  0.1664 -0.0274 -0.2529
 1582W        W14996   4.991   0.497   5.188  0.2079 -0.0610  0.0995
 1583W        W14997   5.262   6.075  14.679 -0.2076  0.1890  0.6343
 1584W        W14998  12.548   7.630   3.293  0.0347 -0.1398 -0.1686
 1585W        W14999  17.963   3.185  14.678 -0.1087 -0.2068  0.0453
 1586W        W15000  10.937  16.154   2.377 -0.0836 -0.0945 -0.1588
 1587W        W15001   2.687  14.919  16.346  0.0204  0.3492 -0.2586
 1588W        W15002   6.986   3.779   0.186  0.0965  0.4737 -0.2870
 1589W        W15003  16.128  14.864   0.958  0.0065 -0.1461  0.0633
 1590W        W15004   1.418   3.303  15.510  0.1783  0.2555  0.3330
 1591W        W15005   9.553  16.079   4.491 -0.1338 -0.1248  0.2088
 1592W        W15006  13.628   6.517  15.473  0.4284 -0.1400 -0.0421
 1593W        W15007   7.482  17.977  12.265  0.0037  0.1578  0.1416
 1594W        W15008   3.050  12.432   1.022  0.2094  0.0361  0.0126
 1595W        W15009   4.450  15.775  13.992  0.0351 -0.0563 -0.0783
 1596W        W15010  10.077  16.998   5.019 -0.0827 -0.3827  0.1540
 1597W        W15011  17.149   1.749   0.370 -0.0089  0.1772  0.1355
 1598W        W15012  16.785  14.167   0.335  0.2025 -0.5013 -0.2198
 1599W        W15013  10.401   9.251  13.692  0.1538 -0.1220  0.0340
 1600W        W15014   4.864   5.570   4.657 -0.3760 -0.2120  0.1247
 1601W        W15015  13.585   3.002   1.316  0.0904 -0.0553 -0.3402
 1602W        W15016  10.264  17.293   2.947 -0.0825  0.1014 -0.0841
 1603W        W15017   6.408   1.864   3.098 -0.1070  0.1019  0.2793
 1604W        W15018   1.564  11.400  11.414 -0.0893 -0.2115 -0.0221
 1605W        W15019   3.494  16.759   5.781 -0.0212  0.2204 -0.0737
 1606W        W15020   5.470  10.444   1.311  0.2190 -0.0126 -0.1865
 1607W        W15021   5.737  18.115  14.467 -0.1556  0.0478  0.1110
 1608W        W15022  12.995   9.195   3.827  0.3402  0.2263 -0.0013
 1609W        W15023  18.380   4.154   2.431 -0.0856 -0.0310 -0.1472
 1610W        W15024   3.863   8.557   5.009  0.0248  0.1567 -0.1787
 1611W        W15025   0.458   9.548  13.439  0.0086  0.0246  0.0381
 1612W        W15026   1.190  13.452  15.238 -0.0688  0.1334 -0.0290
 1613W        W15027  16.929   7.055   1.721 -0.1637  0.1292 -0.1623
 1614W        W15028  11.316  15.133  13.147  0.4919  0.1267  0.3965
 1615W        W15029   1.826   6.245  12.446  0.1189  0.2290 -0.2106
 1616W        W15030   4.094  13.012  12.101  0.0237  0.0257 -0.1472
 1617W        W15031  17.371  14.870   4.143 -0.1872 -0.2452  0.1724
 1618W        W15032  12.782  16.976   1.367  0.0223  0.0587  0.0929
 1619W        W15033  15.287  13.917   5.465 -0.0935 -0.2333 -0.0983
 1620W        W15034   7.712  12.120  14.632  0.1667  0.0611  0.0254
 1621W        W15035  10.461  13.381  15.536 -0.3045  0.1625 -0.0821
 1622W        W15036  14.775   8.327   5.207  0.1061  0.0640 -0.0122
 1623W        W15037  14.567  15.865  14.005  0.3022  0.0148 -0.3218
 1624W        W15038   4.071  14.751  13.221 -0.0437  0.2158  0.1135
 1625W        W15039   5.813  15.977  12.548 -0.0535 -0.2216 -0.1120
 1626W        W15040   4.338   3.648  11.138 -0.0449  0.0087 -0.3041
 1627W        W15041  15.806   5.445   0.900 -0.1673 -0.3064  0.2241
 1628W        W15042  15.763   7.323  10.557 -0.0676  0.0929 -0.2053
 1629W        W15043   7.444   1.423   5.513  0.0719 -0.0656 -0.0695
 1630W        W15044   6.100  11.294  13.388 -0.2792  0.2512 -0.0347
 1631W        W15045  14.492  14.099   1.502  0.2401 -0.1165  0.0300
 1632W        W15046   1.329   7.489   4.329  0.1383 -0.2020 -0.2512
 1633W        W15047   8.581   3.779  14.823 -0.0428 -0.1857 -0.3040
 1634W        W15048   1.621   5.066   4.315 -0.0527  0.0454 -0.0573
 1635W        W15049  14.110   9.026  15.895 -0.0723 -0.0895  0.2309
 1636W        W15050  17.664   6.865  11.851  0.1591 -0.1599  0.3719
 1637W        W15051   8.669  14.187   4.946 -0.0054  0.1097 -0.2365
 1638W        W15052  14.103   1.683   5.024 -0.3082  0.0010 -0.0137
 1639W        W15053   4.834  13.579   0.038  0.0306 -0.2103 -0.0931
 1640W        W15054   4.098   8.975  13.680 -0.0654  0.1279 -0.2773
 1641W        W15055  15.596   0.512  16.112 -0.0507 -0.0964 -0.0142
 1642W        W15056  15.072   9.759   0.097 -0.0841 -0.1369  0.2814
 1643W        W15057  11.171   0.224  14.323  0.1768  0.2333 -0.1947
 1644W        W15058  16.866  17.823   6.147  0.3232  0.0704  0.2439
 1645W        W15059   4.023  13.113   1.965 -0.0128 -0.3180 -0.0058
 1646W        W15060   4.081   2.809   5.927  0.3572  0.1056  0.1948
 1647W        W15061   1.182   4.798  15.978 -0.0808 -0.0627 -0.0526
 1648W        W15062   6.878  16.885  13.131 -0.1528 -0.1846 -0.1754
 1649W        W15063   7.815  17.408  10.824 -0.0801  0.0429  0.2417
 1650W        W15064   8.950  18.302   0.071  0.1965  0.2856 -0.3332
 1651W        W15065  11.343  16.710   5.642 -0.1516  0.0107 -0.1143
 1652W        W15066   2.666  13.935  14.832  0.2360  0.1645  0.1951
 1653W        W15067   5.304  11.286   1.832 -0.0763 -0.0030 -0.0410
 1654W        W15068   9.590   7.006  10.881  0.0356  0.1177 -0.1324
 1655W        W15069   5.868  12.776  15.200  0.3991 -0.1160 -0.2222
 1656W        W15070   5.245   8.445   4.262 -0.1563 -0.0399  0.0551
 1657W        W15071   5.633   8.152  14.761 -0.1268  0.0061 -0.0201
 1658W        W15072   1.552   7.964   3.131 -0.1236 -0.2466  0.1866
 1659W        W15073   2.996   9.775   0.514 -0.0217  0.1497  0.5670
 1660W        W15074   4.550  16.775   0.399  0.3418 -0.1884 -0.3168
 1661W        W15075   1.938  17.203  13.415  0.2225 -0.1010 -0.3680
 1662W        W15076  10.398  16.556   5.666 -0.1628  0.0482 -0.1853
 1663W        W15077  16.954   2.237   0.742 -0.1765  0.1178 -0.0445
 1664W        W15078  15.019  10.184  14.407 -0.0778 -0.0367  0.1194
 1665W        W15079  17.528  14.029  13.509 -0.3087 -0.1117  0.0427
 1666W        W15080  15.758   1.569  15.330 -0.1512 -0.1088 -0.0477
 1667W        W15081  10.911   7.355  11.218  0.0190  0.0181 -0.3746
 1668W        W15082   0.774   6.561   2.956 -0.6579  0.0804  0.1360
 1669W        W15083   9.618  13.044  12.560  0.1218  0.2483 -0.0680
 1670W        W15084  10.158   0.279  10.622 -0.0883  0.1800 -0.0108
 1671W        W15085  16.181   3.324  11.875 -0.2128  0.1997 -0.2062
 1672W        W15086   3.028  12.271   4.360  0.1549 -0.1194  0.2217
 1673W        W15087   0.276  11.658   3.108  0.1067 -0.3959  0.1696
 1674W        W15088   7.791  15.796  16.192  0.1803 -0.1842  0.1654
 1675W        W15089   2.604  15.980  12.472  0.2499  0.0275  0.1492
 1676W        W15090  14.305   5.391   5.435 -0.1935  0.2106  0.5061
 1677W        W15091   1.253  16.548   2.244 -0.1374 -0.0336 -0.1972
 1678W        W15092  11.477   8.961   5.279 -0.1024 -0.1741  0.0114
 1679W        W15093  17.077  13.041   3.425 -0.1518  0.1239 -0.0820
 1680W        W15094   5.431   5.095   4.021 -0.3439 -0.1901 -0.0117
 1681W        W15095  12.028   6.270  16.144  0.0777  0.0295  0.2156
 1682W        W15096   7.279  12.595   5.272 -0.1266  0.3873 -0.3350
 1683W        W15097  12.737  14.170   3.955  0.1568  0.0898  0.0064
 1684W        W15098   8.144   6.348  14.545 -0.2661 -0.1159 -0.1360
 1685W        W15099   2.382   6.922   3.591 -0.2201 -0.0904  0.1379
 1686W        W15100  12.631   3.411  11.757  0.1022 -0.1231 -0.4933
 1687W        W15101   8.677   8.372  12.858 -0.0418  0.1676  0.1185
 1688W        W15102   6.482  10.648  11.709 -0.2959 -0.1731  0.0352
 1689W        W15103  14.163   4.718   1.925 -0.1208 -0.0172  0.0899
 1690W        W15104  14.315   6.967  10.905  0.0818  0.3553  0.0173
 1691W        W15105  17.181  11.581  11.403 -0.0145  0.4872 -0.1384
 1692W        W15106   1.361   2.988   1.455 -0.1511  0.1438 -0.1491
 1693W        W15107  14.675   6.045   3.201 -0.0290  0.3238  0.0239
 1694W        W15108  12.261  15.960  14.026  0.3537 -0.0466  0.4382
 1695W        W15109   5.222   3.459   2.928  0.0014 -0.0657  0.0778
 1696W        W15110   4.206  16.142   2.153 -0.1632 -0.0056  0.1714
 1697W        W15111  15.092  15.167   1.072  0.1623 -0.3685 -0.0497
 1698W        W15112  17.431   8.388   2.621  0.0343 -0.1370  0.4485
 1699W        W15113  13.043  17.031  14.713  0.0552 -0.2950  0.0589
 1700W        W15114   2.043  16.188  14.013 -0.1080  0.1119  0.1798
 1701W        W15115   3.549   1.502   2.651  0.0049 -0.0112 -0.0494
 1702W        W15116   1.229   1.211   2.843 -0.0573 -0.1007  0.2653
 1703W        W15117   1.792   5.828  12.809  0.2546 -0.2185 -0.0629
 1704W        W15118  11.501  11.972  15.225  0.3352  0.0599  0.0696
 1705W        W15119  13.424   1.073   3.625 -0.0977  0.1838  0.2187
 1706W        W15120  17.949  13.789  14.827  0.0776 -0.1364  0.4819
 1707W        W15121   3.709   3.614  10.945  0.1952 -0.2294  0.0138
 1708W        W15122   3.037  16.088   5.077 -0.3422  0.2383 -0.2533
 1709W        W15123   3.371   7.073   2.026 -0.1130  0.0490 -0.0997
 1710W        W15124   1.674   4.665  15.550  0.0184  0.3140  0.1967
 1711W        W15125  15.069  13.482   4.695 -0.0452 -0.1245 -0.1231
 1712W        W15126   1.336  16.235  11.946  0.2220  0.0057 -0.2637
 1713W        W15127  18.290  17.768  11.721 -0.1476 -0.2124 -0.0273
 1714W        W15128   4.541  11.400   2.977 -0.1664 -0.0172  0.1347
 1715W        W15129  11.656  13.188   2.388  0.1613 -0.2198  0.2273
 1716W        W15130   5.121   4.250  13.033 -0.0595  0.1719  0.0682
 1717W        W15131   8.024  17.875  11.577 -0.0187 -0.2668 -0.1674
 1718W        W15132   3.863   3.860   5.775 -0.2132 -0.0886 -0.2915
 1719W        W15133   6.539   3.170   4.591 -0.0967 -0.3276 -0.5297
 1720W        W15134  11.420  18.118   2.549  0.2384 -0.5764  0.3603
 1721W        W15135   0.597   8.592  12.473  0.0934 -0.1469  0.4474
 1722W        W15136   0.782   6.549   0.076  0.0335  0.1837  0.0785
 1723W        W15137  14.177   6.734  12.074  0.0093  0.2597  0.2260
 1724W        W15138   9.233   1.067   1.764 -0.1635  0.0171  0.1782
 1725W        W15139   2.909   0.548  11.795  0.0188  0.0986  0.3013
 1726W        W15140  17.928   2.510  15.215  0.0126  0.1410 -0.4089
 1727W        W15141  17.989  10.415   2.420 -0.0461 -0.3406  0.0180
 1728W        W15142   4.504   0.366   3.545 -0.1572 -0.0672  0.2642
 1729W        W15143   1.480   4.429   5.233 -0.0653  0.0134 -0.1104
 1730W        W15144   8.092   9.339  11.165  0.0318 -0.1364 -0.1565
 1731W        W15145  11.852  17.371  14.420 -0.0653 -0.0172 -0.0321
 1732W        W15146  15.433  15.709   1.950 -0.0949  0.1218  0.1775
 1733W        W15147  12.655  10.832   3.450  0.0554 -0.1368 -0.2588
 1734W        W15148  17.882   4.716   0.136 -0.1116 -0.3272  0.2472
 1735W        W15149  15.579   1.275   3.577  0.5313 -0.1946 -0.0116
 1736W        W15150  10.248   5.483   9.809  0.2453  0.1378 -0.1609
 1737W        W15151   7.235  10.417  14.614  0.0158  0.0779 -0.0716
 1738W        W15152   3.586  13.893   0.823 -0.0934 -0.1751  0.5503
 1739W        W15153   4.904  16.324   1.501  0.2709 -0.0314  0.0016
 1740W        W15154  12.332  13.640   2.518 -0.2920 -0.1650  0.0699
 1741W        W15155  10.874   1.707   2.300  0.0813 -0.0104 -0.0173
 1742W        W15156  13.215  10.266  14.515  0.2604  0.0088 -0.1346
 1743W        W15157  13.772   5.630   2.103 -0.0771 -0.1364  0.0079
 1744W        W15158  12.603  15.667  14.248 -0.0389  0.3212 -0.4582
 1745W        W15159   0.452   3.362  11.607 -0.0873  0.0383 -0.4637
 1746W        W15160  12.647  16.380  15.904 -0.2824  0.0239 -0.0189
 1747W        W15161   7.798   3.561  15.259 -0.1698 -0.2281  0.0946
 1748W        W15162   6.465   3.206  15.121 -0.0060 -0.0047 -0.2370
 1749W        W15163   7.962   0.866   5.137 -0.0247  0.2475 -0.0316
 1750W        W15164  13.046   0.748   3.664  0.3017 -0.2831 -0.0782
 1751W        W15165   7.705   5.461  13.361  0.3154 -0.2523  0.0277
 1752W        W15166   4.854  15.598  16.396 -0.2276 -0.0909  0.1132
 1753W        W15167  11.089   2.744   5.186 -0.1434 -0.1442  0.0253
 1754W        W15168   1.437   1.976   3.127 -0.1417 -0.0883  0.1413
 1755W        W15169  16.389  10.100  13.047  0.1165 -0.1246  0.2564
 1756W        W15170   6.792   4.543   4.125 -0.3518  0.0340 -0.0847
 1757W        W15171  14.139   6.683   3.087  0.3376 -0.1469  0.1137
 1758W        W15172  14.844   4.989  11.144  0.2367  0.1535  0.0264
 1759W        W15173   9.791   4.243  14.984 -0.0097  0.2277  0.0529
 1760W        W15174  16.547  17.754   6.912  0.3813  0.2861 -0.0317
 1761W        W15175  12.569   3.111   1.535  0.0415 -0.2381 -0.0309
 1762W        W15176  17.874   7.973  15.508 -0.3112 -0.5643 -0.0691
 1763W        W15177   0.626  11.783  14.741 -0.0666 -0.0676 -0.0101
 1764W        W15178   3.739  12.426   1.258  0.0385  0.4104 -0.0256
 1765W        W15179  11.066   8.874  14.144 -0.2191  0.2439  0.1397
 1766W        W15180  17.614   7.174  10.942 -0.0472  0.1347  0.0247
 1767W        W15181   9.013  11.722   2.785  0.1300 -0.2099  0.1818
 1768W        W15182   0.935   8.473  11.978  0.3641  0.1690  0.2588
 1769W        W15183   4.056   8.207   4.003  0.0118  0.0952 -0.1869
 1770W        W15184   2.796   1.246  14.805 -0.1101 -0.1616 -0.0570
 1771W        W15185   2.387  11.108   9.812  0.0550 -0.0160 -0.2776
 1772W        W15186  10.328   6.062   3.321  0.1806  0.2171  0.3090
 1773W        W15187   3.669   2.406   2.428 -0.1319 -0.0352 -0.0590
 1774W        W15188   6.220  17.633   5.450 -0.0447  0.2016 -0.2029
 1775W        W15189   5.774  13.636  13.266  0.0774  0.2238 -0.0693
 1776W        W15190   9.040   1.697  14.984 -0.2044 -0.2380  0.1643
 1777W        W15191  13.392   0.706   4.703  0.1039  0.1320  0.1572
 1778W        W15192   5.764  10.132   6.504  0.1365  0.0186  0.3478
 1779W        W15193  11.471  18.076  10.589  0.1225  0.1609  0.4554
 1780W        W15194  15.174   2.126   5.964 -0.3870  0.2257  0.0446
 1781W        W15195  12.814   2.788   5.168  0.1358 -0.1931  0.0056
 1782W        W15196  18.228  14.070   3.636  0.0191 -0.2283 -0.2248
 1783W        W15197   9.292  13.451  12.738  0.1330  0.0394 -0.1395
 1784W        W15198   0.641  12.907   6.633 -0.0850 -0.0872  0.3819
 1785W        W15199   6.083   3.576  11.598  0.0025 -0.1598  0.0073
 1786W        W15200  12.998  17.177  14.184 -0.0777 -0.1773  0.2384
 1787W        W15201   2.858  17.276  11.330  0.2978 -0.1073 -0.1383
 1788W        W15202   1.755  11.488   6.345  0.1058  0.0918 -0.2325
 1789W        W15203  13.797  12.057  11.298  0.0084  0.3477  0.2059
 1790W        W15204  14.223  12.051  12.586 -0.0744  0.0423  0.0464
 1791W        W15205  10.972  12.082   2.702  0.1431 -0.2264  0.0378
 1792W        W15206  14.230  16.874   3.119 -0.0384 -0.1417 -0.0426
 1793W        W15207  17.067   8.059   0.592  0.1580 -0.1680  0.1841
 1794W        W15208   1.072  11.554  11.446  0.0415 -0.2239 -0.0142
 1795W        W15209   3.928   6.561   4.432 -0.0445  0.2095  0.2173
 1796W        W15210  11.095  12.295   5.625 -0.1356  0.0682  0.1521
 1797W        W15211  15.231   9.491   1.685  0.0232  0.2506  0.0427
 1798W        W15212   6.489  11.933  12.074 -0.0962 -0.1884  0.4098
 1799W        W15213  11.074  17.725   2.678 -0.0577 -0.0809  0.0543
 1800W        W15214   3.883   3.192  14.527 -0.1047  0.1495 -0.0603
 1801W        W15215   9.488   6.918   4.449  0.2541  0.0886  0.0682
 1802W        W15216   1.940   6.500   1.293 -0.0156 -0.0757  0.3086
 1803W        W15217   8.439  11.659   5.443  0.0942  0.1984 -0.0522
 1804W        W15218   2.158   9.121  15.578  0.2831  0.0866 -0.0108
 1805W        W15219   2.151  17.924  11.815  0.1369  0.4163  0.2823
 1806W        W15220   0.645   3.983  12.950  0.0488 -0.3592 -0.3747
 1807W        W15221   8.394   9.307   2.540 -0.1038  0.1448  0.4207
 1808W        W15222   7.189   6.971   1.171 -0.0246  0.2176  0.0818
 1809W        W15223   6.585  12.495   2.201  0.1842  0.0170 -0.4037
 1810W        W15224  12.881  11.263   3.497 -0.1060  0.3614 -0.0567
 1811W        W15225  16.504  16.671   6.479  0.3777 -0.0553  0.2648
 1812W        W15226   7.893  15.764  10.775 -0.3586 -0.3525  0.1607
 1813W        W15227   8.345  15.081  15.758  0.0677 -0.0685  0.0892
 1814W        W15228   9.752  15.505  11.533  0.1157  0.0929  0.0382
 1815W        W15229   3.583  14.442  14.017  0.2422  0.0277  0.2169
 1816W        W15230   1.168   9.766   0.232  0.0676  0.0252 -0.2406
 1817W        W15231  18.238   3.251  14.268 -0.0097  0.3262 -0.4235
 1818W        W15232  11.225  17.962   3.413 -0.3690 -0.0764 -0.3709
 1819W        W15233   7.773   8.190   1.852 -0.3441  0.3236 -0.0777
 1820W        W15234  11.718  18.364   0.790 -0.0330 -0.1195 -0.2119
 1821W        W15235   0.298  17.990   0.712 -0.1848 -0.0380  0.0045
 1822W        W15236   2.709   3.257   5.932  0.2405  0.0317 -0.2173
 1823W        W15237   7.133   3.730  15.296  0.1822 -0.1296 -0.0759
 1824W        W15238   4.685  13.624   4.003  0.0672  0.0542 -0.0521
 1825W        W15239  13.275  16.373  12.103  0.1730  0.3622  0.1863
 1826W        W15240   9.169   7.996   4.168  0.0011  0.1163  0.2195
 1827W        W15241   4.028  13.108   6.248  0.1500 -0.0404  0.3512
 1828W        W15242   4.748   6.881   1.381 -0.1251  0.0863  0.1272
 1829W        W15243   5.770  18.133  11.123 -0.2916 -0.1057  0.1413
 1830W        W15244  14.872  11.242   4.007  0.1147  0.0417 -0.0846
 1831W        W15245  10.936   3.160   4.831  0.2214 -0.1266 -0.1824
 1832W        W15246  10.807  15.846  11.003 -0.4195  0.0530  0.0517
 1833W        W15247   5.681  12.018   0.483 -0.0445 -0.2025 -0.3947
 1834W        W15248  14.802  11.852   1.310  0.0355  0.2495 -0.2615
 1835W        W15249   1.020  13.824  11.891 -0.2110 -0.1140  0.1139
 1836W        W15250   6.414  12.076   3.521  0.0062 -0.3149 -0.2784
 1837W        W15251   1.976   3.387  15.422  0.0752  0.0034 -0.0150
 1838W        W15252  12.834  11.327  15.785  0.1557  0.1523 -0.3026
 1839W        W15253   1.000  16.665   4.671  0.4188 -0.0338 -0.3102
 1840W        W15254  13.192   2.566  14.070  0.0289 -0.0006  0.2170
 1841W        W15255   9.388  10.488  15.820 -0.1060  0.3510 -0.0058
 1842W        W15256  10.605   4.748   5.727 -0.1784  0.1956 -0.1644
 1843W        W15257   5.041  11.075   5.856 -0.1182 -0.1062  0.0376
 1844W        W15258   6.775   7.234  12.849 -0.2602  0.4164  0.0717
 1845W        W15259  13.865  13.962  14.339  0.0040  0.0768  0.1195
 1846W        W15260  16.859   1.274   6.177 -0.0227 -0.2359 -0.1864
 1847W        W15261   0.286  15.650   5.888  0.3938 -0.0816  0.0886
 1848W        W15262   6.142   4.711  10.551  0.2532  0.3278 -0.0797
 1849W        W15263  15.186   5.325   1.744  0.0269 -0.1101  0.0343
 1850W        W15264  10.420   3.492  14.842 -0.1008 -0.0936  0.1137
 1851W        W15265   8.137  12.192  11.792 -0.1335 -0.1655 -0.3137
 1852W        W15266  15.629   7.907  11.929 -0.1869  0.0818 -0.1397
 1853W        W15267   7.361  16.856   5.158  0.1051 -0.1208  0.0928
 1854W        W15268   5.095   5.608   1.294 -0.0336  0.0910 -0.2531
 1855W        W15269   5.080   4.748   3.933  0.1989  0.0865  0.0966
 1856W        W15270   1.141   2.353  16.326  0.0509  0.2192  0.2003
 1857W        W15271   6.311   9.296  10.796 -0.2910 -0.2282 -0.1355
 1858W        W15272  16.164   7.817   4.611 -0.1056 -0.0968  0.0111
 1859W        W15273   9.483  14.807   2.735 -0.0483  0.0503  0.1563
 1860W        W15274   5.179  10.942  15.636  0.0120  0.2907 -0.1171
 1861W        W15275   4.181   3.125   3.732  0.1708 -0.2120  0.1374
 1862W        W15276  17.057  16.361  14.216 -0.2415 -0.2785  0.1939
 1863W        W15277   4.699   8.137   5.048  0.1419  0.2906  0.2974
 1864W        W15278   5.230   3.369  11.560  0.0656 -0.2420  0.3866
 1865W        W15279   9.908  14.349  13.386 -0.2298 -0.0039  0.2045
 1866W        W15280  13.194   5.291   4.366  0.0883  0.0171 -0.0174
 1867W        W15281   0.568  17.821   1.135 -0.1061 -0.0748 -0.2994
 1868W        W15282   6.531  13.526   4.601  0.0785  0.0651  0.0885
 1869W        W15283   4.330  10.927  16.346  0.0788  0.1447 -0.1963
 1870W        W15284  12.556  10.014   5.682 -0.0444  0.1791 -0.2660
 1871W        W15285   1.190   9.698  12.644  0.0987 -0.2656 -0.1337
 1872W        W15286   4.140   5.713  15.137 -0.1589 -0.0599 -0.2406
 1873W        W15287  14.553  14.612  13.365  0.1234  0.1567 -0.1032
 1874W        W15288   1.399   2.669   3.005 -0.0054  0.1742  0.1897
 1875W        W15289  11.155  17.527   3.689 -0.1308  0.0937 -0.3709
 1876W        W15290   7.009   5.429   2.995 -0.1322  0.0635  0.1103
 1877W        W15291  15.752  17.287  15.210  0.1047 -0.3806 -0.0759
 1878W        W15292   2.146  13.830  12.231 -0.0137  0.0247 -0.0279
 1879W        W15293   8.397  17.967   3.904 -0.0186  0.2388 -0.0206
 1880W        W15294   6.312   0.404  11.141 -0.0421 -0.3282 -0.4247
 1881W        W15295  14.548   9.624  10.114 -0.2509  0.0542  0.0433
 1882W        W15296  10.920   1.731   4.595  0.1650 -0.1648 -0.3434
 1883W        W15297  14.499   4.871  10.782  0.0020 -0.0558 -0.0700
 1884W        W15298  18.351  13.414   4.331 -0.1046 -0.0787  0.0886
 1885W        W15299  14.869   4.276  12.211 -0.1921 -0.2154  0.0713
 1886W        W15300   4.824   6.738  15.146 -0.1197  0.0425  0.5568
 1887W        W15301   4.783  13.774  13.370 -0.1623  0.0930  0.0654
 1888W        W15302   6.276   5.982   0.348  0.0083  0.0515  0.0279
 1889W        W15303  11.840   3.568   1.061 -0.0112 -0.0523 -0.1588
 1890W        W15304  14.905  12.878  16.016  0.2048  0.0563  0.0459
 1891W        W15305   1.146   2.960  14.552  0.2625  0.2220  0.1979
 1892W        W15306  11.696  18.140  15.138 -0.0541 -0.4014 -0.2607
 1893W        W15307   6.339   6.877   1.946  0.4380  0.2070  0.4305
 1894W        W15308   8.883  15.293   4.492 -0.1211  0.1903  0.4856
 1895W        W15309  17.503  14.843  11.627 -0.3955  0.2205  0.0204
 1896W        W15310  11.236  13.612  14.329 -0.1346  0.1019  0.2166
 1897W        W15311  13.291   5.158   3.369 -0.2383 -0.1707  0.2171
 1898W        W15312   5.226   6.977  10.671 -0.0160 -0.1463 -0.2858
 1899W        W15313   8.801   2.454   0.651 -0.2013 -0.1933 -0.2243
 1900W        W15314  17.245   6.813  15.814 -0.0430  0.0299  0.1401
 1901W        W15315  13.949  10.954   3.368 -0.2164  0.1858 -0.0504
 1902W        W15316   6.786  13.028  13.923  0.0342  0.0451  0.0832
 1903W        W15317   3.556  10.990   3.870 -0.1003 -0.0812 -0.0283
 1904W        W15318  16.955  15.568  15.437  0.4794 -0.0248 -0.0692
 1905W        W15319   9.236   6.675  16.337 -0.4261 -0.2680 -0.1790
 1906W        W15320  15.310   5.819   1.734  0.1870  0.3593  0.0682
 1907W        W15321  13.652  12.534   0.822 -0.2695  0.1576  0.0299
 1908W        W15322   4.393  16.388   1.733 -0.3368  0.0412  0.0793
 1909W        W15323   7.295  13.101  10.973  0.1322  0.0645 -0.3799
 1910W        W15324   8.859   8.793   3.187 -0.2793  0.1271  0.1221
 1911W        W15325  11.782   1.523  14.607  0.1055  0.2981 -0.5557
 1912W        W15326  10.135  10.903   4.961  0.3713  0.1229  0.0350
 1913W        W15327   7.178   7.260  14.294 -0.1325 -0.1478  0.2871
 1914W        W15328  11.982  10.886  12.899  0.2661 -0.0087 -0.0147
 1915W        W15329  13.222   8.166   3.125  0.0098 -0.0539  0.1322
 1916W        W15330   5.726   2.291  11.178  0.1226 -0.1192 -0.0828
 1917W        W15331   1.355   2.027   1.785 -0.0348  0.0468  0.0268
 1918W        W15332   6.786   9.039  12.692 -0.1348  0.0097 -0.4072
 1919W        W15333  12.154  17.863  13.188 -0.1036  0.0902  0.2513
 1920W        W15334   9.622  11.579  13.340  0.0423  0.1860 -0.1792
 1921W        W15335  16.402  18.300   6.669  0.0848 -0.0609 -0.0938
 1922W        W15336   9.825   5.510   2.794 -0.0076 -0.3319  0.0257
 1923W        W15337  12.092  16.469  11.720  0.2397  0.0968  0.1551
 1924W        W15338   2.389  16.441   0.935 -0.2169  0.0179  0.0627
 1925W        W15339   2.156   0.357  15.914  0.0241  0.2599 -0.3513
 1926W        W15340   5.222   2.904  12.583  0.0428  0.1820  0.0009
 1927W        W15341   1.423   8.174  11.123 -0.1239  0.1256  0.0585
 1928W        W15342   7.512  10.235   6.362  0.2049  0.2111  0.0519
 1929W        W15343  11.419   0.905  12.795  0.1804  0.3214 -0.0739
 1930W        W15344   6.243  10.977  15.541  0.4562  0.1932  0.1691
 1931W        W15345   5.624  12.132   1.761 -0.0008 -0.0850 -0.1773
 1932W        W15346  12.722   7.965  16.112 -0.5071 -0.2472  0.2029
 1933W        W15347  17.053  13.914   1.155 -0.1532 -0.1532 -0.3744
 1934W        W15348   1.613   7.027  11.889  0.0314  0.1355 -0.1434
 1935W        W15349   0.346   9.550  14.056 -0.0514  0.1983  0.1347
 1936W        W15350   7.012  15.735  14.271 -0.3431 -0.3600 -0.1742
 1937W        W15351  10.671   9.144   0.104  0.0579  0.1022  0.1128
 1938W        W15352   5.174  14.146   2.502  0.0096  0.2993  0.2936
 1939W        W15353   5.568   8.378  15.175 -0.1820 -0.0334  0.0768
 1940W        W15354   4.865  14.202   3.009  0.0664  0.0828  0.0794
 1941W        W15355   9.905  15.977  16.159 -0.2949  0.0449  0.1538
 1942W        W15356   1.476  12.115   3.572 -0.2816  0.0631 -0.1004
 1943W        W15357   8.857  15.169  13.434 -0.1631 -0.0231 -0.3153
 1944W        W15358   6.686  15.577  10.477 -0.2717 -0.0584 -0.1400
 1945W        W15359   2.625   2.930  14.879 -0.1855  0.2336  0.4237
 1946W        W15360   2.588  11.202   4.931  0.1936 -0.1550  0.1285
 1947W        W15361  13.954   1.737   3.662  0.1733  0.2927 -0.4783
 1948W        W15362   6.778   7.487   3.956  0.2789 -0.2975 -0.0849
 1949W        W15363   1.229  14.264  15.088  0.0024 -0.1925 -0.0412
 1950W        W15364   4.951  10.116   9.983 -0.1599  0.0968 -0.1232
 1951W        W15365  15.906  11.953   3.398 -0.1580  0.2360  0.3081
 1952W        W15366   2.633   6.768  14.209 -0.0606  0.0195  0.1018
 1953W        W15367  17.543   6.311  12.818 -0.1062  0.0903  0.1781
 1954W        W15368   5.208  13.406  11.667 -0.1258  0.1178 -0.1460
 1955W        W15369  11.227  15.974  10.545 -0.0149 -0.1394 -0.0706
 1956W        W15370   3.932  14.090   1.142  0.2137  0.3189  0.1379
 1957W        W15371   3.830  14.918  14.471 -0.1653  0.0243  0.1801
 1958W        W15372   7.779  11.952  11.998  0.3521  0.1828  0.0390
 1959W        W15373  15.590   6.607   4.114 -0.0223 -0.1051  0.1449
 1960W        W15374  16.120   6.884   2.903  0.0718 -0.0385 -0.0601
 1961W        W15375   5.576  11.693   1.901  0.4235  0.0250 -0.1070
 1962W        W15376  14.243   2.413  11.026 -0.2218  0.0528  0.0713
 1963W        W15377   9.236  18.379  15.050  0.1052  0.2813  0.0573
 1964W        W15378   6.851   3.787  12.041  0.4056 -0.1696  0.0361
 1965W        W15379  14.577   9.607   3.486 -0.0964  0.2257  0.1731
 1966W        W15380   9.965  16.854  13.352 -0.0279  0.2261 -0.0226
 1967W        W15381  13.830   8.150   5.297  0.2993 -0.0915 -0.2117
 1968W        W15382   7.030  11.311   4.933  0.5155  0.2543  0.2063
 1969W        W15383  17.864  16.601   4.187  0.2317  0.0580  0.3372
 1970W        W15384   7.339  12.449  11.319 -0.0188  0.1349  0.1718
 1971W        W15385   6.421  14.214   0.518 -0.1091 -0.0403 -0.1632
 1972W        W15386  10.475   2.761   0.664  0.0563 -0.0991  0.1479
 1973W        W15387  17.244   2.573   4.024 -0.2397 -0.3032  0.2306
 1974W        W15388  18.053  17.064   1.608  0.3370 -0.1811  0.2246
 1975W        W15389   9.653   5.022  15.685  0.1964  0.0189  0.3206
 1976W        W15390   8.199   7.752   0.888 -0.0827  0.0280  0.0171
 1977W        W15391  17.231   9.287   5.576 -0.1881  0.1651  0.1543
 1978W        W15392   1.422  12.404  12.498  0.1481 -0.0156  0.0630
 1979W        W15393   1.808   8.829   0.589 -0.1498  0.2477 -0.0420
 1980W        W15394  10.786  16.985   0.093 -0.1939 -0.0375  0.2143
 1981W        W15395   8.761   8.919   1.706 -0.0402  0.0636  0.0587
 1982W        W15396   2.714  14.305   1.077 -0.3239 -0.3314 -0.0968
 1983W        W15397   9.942  14.713  11.394 -0.0928  0.1171 -0.1169
 1984W        W15398   6.395   3.762   3.133 -0.0889  0.0740 -0.0072
 1985W        W15399  14.659  10.140   5.274 -0.1456 -0.0139 -0.3160
 1986W        W15400  15.761  11.031   3.193 -0.0019  0.1368 -0.3839
 1987W        W15401   3.658   1.556  12.032  0.0984  0.2049 -0.1444
 1988W        W15402  11.882   9.018  12.533 -0.3858 -0.0918 -0.0056
 1989W        W15403   9.636   4.762  15.041  0.1417 -0.0248 -0.0453
 1990W        W15404   8.427   3.220  11.039  0.0708 -0.2002 -0.0595
 1991W        W15405  15.515  10.418   0.191  0.1897 -0.1810 -0.0480
 1992W        W15406   9.789  14.945   1.415  0.2801  0.3172 -0.1781
 1993W        W15407  12.647   6.882  11.024  0.2191 -0.0013 -0.1548
 1994W        W15408   7.924  18.264  10.788  0.1966 -0.0587 -0.0491
 1995W        W15409   7.908  11.845   0.790  0.1448  0.0429  0.1447
 1996W        W15410  10.727  11.424  13.981  0.0093 -0.0498 -0.1607
 1997W        W15411  18.019   2.929  13.986  0.3029  0.0641  0.2098
 1998W        W15412  14.349   9.397  14.540  0.2114 -0.0286  0.3306
 1999W        W15413  16.199   3.368  11.219 -0.0543  0.1181  0.1959
 2000W        W15414   1.035   1.377  15.800  0.1810 -0.2043 -0.3816
 2001W        W15415   9.671   1.258  14.296  0.0771  0.1583  0.1982
 2002W        W15416   4.252  17.357  12.606  0.0248  0.1174 -0.0381
 2003W        W15417   0.684   6.916  14.563  0.0737  0.0868  0.0591
 2004W        W15418  14.995   0.425   2.434 -0.0654  0.2785 -0.0527
 2005W        W15419  13.299  12.925  11.801 -0.4630 -0.0181  0.4391
 2006W        W15420   4.715   7.176  10.188  0.1603  0.0508  0.0189
 2007W        W15421   1.473   7.447   5.260 -0.1471 -0.0036  0.0328
 2008W        W15422   0.227   7.193  13.519  0.0168 -0.0777  0.0226
 2009W        W15423   7.671   2.357   2.615  0.3337  0.1094  0.0707
 2010W        W15424  11.035   8.884   5.078 -0.1358  0.0273  0.1661
 2011W        W15425   6.639   5.164  11.726  0.0715 -0.2774 -0.1703
 2012W        W15426   3.087   4.162  14.963 -0.2629  0.2890 -0.0290
 2013W        W15427   8.835   5.831  11.702 -0.3321  0.2860 -0.0735
 2014W        W15428  12.321  17.631   0.689  0.1621  0.0519 -0.0308
 2015W        W15429  17.536   0.225   5.580  0.0407  0.1925  0.0690
 2016W        W15430  12.410   9.131  11.768 -0.1309 -0.1081 -0.3313
 2017W        W15431  13.971   5.905   2.623  0.0377  0.2073  0.2694
 2018W        W15432  14.605  10.058  12.229 -0.0327 -0.4977 -0.1192
 2019W        W15433  15.138  10.436   6.274  0.0027 -0.2101 -0.1607
 2020W        W15434   0.384  11.097  15.895  0.0999 -0.0412 -0.0459
 2021W        W15435   3.986   2.208  10.983 -0.0610 -0.0795  0.0296
 2022W        W15436   5.086  10.868   4.348  0.2061  0.2471  0.0979
 2023W        W15437  15.651   8.742   5.206  0.0215 -0.2141  0.0136
 2024W        W15438   5.243   5.222  12.949 -0.1097 -0.1272  0.3051
 2025W        W15439  14.975  17.897   0.351  0.2966  0.0241  0.1066
 2026W        W15440  11.713  10.823   4.791  0.0355  0.1837 -0.2501
 2027W        W15441  16.326   5.878   2.547 -0.0998 -0.1190 -0.2427
 2028W        W15442   3.695   8.622   0.735 -0.1081 -0.1501 -0.4825
 2029W        W15443  11.997   3.868  11.371  0.2123 -0.0333 -0.3490
 2030W        W15444   8.778  17.430  11.252 -0.2691  0.1578 -0.2408
 2031W        W15445   2.441  10.160  14.531  0.0797  0.0103  0.0574
 2032W        W15446  15.535   6.084   2.134  0.1554 -0.0081  0.1743
 2033W        W15447   9.219   9.744  15.989 -0.0331  0.0925 -0.2507
 2034W        W15448  10.567   0.309  14.783  0.1769 -0.3429  0.1952
 2035W        W15449   3.212   3.733  15.930  0.0363  0.0732  0.0031
 2036W        W15450   9.391   8.796   0.556 -0.0704 -0.1634 -0.5596
 2037W        W15451  18.136   0.608   1.107 -0.1812 -0.2820  0.0687
 2038W        W15452  10.126   9.964  13.294  0.0167  0.0829  0.3240
 2039W        W15453   7.453  10.983  11.641 -0.0298  0.3420  0.0334
 2040W        W15454   6.457   9.109   5.234 -0.0955 -0.0642 -0.1503
 2041W        W15455   9.324  10.760   1.211  0.0952 -0.3145 -0.3261
 2042W        W15456  12.012  16.205   0.527  0.2614  0.3804  0.1672
 2043W        W15457  12.630  14.768   1.880  0.2143  0.1086  0.3869
 2044W        W15458   1.149  15.666   3.866  0.1093 -0.1075 -0.0424
 2045W        W15459   6.917  16.118   2.686  0.3538  0.4699 -0.0328
 2046W        W15460  16.573  10.070  13.578  0.0018 -0.2299 -0.0649
 2047W        W15461   8.342   0.290  15.920 -0.2508  0.0114  0.1941
 2048W        W15462   5.912   2.578  10.770 -0.0836  0.1252  0.1527
 2049W        W15463   7.453   1.098  14.828  0.2022  0.4008  0.0778
 2050W        W15464   4.071  10.505   1.255  0.2527  0.0908  0.0176
 2051W        W15465  14.712   1.994   0.918 -0.1395  0.1921 -0.2421
 2052W        W15466  16.048  18.298   5.704  0.0121  0.1983 -0.0994
 2053W        W15467  17.154  10.869   0.807  0.0816 -0.2021 -0.1319
 2054W        W15468  11.362  11.305  12.203  0.2529  0.2262  0.0402
 2055W        W15469   2.136   7.152   0.879 -0.4273  0.1092 -0.1285
 2056W        W15470  12.691  13.322  12.162  0.1436 -0.1668 -0.0949
 2057W        W15471   6.281   1.747   5.165  0.0707  0.3173  0.1274
 2058W        W15472   4.721   9.551  14.156  0.0979  0.1812 -0.1849
 2059W        W15473  10.354   7.310   4.010  0.2313  0.1782  0.1070
 2060W        W15474   9.901   1.726   2.093  0.0446 -0.1729  0.0066
 2061W        W15475   4.931   3.079   0.781  0.1852 -0.2977  0.1266
 2062W        W15476  10.691   9.924  14.100 -0.0451 -0.1006  0.1021
 2063W        W15477   1.798   0.248   3.988 -0.2935 -0.1632  0.1731
 2064W        W15478  15.955   6.214   9.436 -0.1445  0.0809 -0.0392
 2065W        W15479   1.317   8.129   1.774  0.0723 -0.1496 -0.0977
 2066W        W15480   8.188  15.356  11.099 -0.0090 -0.0704 -0.2143
 2067W        W15481   0.542  13.919  15.617 -0.0052 -0.0099  0.2189
 2068W        W15482   7.958   3.902   3.019  0.1591 -0.1031 -0.0528
 2069W        W15483   2.974   7.303   4.901 -0.3879 -0.1772 -0.0798
 2070W        W15484   5.174   9.257   0.539 -0.0596  0.0288 -0.3676
 2071W        W15485   8.041  17.443   5.252  0.0825 -0.1145  0.0007
 2072W        W15486  17.303  14.781  14.958 -0.1797  0.2210 -0.1015
 2073W        W15487  16.398   0.015   0.282  0.2086  0.2572  0.0555
 2074W        W15488  10.897  15.813  13.825 -0.0344  0.0057  0.1819
 2075W        W15489  11.156   3.698  13.769  0.0088 -0.1687 -0.1320
 2076W        W15490   3.025  13.734   0.143  0.3313  0.2428  0.2967
 2077W        W15491   9.275  15.570   2.564 -0.5984  0.0125 -0.3417
 2078W        W15492   9.931   5.134  13.755  0.0844  0.1747  0.2538
 2079W        W15493  10.454  17.224   4.016 -0.0833  0.1054 -0.0720
 2080W        W15494  10.459  14.161   4.872  0.1465 -0.1119  0.1048
 2081W        W15495   2.516   2.688   5.888  0.0928 -0.0819 -0.3834
 2082W        W15496  16.818   7.674  10.696  0.2516  0.0604 -0.4052
 2083W        W15497   0.320  11.606   0.651 -0.1230 -0.2804  0.3048
 2084W        W15498  17.808   5.111   5.350 -0.1191 -0.0017  0.0165
 2085W        W15499   6.196   5.935  16.184 -0.3061 -0.1054 -0.0613
 2086W        W15500   1.773   8.884  15.216  0.2070 -0.1726 -0.1786
 2087W        W15501  10.502   0.767   2.183 -0.0635  0.2424  0.2755
 2088W        W15502  15.442   6.883  15.569 -0.5671  0.4803 -0.1447
 2089W        W15503   6.966  12.816  12.483 -0.0107  0.0359  0.3369
 2090W        W15504   9.116  10.695   5.770  0.0789  0.1512 -0.1882
 2091W        W15505   0.180  12.957   1.987  0.0234 -0.1862 -0.1235
 2092W        W15506   6.041   5.687   4.534  0.0396  0.0784 -0.0645
 2093W        W15507  10.960  12.650   1.340  0.0518  0.2937 -0.0834
 2094W        W15508   6.073   9.348   0.853  0.3608 -0.0442  0.1291
 2095W        W15509  13.104  16.481   3.950 -0.2418 -0.0642  0.2959
 2096W        W15510  13.650  13.297  11.662 -0.1909 -0.0582  0.0581
 2097W        W15511   5.482  15.431  16.437 -0.1408  0.0674 -0.3917
 2098W        W15512  13.033   9.555   2.702 -0.0786  0.0753 -0.0393
 2099W        W15513   9.892  15.897   0.625  0.0685  0.1429  0.0118
 2100W        W15514   2.174   3.957  13.727  0.1482  0.4293  0.0245
 2101W        W15515   4.970  11.232  13.520  0.0329 -0.0926 -0.0033
 2102W        W15516   1.157   2.690   1.858 -0.1168  0.0814  0.0395
 2103W        W15517  15.802   4.287  12.697  0.1570  0.3868  0.0678
 2104W        W15518   5.439   2.188   2.653  0.3586  0.1370 -0.0913
 2105W        W15519  14.525  17.036   5.258  0.1581 -0.0044  0.2610
 2106W        W15520   1.630   2.917   0.722  0.0879 -0.3184  0.4041
 2107W        W15521   6.553   2.417  12.485  0.2178 -0.3575  0.0714
 2108W        W15522   7.961   5.549  12.814  0.2055 -0.1533 -0.4385
 2109W        W15523  12.215   8.944  13.665 -0.0871 -0.3366  0.1508
 2110W        W15524  14.460   3.634  12.778 -0.1293  0.1451 -0.0627
 2111W        W15525   5.252  17.536   4.699 -0.0459  0.0229  0.0886
 2112W        W15526   0.555   7.273   3.110 -0.2397  0.5805 -0.5655
 2113W        W15527  14.747   0.156  11.319  0.0843  0.1374  0.3990
 2114W        W15528  15.790   8.089   0.718 -0.1049  0.0455 -0.3883
 2115W        W15529   6.564   2.525  14.100  0.0992  0.2830  0.2757
 2116W        W15530  17.134  13.933  11.637 -0.0430 -0.3401 -0.0011
 2117W        W15531  13.509   9.250   3.083  0.0334  0.2048  0.1448
 2118W        W15532   5.009  14.584   5.856  0.0328 -0.1810 -0.2531
 2119W        W15533   7.357  15.274   1.757  0.2400  0.1216 -0.2845
 2120W        W15534  11.610   6.174  12.246 -0.1209 -0.1102 -0.2420
 2121W        W15535   6.628   3.806   5.305 -0.0525  0.0321 -0.0016
 2122W        W15536  12.286   9.831  12.282  0.1606 -0.0364 -0.5058
 2123W        W15537   0.828  11.325  14.756 -0.2958  0.2760 -0.0885
 2124W        W15538   0.434   2.746  10.686  0.0172  0.0679 -0.3524
 2125W        W15539   5.510   2.500  14.997 -0.3283 -0.2117  0.0053
 2126W        W15540  15.896  16.484  16.492 -0.1259 -0.1494  0.0114
 2127W        W15541  17.668   7.986  12.503 -0.1614 -0.0330 -0.2799
 2128W        W15542   1.679  18.119  12.352  0.0729 -0.2336 -0.2813
 2129W        W15543  15.021   3.317   0.822  0.1877 -0.3047  0.0625
 2130W        W15544   5.063   6.344  11.975 -0.1341  0.2145 -0.0280
 2131W        W15545   9.542  10.916   1.626 -0.0506  0.2892  0.0451
 2132W        W15546  15.393   2.968  10.876 -0.0419 -0.1641 -0.3771
 2133W        W15547  13.220  11.805   0.493  0.0895 -0.0534  0.1362
 2134W        W15548   9.406   0.433   1.506  0.0976 -0.3132  0.0601
 2135W        W15549  11.383   3.447  11.464  0.0006 -0.3571 -0.0929
 2136W        W15550   9.924   4.346   5.149  0.1083 -0.1345  0.5211
 2137W        W15551  18.271   2.431  15.616  0.1231  0.0733 -0.1275
 2138W        W15552   9.437   9.810   2.813 -0.3778  0.1423 -0.0925
 2139W        W15553  13.818  14.969   0.680  0.1387  0.0618  0.3788
 2140W        W15554  18.231  18.252   4.693  0.1478  0.0376  0.1752
 2141W        W15555   5.845  17.983   0.994 -0.0583  0.1674 -0.1184
 2142W        W15556   6.731   8.635   1.163 -0.0601 -0.1546  0.3079
 2143W        W15557  12.777   7.576  15.043  0.0865  0.0198  0.1362
 2144W        W15558   5.329  15.060  15.234  0.1561 -0.1619  0.2613
 2145W        W15559  13.554  15.062   2.793 -0.3137  0.2364 -0.0439
 2146W        W15560   7.540   1.786  10.582  0.0786 -0.2088  0.0699
 2147W        W15561  17.962  15.280  12.620 -0.3322 -0.3370  0.1899
 2148W        W15562  13.189   3.632  16.313  0.2014 -0.3520 -0.0371
 2149W        W15563  13.783  14.223  12.190  0.2066 -0.2892  0.0805
 2150W        W15564  17.291  10.896   4.536 -0.2121 -0.0850 -0.1819
 2151W        W15565   5.806   1.178   0.214  0.0829  0.0038 -0.0653
 2152W        W15566   4.059  17.493  13.936 -0.4339  0.0654 -0.0750
 2153W        W15567   9.372   2.456   4.186 -0.0196  0.1166  0.0633
 2154W        W15568   8.563   1.987   4.253  0.0798  0.2318  0.2419
 2155W        W15569   1.220   3.067   0.035  0.2402  0.0122  0.0668
 2156W        W15570  15.509   7.724  16.201 -0.2621 -0.1543 -0.0007
 2157W        W15571   0.805   6.744  13.223  0.1445 -0.2817  0.1403
 2158W        W15572  13.981  10.397  15.345  0.2041  0.0702 -0.0278
 2159W        W15573   9.588  14.165   2.498 -0.0800 -0.1670  0.0622
 2160W        W15574  18.246   4.113  14.401 -0.2623  0.1350 -0.1521
 2161W        W15575  13.543  14.679  15.805  0.0897 -0.0212 -0.0202
 2162W        W15576  18.303   5.787  12.971 -0.3879  0.0265 -0.1307
 2163W        W15577   5.374  15.449  11.312  0.0666 -0.1245 -0.5351
 2164W        W15578   3.679  11.960   3.000 -0.2792 -0.1152  0.5012
 2165W        W15579   1.915  12.570  11.284  0.1654  0.0905 -0.0091
 2166W        W15580  12.931   1.390  16.433  0.1421 -0.1748  0.1491
 2167W        W15581   1.741  10.865   5.093  0.2315 -0.0288 -0.1539
 2168W        W15582  14.259  17.143   3.902  0.4214  0.2167 -0.2663
 2169W        W15583  10.824   6.945   0.642  0.3358  0.3207  0.0367
 2170W        W15584  17.686   6.213   1.500 -0.0076  0.1475  0.2745
 2171W        W15585  13.571  14.619   6.161  0.2451  0.0450 -0.1647
 2172W        W15586  10.166  12.967   0.408  0.0951 -0.2507  0.2456
 2173W        W15587   6.702   7.893  14.585 -0.0618  0.2373 -0.2336
 2174W        W15588  16.896   9.752   1.160 -0.1774 -0.2021  0.1313
 2175W        W15589  12.849   5.840  10.716 -0.1649 -0.0965 -0.0028
 2176W        W15590   8.297  15.620   3.376  0.0162 -0.0812 -0.1897
 2177W        W15591  12.911  14.599   4.211 -0.0354  0.1014  0.1799
 2178W        W15592  16.898  10.782  15.143  0.2152 -0.2848 -0.0055
 2179W        W15593   0.587  12.955  10.877 -0.2306  0.4075  0.2525
 2180W        W15594   4.566   3.826  14.080 -0.1159 -0.0937  0.1366
 2181W        W15595  10.724  15.231  11.614 -0.0263  0.4530 -0.0901
 2182W        W15596  11.857   3.480  15.029 -0.0645  0.0028 -0.4621
 2183W        W15597   7.805  16.600   5.676  0.2133 -0.0645 -0.1013
 2184W        W15598  13.916  16.621   2.724  0.0605  0.2797  0.1038
 2185W        W15599   7.596  17.752   4.407  0.2023  0.0149  0.3706
 2186W        W15600  11.988   7.364  13.814  0.0306 -0.0852 -0.0660
 2187W        W15601  12.954  17.331  10.555  0.0007  0.1870  0.2449
 2188W        W15602  14.726   8.631  11.082  0.1233  0.0870 -0.1833
 2189W        W15603  17.420   4.693  12.319  0.1970 -0.0104  0.0249
 2190W        W15604   5.125   9.745  13.879  0.3171  0.0877  0.0818
 2191W        W15605   0.849   0.108  14.565  0.0029  0.3129 -0.1599
 2192W        W15606   9.994  15.876   1.996 -0.2229  0.0976  0.0071
 2193W        W15607   1.712   5.609   0.422 -0.2937  0.3659 -0.1813
 2194W        W15608  17.526   6.383   2.440 -0.2210 -0.4052 -0.4628
 2195W        W15609  11.805   6.025   3.495  0.0955  0.2794 -0.1896
 2196W        W15610  11.194  16.668  13.989 -0.2255  0.1873 -0.0614
 2197W        W15611   4.215  15.111  16.404 -0.1769  0.0261  0.0312
 2198W        W15612   2.645   4.190  15.897 -0.1714  0.1031 -0.0380
 2199W        W15613   1.653  14.450  16.309  0.0456  0.1721  0.1343
 2200W        W15614  15.629   5.801  15.754  0.3963  0.0775  0.2147
 2201W        W15615   8.686  16.675  11.165 -0.1180 -0.1239  0.0361
 2202W        W15616  12.658  15.052  13.435 -0.1164 -0.1071  0.1468
 2203W        W15617   3.152   9.365  15.306 -0.2470  0.0229 -0.0544
 2204W        W15618  11.208   2.464  10.347  0.0302  0.2455 -0.0331
 2205W        W15619   9.161   9.973  11.256 -0.2099  0.2291  0.0688
 2206W        W15620   1.262   9.403   5.685  0.2839 -0.1631  0.0533
 2207W        W15621  14.921   5.730   2.062 -0.0622  0.1309 -0.1682
 2208W        W15622   0.889  10.633  10.292 -0.2837 -0.1072  0.0166
 2209W        W15623  15.714  15.654   3.883  0.2159 -0.2446 -0.1618
 2210W        W15624   6.709   6.751   1.023  0.1128  0.0471 -0.1636
 2211W        W15625   7.588  13.162  15.774  0.1720 -0.0543  0.2375
 2212W        W15626   1.468   2.695  16.300  0.2343 -0.1390  0.1007
 2213W        W15627   8.687   5.291  13.330 -0.2830 -0.0748 -0.0244
 2214W        W15628   7.908   1.228  15.039  0.0571 -0.0251 -0.3108
 2215W        W15629   4.525   1.309  13.636  0.0525  0.3249 -0.2574
 2216W        W15630  16.381   6.188   1.247 -0.0766 -0.0385 -0.2032
 2217W        W15631  10.812   5.718  14.711 -0.1908 -0.0152 -0.2545
 2218W        W15632  13.821  17.008  13.785 -0.0640 -0.1288  0.6031
 2219W        W15633  13.790   5.785  11.158 -0.1391  0.4304 -0.0796
 2220W        W15634   5.518   5.412   5.454 -0.2257 -0.3047 -0.2514
 2221W        W15635   4.795   9.962   2.733  0.0459  0.0166  0.2077
 2222W        W15636   0.228  12.020  15.011  0.1041 -0.4249  0.0974
 2223W        W15637   8.191   3.263   0.058  0.0447 -0.1185  0.0895
 2224W        W15638   9.289  14.875  16.362 -0.1296  0.3275  0.2245
 2225W        W15639  10.889  14.979   6.038  0.3292 -0.1750  0.0851
 2226W        W15640   0.284  16.461   6.228  0.1296 -0.0917  0.0422
 2227W        W15641   2.948   1.048  11.813 -0.3020  0.1920  0.0208
 2228W        W15642   7.836   7.043  16.167 -0.0622 -0.2240  0.1407
 2229W        W15643   2.310  17.558   1.933  0.1007 -0.0630 -0.1403
 2230W        W15644   3.030  11.350  14.981  0.1498  0.2994 -0.3351
 2231W        W15645  11.377   8.167  10.880 -0.4187 -0.1878 -0.1016
 2232W        W15646   5.196  11.096  10.913 -0.0590  0.0945 -0.0634
 2233W        W15647  18.039  16.493   2.214 -0.2411  0.0025  0.0159
 2234W        W15648  17.667  10.320   4.046 -0.0601 -0.0896 -0.0680
 2235W        W15649   1.784  12.368   3.384  0.2061 -0.0680  0.0217
 2236W        W15650   5.066   5.967   0.567  0.4152  0.0789  0.1111
 2237W        W15651   3.214   3.969   0.373  0.2936 -0.0706 -0.1817
 2238W        W15652   1.185   6.098  14.367 -0.0719 -0.0739  0.0671
 2239W        W15653  15.970  15.798   0.636 -0.1378  0.0150  0.0171
 2240W        W15654   8.150  17.778  10.600  0.1287  0.2045 -0.0875
 2241W        W15655   6.933   0.480  10.072  0.1136  0.1229 -0.2748
 2242W        W15656  14.059  15.240   1.628 -0.2191 -0.2386  0.0654
 2243W        W15657   6.989  14.130   3.922  0.2906  0.0851  0.1164
 2244W        W15658  10.070  14.189  16.435  0.0016  0.1320 -0.2800
 2245W        W15659   6.537   8.162  10.700 -0.1766 -0.1778  0.2593
 2246W        W15660   2.190  18.109   4.600 -0.1023  0.0108  0.1806
 2247W        W15661   5.337  17.916   2.606 -0.1172  0.2680  0.4056
 2248W        W15662   0.404   0.426  16.190 -0.3162 -0.4058 -0.2374
 2249W        W15663   8.176  11.449  14.733  0.0910 -0.2437 -0.2183
 2250W        W15664  17.892   5.722   0.141 -0.0403  0.3419 -0.0362
 2251W        W15665   0.027  15.115  11.794 -0.1595  0.0581 -0.2321
 2252W        W15666   8.122  13.522  16.340 -0.0656 -0.0299 -0.2734
 2253W        W15667   5.393  13.822   1.920  0.0719  0.3444 -0.0811
 2254W        W15668  15.275   8.405   5.153 -0.0635 -0.1986 -0.1877
 2255W        W15669   2.561  17.557  11.674  0.5044  0.0535  0.2488
 2256W        W15670  11.586   8.244   3.698  0.0622 -0.1154  0.2119
 2257W        W15671  16.985   9.953   1.706 -0.0395 -0.2129  0.0215
 2258W        W15672  16.738  10.436  14.340 -0.1803 -0.1246  0.2298
 2259W        W15673  17.131  11.121  11.094 -0.0046 -0.0225 -0.1239
 2260W        W15674  13.794   6.864  13.676  0.4035  0.0567  0.0008
 2261W        W15675   4.141  14.109   0.613  0.4436 -0.1462 -0.1116
 2262W        W15676   0.538  10.651   1.487  0.1551 -0.2272 -0.0831
 2263W        W15677  13.645   0.210   2.673 -0.2355 -0.0671  0.3312
 2264W        W15678   1.633  13.761  15.987 -0.0493 -0.1560  0.2797
 2265W        W15679   3.867  13.102  14.851  0.1314 -0.0384 -0.0153
 2266W        W15680  17.525  10.450  12.621 -0.0481  0.1189  0.3156
 2267W        W15681   4.386   0.167   2.999 -0.2254 -0.0042  0.1309
 2268W        W15682   3.572   4.398  10.906 -0.0386  0.0850  0.3320
 2269W        W15683   0.751   8.422   4.190 -0.0467  0.1693 -0.0028
 2270W        W15684   5.881  11.891  16.077 -0.4133 -0.0332 -0.0934
 2271W        W15685   6.049   6.872  12.170 -0.0750 -0.2009  0.3352
 2272W        W15686   0.789   0.993  13.155 -0.0296  0.3332  0.2509
 2273W        W15687   5.433   0.864   0.503 -0.0748 -0.1583  0.0251
 2274W        W15688  17.040   8.906  16.201  0.0968  0.0600  0.0698
 2275W        W15689  12.769  12.951   2.698  0.0510 -0.0239  0.0101
 2276W        W15690   5.444  11.710   0.882 -0.1661  0.0470  0.3182
 2277W        W15691  11.667   0.894   5.350 -0.2341 -0.1850 -0.1314
 2278W        W15692  11.063   2.912  10.669 -0.0563 -0.2793  0.0135
 2279W        W15693   3.858   4.440  12.187 -0.0686  0.1060  0.2854
 2280W        W15694  13.477   3.084   3.198 -0.2104  0.1850  0.2595
 2281W        W15695  17.837  15.413  14.244 -0.3455  0.0892 -0.2929
 2282W        W15696   4.369   7.651   3.312 -0.2116  0.1600  0.0421
 2283W        W15697   3.709   5.516  15.826  0.1614 -0.0807  0.2537
 2284W        W15698  16.422   7.891  16.159 -0.0576 -0.0950 -0.0014
 2285W        W15699  16.229   6.884  13.094 -0.1913 -0.0411 -0.1537
 2286W        W15700   0.199  16.105  11.585  0.3710 -0.3316  0.0231
 2287W        W15701  14.164   4.055  12.677  0.0791  0.0618 -0.1556
 2288W        W15702  17.012  16.652  15.861  0.0220 -0.2943 -0.1173
 2289W        W15703  10.656   6.507   5.542  0.3030 -0.1391  0.0426
 2290W        W15704  10.429  15.409  13.885  0.0342  0.1316 -0.0157
 2291W        W15705  17.235  13.504  11.321  0.2661  0.1067  0.1944
 2292W        W15706   7.655  16.292   3.908 -0.2212  0.1671 -0.1309
 2293W        W15707   4.866   1.001   5.121  0.5986  0.0157 -0.2001
 2294W        W15708   6.255  14.700   0.204 -0.1224 -0.2323 -0.3529
 2295W        W15709   3.169  14.419   5.868 -0.0919  0.0094  0.1640
 2296W        W15710  16.938  17.142  13.646  0.0089 -0.2062  0.2812
 2297W        W15711  18.061   5.693  16.129 -0.3473  0.3186 -0.0018
 2298W        W15712   4.696  15.809   3.023  0.1213 -0.3120  0.2608
 2299W        W15713   2.596   6.047   5.160  0.0489  0.1725  0.4346
 2300W        W15714  15.218   5.011   0.590 -0.0192 -0.2067  0.0377
 2301W        W15715   9.458   0.422  13.880  0.1159 -0.2114  0.2158
 2302W        W15716  13.566   4.176  10.273  0.0486  0.1814  0.2654
 2303W        W15717   1.637  11.506   1.773 -0.0511 -0.0722  0.3046
 2304W        W15718   2.705   9.195  10.940 -0.1772 -0.1470  0.0666
 2305W        W15719   5.229   8.256   4.753 -0.0027 -0.1758 -0.2634
 2306W        W15720   8.817  11.946   1.068  0.0702 -0.1061 -0.1335
 2307W        W15721   6.942   1.756   3.570  0.1041  0.0479  0.2240
 2308W        W15722  13.633   0.778  15.100 -0.1726 -0.3055  0.2473
 2309W        W15723   7.893  13.944  14.618 -0.2348 -0.2182  0.1073
 2310W        W15724  16.076   6.233  13.683 -0.1254 -0.0353  0.2759
 2311W        W15725   8.108   6.033  12.921 -0.1897  0.0463  0.0545
 2312W        W15726   3.659  17.768   5.564 -0.0602 -0.0631 -0.0445
 2313W        W15727  18.000  13.844   1.034 -0.0581  0.3184 -0.1320
 2314W        W15728  18.060   4.924   3.815  0.1042  0.0738 -0.0288
 2315W        W15729  13.363   5.920   1.819 -0.2070  0.0881 -0.1060
 2316W        W15730  14.012  13.623   2.600 -0.1409 -0.2862 -0.2573
 2317W        W15731   7.325  10.977   6.152 -0.3474 -0.0822  0.1082
 2318W        W15732   5.308   8.261  12.636  0.1714 -0.0598  0.0007
 2319W        W15733  13.300   6.246   2.578  0.0409  0.2094 -0.1792
 2320W        W15734   6.272   8.553  14.080 -0.2133  0.2257  0.1810
 2321W        W15735  16.085  13.489   3.201 -0.1908  0.3424  0.2266
 2322W        W15736  16.992   9.259  14.762  0.0251  0.3602 -0.1049
 2323W        W15737  16.898   9.926  16.351 -0.1710  0.2430  0.2553
 2324W        W15738  12.555  15.505   5.420  0.1698 -0.1035  0.0577
 2325W        W15739  14.339   0.218  12.828  0.0017 -0.1894  0.0656
 2326W        W15740   5.554   3.068  10.589 -0.2968  0.2002 -0.0379
 2327W        W15741   5.317  17.687   5.252 -0.1630 -0.1018 -0.0183
 2328W        W15742   3.227  15.922  11.500  0.0643 -0.0033 -0.4128
 2329W        W15743   5.091   2.668   3.745 -0.2557  0.0829  0.0845
 2330W        W15744   2.481   5.276  15.008  0.0670 -0.3107 -0.1358
 2331W        W15745  12.556   8.861   4.651 -0.0928 -0.0751  0.3418
 2332W        W15746  10.114   3.083  11.813 -0.0622  0.3015 -0.0898
 2333W        W15747   7.939   4.989  15.620 -0.3458 -0.1001 -0.0989
 2334W        W15748  15.043  12.010   4.570  0.0917 -0.1104 -0.0948
 2335W        W15749   0.883  11.282   1.426 -0.1201  0.4039  0.1568
 2336W        W15750   6.426   5.555   4.860  0.0106 -0.0551  0.2552
 2337W        W15751   2.234  16.472   1.464 -0.0264 -0.0442 -0.2736
 2338W        W15752  14.799  10.659   2.186  0.0640  0.2004 -0.1392
 2339W        W15753   7.366   6.424   3.742  0.1058  0.2215 -0.5237
 2340W        W15754   2.998  18.071   0.302  0.0211 -0.2686 -0.3663
 2341W        W15755   5.310  12.874   1.713  0.1973 -0.0354 -0.1504
 2342W        W15756   8.919   0.478   4.963  0.2349 -0.0886 -0.1552
 2343W        W15757  14.897   5.206   3.027  0.3314 -0.0452  0.1879
 2344W        W15758   7.115   8.445  10.039  0.2089  0.0806  0.2226
 2345W        W15759   5.147   1.589  13.748 -0.0605  0.3371  0.4273
 2346W        W15760   6.887   9.783   2.210 -0.1567  0.1852  0.3440
 2347W        W15761  17.093  13.872   0.636  0.1732  0.1758  0.1428
 2348W        W15762   0.047  11.810  11.577 -0.4022 -0.1907 -0.2075
 2349W        W15763  10.709  15.043   3.495  0.3955  0.1836  0.0386
 2350W        W15764  15.444   2.156   4.651 -0.0008 -0.0041  0.2370
 2351W        W15765   7.141   2.312   2.231  0.1038 -0.2084  0.3086
 2352W        W15766  16.887  11.662  13.753 -0.0134 -0.4609 -0.0339
 2353W        W15767  17.773   9.714  10.509 -0.2230 -0.0470 -0.0585
 2354W        W15768   9.310  10.634   2.042 -0.0761  0.0361 -0.3063
 2355W        W15769   5.962   7.722  15.467 -0.1504  0.0201 -0.4029
 2356W        W15770  11.309  16.581  15.902 -0.0162  0.2524 -0.0241
 2357W        W15771   8.390  17.472  12.913 -0.1746 -0.1446  0.2919
 2358W        W15772  15.338  16.943  12.519 -0.0618 -0.0610  0.0868
 2359W        W15773   1.123  17.695   6.081 -0.0511 -0.1085  0.1996
 2360W        W15774  14.863   6.204  12.522 -0.0330 -0.1114  0.0628
 2361W        W15775  11.622  10.087  15.421 -0.1285  0.0065  0.1138
 2362W        W15776   8.982  11.351   0.008 -0.1077 -0.0390 -0.1338
 2363W        W15777   8.071  12.970   5.398  0.1708  0.0697  0.1852
 2364W        W15778  14.672   6.997   1.722  0.2375  0.0247 -0.1969
 2365W        W15779  12.533   7.947  13.667 -0.2891  0.0414 -0.2342
 2366W        W15780  10.787  17.934  11.754 -0.0160  0.2575 -0.1785
 2367W        W15781   1.868  16.506  12.735  0.0890  0.0611 -0.0403
 2368W        W15782   6.169  10.067   1.804  0.1945  0.2547  0.1616
 2369W        W15783  17.369   8.285  14.701  0.0232 -0.1477  0.1005
 2370W        W15784   8.102   5.360  14.667  0.1587 -0.2429 -0.0775
 2371W        W15785  15.180  14.766   1.380  0.0190  0.1971  0.0391
 2372W        W15786   0.367  11.399  14.889  0.0403  0.1130 -0.0157
 2373W        W15787  18.124   6.389  11.466 -0.2874 -0.1829  0.0340
 2374W        W15788  17.719  12.176  13.100  0.2174  0.2456 -0.0920
 2375W        W15789  14.982   1.428   4.572  0.2027  0.0861 -0.1672
 2376W        W15790  12.822  17.927   1.996  0.0449  0.2035 -0.0880
 2377W        W15791  13.716  15.943   3.465 -0.2705  0.0123  0.2244
 2378W        W15792   2.442  10.925   6.670 -0.1128  0.2271 -0.2974
 2379W        W15793  14.696   0.070  14.519  0.0227 -0.1424  0.0863
 2380W        W15794  14.680   4.203   3.007  0.2542  0.2298 -0.1214
 2381W        W15795   5.305   6.166  13.031  0.0304  0.0407 -0.3180
 2382W        W15796   5.554  17.979   6.257 -0.1561  0.1150  0.1632
 2383W        W15797   7.663   0.036   4.473 -0.0648  0.0237  0.2326
 2384W        W15798   6.015   3.476   9.748 -0.1282 -0.1639 -0.0484
 2385W        W15799  16.287  14.222   0.395 -0.1102  0.0609 -0.0289
 2386W        W15800  12.530  17.950   1.037  0.1578 -0.1929 -0.2599
 2387W        W15801  14.727  12.762  12.911 -0.0825  0.1401 -0.0122
 2388W        W15802   2.358  11.729  14.534 -0.2963 -0.1267  0.0038
 2389W        W15803   5.867   5.630  15.160 -0.2380  0.0540  0.2640
 2390W        W15804  13.239  13.327  15.552 -0.0679 -0.1894  0.0842
 2391W        W15805  14.259   3.068   5.064 -0.1096 -0.1852 -0.1486
 2392W        W15806  13.215   3.807  15.374 -0.2670  0.3339  0.0056
 2393W        W15807   6.184   2.237   2.091 -0.2509 -0.1204 -0.0280
 2394W        W15808   2.357   8.663   3.454  0.2378 -0.0556  0.1453
 2395W        W15809   1.414  10.356  14.167 -0.1274  0.0566  0.0928
 2396W        W15810   0.418   1.209   4.827  0.2317  0.2703 -0.2338
 2397W        W15811  11.753  10.992   0.200 -0.2157  0.0450  0.2241
 2398W        W15812  11.068   0.978   1.603 -0.2832  0.0621  0.2611
 2399W        W15813  16.600   3.866   5.351  0.0181  0.3450 -0.1723
 2400W        W15814  12.159  14.372  12.945 -0.2469 -0.2374 -0.0475
 2401W        W15815  14.400   8.764  13.086 -0.3867  0.1153 -0.0905
 2402W        W15816  12.427   3.462  10.777 -0.0424 -0.0990  0.1510
 2403W        W15817   3.332  12.589   1.447  0.2706  0.0965  0.0663
 2404W        W15818   6.746   7.225  11.726 -0.2230 -0.1685 -0.0733
 2405W        W15819   2.755   2.755   4.735 -0.0425  0.2949 -0.0070
 2406W        W15820   1.079  12.776  10.816  0.1301  0.0645  0.0435
 2407W        W15821   0.195   5.977  15.929  0.2736 -0.1324 -0.2725
 2408W        W15822   7.640  11.604   3.250 -0.1659 -0.2796 -0.0900
 2409W        W15823   7.482  10.580  13.352  0.2762 -0.3757  0.1858
 2410W        W15824   9.370   1.827  12.976  0.0648  0.0427  0.2527
 2411W        W15825   6.264   0.232  12.654 -0.0698  0.1546 -0.1001
 2412W        W15826   3.931  16.908  11.551  0.2571  0.1696  0.0156
 2413W        W15827   9.011   9.943  15.128  0.1943  0.1234 -0.1887
 2414W        W15828   0.871   3.491  12.493  0.0955 -0.2317  0.2823
 2415W        W15829  15.732  18.190   2.661  0.0924  0.0853 -0.0773
 2416W        W15830  11.769  16.568   3.570 -0.1414 -0.2015 -0.1148
 2417W        W15831   0.449  16.662  10.725  0.3103  0.1753 -0.1991
 2418W        W15832  14.073   8.091  15.801 -0.0868 -0.1084  0.0212
 2419W        W15833  11.086  17.975   2.083  0.0130 -0.0526 -0.2307
 2420W        W15834   2.568   7.043  14.643  0.0124  0.0184 -0.2951
 2421W        W15835  14.435   3.840   3.862  0.1139  0.3680  0.3018
 2422W        W15836   8.457   9.581   1.487  0.1663  0.1576  0.2801
 2423W        W15837   3.698  14.945  12.241 -0.0471 -0.1187  0.1719
 2424W        W15838   2.770   1.063  13.795  0.0804 -0.2548  0.2312
 2425W        W15839   6.692   7.363   5.293 -0.0056 -0.2879 -0.3077
 2426W        W15840  11.150   6.425   5.730 -0.1805 -0.1705  0.0141
 2427W        W15841   4.677   4.308  13.946  0.1050 -0.0171 -0.1511
 2428W        W15842   5.832   8.213  12.401  0.1058  0.0237 -0.2641
 2429W        W15843  18.308   0.270  13.703  0.0560  0.1611  0.0453
 2430W        W15844  15.017  14.795   2.733 -0.0414 -0.2610 -0.1748
 2431W        W15845   0.214   8.351  12.811  0.0235  0.0287 -0.0776
 2432W        W15846  10.350   0.902  16.077  0.1345 -0.2138 -0.3668
 2433W        W15847  14.639  15.413  11.706 -0.1806  0.0808  0.0205
 2434W        W15848   3.871  11.825   6.029  0.2788  0.0699  0.3379
 2435W        W15849  14.891  17.264  15.740  0.1240 -0.0065 -0.1336
 2436W        W15850  15.771  13.273  13.774 -0.1247  0.4513 -0.0357
 2437W        W15851  15.987  17.010  16.380 -0.2188  0.0857  0.3685
 2438W        W15852   9.552  17.230  16.101 -0.1487  0.1024 -0.2872
 2439W        W15853  13.669   7.939   3.129 -0.1489  0.1737 -0.2615
 2440W        W15854   6.159   9.968  13.799  0.0938 -0.3832 -0.0184
 2441W        W15855  16.610   4.916   3.648  0.1925  0.4240  0.1745
 2442W        W15856   8.550  17.189   3.610 -0.0167  0.0390 -0.0236
 2443W        W15857  10.889   4.540   0.960 -0.2186 -0.1271  0.2943
 2444W        W15858   1.592  16.985   5.388 -0.2815  0.0054  0.1219
 2445W        W15859   8.462   2.181   2.862  0.1362  0.0067 -0.0348
 2446W        W15860   2.267   4.134   2.225  0.0445 -0.1596  0.0256
 2447W        W15861  13.181   5.522   2.087 -0.0347  0.1187 -0.0423
 2448W        W15862   0.130   2.688   0.633 -0.0471  0.0357  0.1401
 2449W        W15863  16.132  16.342   4.568  0.1477  0.0116  0.1060
 2450W        W15864   3.155  10.671   0.038  0.1951 -0.1724  0.3318
 2451W        W15865  14.265   1.802   5.535  0.0712  0.0408 -0.1730
 2452W        W15866   8.007   7.818  12.379  0.0823 -0.0933 -0.0846
 2453W        W15867   2.626  17.959  12.076 -0.3725  0.0782 -0.1572
 2454W        W15868  12.655  10.136   0.357 -0.4810 -0.1036  0.1188
 2455W        W15869  15.716  17.903  12.012 -0.0427 -0.0899  0.3323
 2456W        W15870   0.812   0.977  14.442 -0.0982  0.2500 -0.0770
 2457W        W15871  12.824  17.659   6.310  0.1063  0.0661  0.1220
 2458W        W15872  12.020  14.946   4.327 -0.0852 -0.0593 -0.2458
 2459W        W15873   0.178   5.242  14.121  0.3360 -0.3039 -0.2099
 2460W        W15874   5.887   7.318   1.307  0.4386  0.2870 -0.1605
 2461W        W15875   5.201  16.666  14.654  0.1171 -0.0836 -0.2120
 2462W        W15876  16.236   0.636   2.375 -0.2532  0.3540 -0.1335
 2463W        W15877   6.458   2.614  10.659  0.0729  0.0873 -0.2804
 2464W        W15878   8.944  10.277  10.691  0.1976  0.2120  0.0859
 2465W        W15879   5.504   5.297  15.391  0.0627 -0.3078 -0.0573
 2466W        W15880  14.333   9.692  13.301 -0.0681  0.0169  0.1360
 2467W        W15881   2.373   6.764   0.075 -0.1246  0.0684 -0.1244
 2468W        W15882   3.835  12.765   5.277 -0.2020 -0.2598  0.1098
 2469W        W15883  11.857  13.786   4.111  0.1234 -0.1597 -0.2173
 2470W        W15884   3.398  16.190  15.658 -0.0702 -0.1290  0.1036
 2471W        W15885   2.645   3.423  14.715  0.1056  0.0261 -0.4462
 2472W        W15886  10.955   6.265  12.633  0.0577 -0.1816  0.0699
 2473W        W15887   3.175   8.276  15.432  0.1794  0.1999  0.0326
 2474W        W15888  15.520  15.070  13.783  0.3261 -0.2332  0.0321
 2475W        W15889  16.319  17.980  11.128 -0.0753 -0.0814  0.4360
 2476W        W15890   8.731  11.429  15.230 -0.1089  0.1216 -0.1045
 2477W        W15891  14.975   9.010  11.175 -0.0740 -0.0669  0.2605
 2478W        W15892  18.185   3.623   3.657 -0.2306 -0.1073  0.1678
 2479W        W15893  10.003   8.521  14.699 -0.4436 -0.0469 -0.0903
 2480W        W15894   0.216   2.394  15.993  0.1273  0.0327 -0.2386
 2481W        W15895   3.349   6.873  15.761  0.0718  0.0247 -0.0882
 2482W        W15896   6.893   5.161  12.186 -0.0519  0.3230 -0.3891
 2483W        W15897   3.575  15.206  13.581 -0.0642  0.1926  0.1837
 2484W        W15898  10.513  12.677  16.158  0.0185  0.3269 -0.1286
 2485W        W15899   3.917   9.653  16.083  0.1300 -0.0117  0.2366
 2486W        W15900  15.851   9.781   4.495  0.0794  0.0780 -0.1728
 2487W        W15901   0.088  13.981   3.080  0.2147  0.0338 -0.3590
 2488W        W15902  11.481  17.286  15.239 -0.1108  0.1688 -0.2302
 2489W        W15903  16.103   6.504  10.758  0.1923 -0.1038  0.0200
 2490W        W15904   8.531   2.388   4.604  0.1118 -0.1147 -0.0905
 2491W        W15905  13.897   6.034  15.312 -0.2109  0.3923  0.0798
 2492W        W15906   0.917   5.454   0.397  0.1219 -0.2873 -0.2501
 2493W        W15907  13.171  11.201   3.929 -0.0231 -0.3386  0.0840
 2494W        W15908   9.895  14.298   2.104 -0.3295  0.2231  0.0394
 2495W        W15909  11.860   1.625   2.459  0.2580  0.2331  0.2550
 2496W        W15910   9.233   1.847   4.886 -0.0268  0.1818  0.3319
 2497W        W15911   6.802  16.713   3.089 -0.1650 -0.1230 -0.1535
 2498W        W15912  14.609   5.607   4.043  0.0598 -0.1751  0.1828
 2499W        W15913   1.012   6.715   5.767  0.4133 -0.0245 -0.0716
 2500W        W15914   1.357  14.530   5.182  0.1217 -0.3496 -0.2346
 2501W        W15915   8.780  17.284  16.162  0.0072 -0.3580 -0.1482
 2502W        W15916   1.096  17.482   2.685 -0.4100  0.0271 -0.0689
 2503W        W15917  14.455   3.833   1.649  0.0566  0.0220  0.0779
 2504W        W15918  15.760   3.722  12.068  0.0191  0.1764  0.2554
 2505W        W15919   9.164  17.228  15.790 -0.3173 -0.1896 -0.0077
 2506W        W15920   6.420   6.167   5.643 -0.1854 -0.1131 -0.1031
 2507W        W15921   7.352  15.532   3.853 -0.0735 -0.2495  0.1478
 2508W        W15922  12.543  11.482  11.711 -0.0084  0.3963  0.2056
 2509W        W15923   2.839   1.997   2.671 -0.0784  0.0544 -0.0897
 2510W        W15924  17.102   7.054  11.766 -0.2050  0.1430  0.1890
 2511W        W15925   2.775   6.861   5.225 -0.1529 -0.0207 -0.1491
 2512W        W15926   4.417  13.574   1.723 -0.1094  0.1169 -0.1574
 2513W        W15927   9.894   1.767   3.145  0.2034  0.1130 -0.0741
 2514W        W15928  14.304  11.068  11.512  0.0317 -0.2018  0.0343
 2515W        W15929   1.307   3.591   2.513 -0.2029  0.2520 -0.0191
 2516W        W15930  14.217  13.265   4.049 -0.0501  0.2412  0.1116
 2517W        W15931  10.786   6.186   0.802 -0.1717  0.1463  0.1390
 2518W        W15932   6.883   0.059   3.166  0.0031 -0.0098 -0.1887
 2519W        W15933   8.959  14.741   2.942 -0.0059 -0.1285 -0.0817
 2520W        W15934  11.610   8.146   5.441  0.0319  0.0032  0.1407
 2521W        W15935   3.366  17.290   4.882 -0.0095  0.1433 -0.1193
 2522W        W15936   4.815   3.092  14.541  0.0584  0.0203 -0.1726
 2523W        W15937  16.495   2.107   4.952  0.3306 -0.0124 -0.2315
 2524W        W15938   4.308   5.775   3.488  0.0115  0.2269 -0.3011
 2525W        W15939  15.686  15.935   3.450  0.1070 -0.1208  0.3295
 2526W        W15940  18.329   6.505   5.499  0.1410  0.3248 -0.0092
 2527W        W15941  12.559   1.445   0.776  0.0581  0.2189 -0.0559
 2528W        W15942  16.604  14.491   6.550 -0.2158  0.0554  0.0880
 2529W        W15943  11.197   0.481   4.368  0.0619 -0.2777  0.2771
 2530W        W15944   1.665  17.574  10.481  0.1159 -0.0208  0.0110
 2531W        W15945  14.313   8.217   9.793 -0.2310 -0.2271  0.0630
 2532W        W15946  16.205   7.106  14.324 -0.0125  0.0126 -0.2061
 2533W        W15947   7.462  16.899  14.511 -0.0093  0.1342 -0.0196
 2534W        W15948  17.157   6.876  14.208 -0.0872  0.2077  0.2483
 2535W        W15949   8.243  12.133   3.005  0.1977 -0.0900  0.3492
 2536W        W15950   8.108   2.656   3.009 -0.1411  0.2752 -0.0835
 2537W        W15951   5.201   2.000   3.045  0.3554 -0.1086 -0.0074
 2538W        W15952   0.949  10.311  13.622 -0.2381  0.0525  0.2169
 2539W        W15953  18.368   2.675  13.244 -0.0377  0.1343 -0.2619
 2540W        W15954  13.351  16.649  14.720  0.1964  0.1431 -0.1848
 2541W        W15955   4.316  11.875   1.741  0.0710  0.1660  0.0785
 2542W        W15956   8.696   1.188   3.541  0.0930 -0.1840 -0.1372
 2543W        W15957  10.588   1.556   5.176 -0.1278 -0.0280  0.0199
 2544W        W15958   7.139  15.464   5.431 -0.3937  0.0241  0.3165
 2545W        W15959   7.781  16.401   5.189 -0.0976  0.0082  0.0955
 2546W        W15960  13.558  10.206  10.797 -0.2271 -0.1093  0.1720
 2547W        W15961  10.971  11.955   0.941  0.0844 -0.0048  0.1390
 2548W        W15962   9.818   3.776   4.036 -0.0427 -0.1323  0.2170
 2549W        W15963  11.941  14.767   0.138 -0.2822  0.1369  0.2071
 2550W        W15964  12.574   0.829  15.489  0.1690  0.0573  0.0232
 2551W        W15965  17.262   3.184  12.467 -0.0356 -0.0599  0.0164
 2552W        W15966  14.989   2.096  11.726  0.2942 -0.2286 -0.1092
 2553W        W15967  15.650   5.207   1.860  0.0754  0.3599 -0.0181
 2554W        W15968   8.859   4.321   5.061  0.0792  0.0344  0.1184
 2555W        W15969  12.746  15.828  13.704  0.2723  0.0834  0.1062
 2556W        W15970  14.973  13.987   3.979 -0.1197  0.3842  0.0713
 2557W        W15971  10.839   7.981  14.741  0.0322  0.1559  0.0971
 2558W        W15972   9.762  10.568   4.079  0.0271  0.0830  0.3682
 2559W        W15973   9.757   5.569   3.855  0.1452  0.2600  0.0939
 2560W        W15974   3.195   2.161   5.642 -0.1212 -0.2883 -0.0868
 2561W        W15975  13.159   9.618   4.129  0.0646  0.0232 -0.0239
 2562W        W15976   4.331   7.883   0.817 -0.2445 -0.1146  0.1132
 2563W        W15977   1.929   1.409   3.876 -0.1110 -0.0196 -0.0453
 2564W        W15978   8.466   8.586  10.423 -0.0280  0.2795 -0.1919
 2565W        W15979   7.551   3.686  12.050 -0.2535 -0.1866 -0.2566
 2566W        W15980  13.880   6.114   3.722 -0.0800 -0.6378 -0.1081
 2567W        W15981  14.586   1.105   2.785 -0.0601 -0.1788  0.0209
 2568W        W15982  16.756  18.359   4.851  0.1211  0.3940  0.1902
 2569W        W15983   5.113  17.772   6.085 -0.0330  0.1869 -0.2415
 2570W        W15984   7.104   7.318   5.601  0.0910 -0.0186 -0.2891
 2571W        W15985  13.709   1.129   4.480  0.0191  0.0406 -0.1533
 2572W        W15986  10.672   0.072  15.823  0.1086  0.1514 -0.1270
 2573W        W15987   4.479  12.151  13.168  0.0522  0.0705 -0.1388
 2574W        W15988  16.105  17.369   2.378 -0.1731  0.3747 -0.0236
 2575W        W15989   3.974   6.071   4.234  0.0096 -0.1409 -0.1373
 2576W        W15990   0.058  17.085   6.906 -0.2388 -0.3723 -0.0741
 2577W        W15991  14.980   5.778  14.655 -0.1775 -0.0101 -0.0941
 2578W        W15992   4.553  16.388   1.137  0.0979  0.0486  0.0322
 2579W        W15993   2.419   9.413   4.251 -0.1590 -0.2943 -0.0136
 2580W        W15994   7.344   7.137   2.152 -0.1100 -0.5109  0.1126
 2581W        W15995   8.176   5.196   0.354  0.0058  0.4998 -0.2057
 2582W        W15996   1.179  15.833   1.800  0.2748  0.2159 -0.2174
 2583W        W15997   0.127   3.387  15.877  0.0750 -0.1470  0.0146
 2584W        W15998   6.787   3.434   3.602  0.0668  0.1797 -0.0040
 2585W        W15999   3.979  13.784   2.056  0.1494 -0.0179  0.0262
 2586W        W16000  11.042  12.123  11.536  0.1936  0.2595 -0.0050
 2587W        W16001   1.642  18.310  13.442  0.0768 -0.0920  0.0394
 2588W        W16002   7.917   8.360  15.839 -0.0181 -0.2540  0.1193
 2589W        W16003  16.335   7.071   5.232  0.0544 -0.3353  0.2598
 2590W        W16004   6.965   1.574  13.001  0.2073  0.1166 -0.1713
 2591W        W16005   6.954  10.029   5.072  0.1005 -0.2764 -0.0535
 2592W        W16006  16.691  15.125   0.565  0.2009  0.5593 -0.2496
 2593W        W16007  12.023   9.505   3.811  0.0281  0.0234 -0.2370
 2594W        W16008  11.680  15.045   1.627 -0.2142 -0.1554 -0.0240
 2595W        W16009   3.862  11.419   3.647 -0.1556 -0.0087  0.0512
 2596W        W16010   5.176  14.572   2.769  0.0812 -0.1573 -0.3771
 2597W        W16011   8.240   9.389  14.169 -0.3783 -0.1271  0.3822
 2598W        W16012   2.609   0.335   3.229  0.0972  0.1305  0.2032
 2599W        W16013   7.578  11.180   4.917  0.1044  0.3642  0.2820
 2600W        W16014   4.599  13.571   3.146 -0.0947 -0.1086  0.2905
 2601W        W16015   7.245   9.431  15.709 -0.0189 -0.1593  0.0048
 2602W        W16016   2.895   5.070  11.152 -0.0656  0.2929  0.0197
 2603W        W16017   6.637   7.150   4.407 -0.0731 -0.2240 -0.1043
 2604W        W16018  16.653   7.158  12.049 -0.0429 -0.0544  0.4287
 2605W        W16019  17.845   9.817  12.072  0.0287  0.0672 -0.1368
 2606W        W16020  18.006  11.418   2.700 -0.2127  0.0725 -0.1487
 2607W        W16021   5.508   6.535  13.453  0.1514 -0.0573  0.0099
 2608W        W16022   6.276   5.119  15.838 -0.1107 -0.1135  0.0261
 2609W        W16023   0.228   1.753  14.482  0.3842 -0.0278  0.1496
 2610W        W16024  14.797   7.002  15.320 -0.3129 -0.0025 -0.2928
 2611W        W16025  10.704  17.546   5.629  0.0650 -0.0824  0.1407
 2612W        W16026  14.245   3.730   4.350 -0.2449 -0.2161  0.1047
 2613W        W16027  15.452   5.510  12.759 -0.4105  0.3123 -0.2454
 2614W        W16028  15.649  16.151  11.947  0.2601 -0.0594  0.0526
 2615W        W16029   9.363   9.798   1.516  0.1008 -0.2339  0.0759
 2616W        W16030  11.517  11.572   4.060  0.1486  0.1323 -0.3053
 2617W        W16031  11.141   1.176  11.772  0.1169  0.0819  0.1197
 2618W        W16032   8.068   2.225   9.786 -0.1356 -0.4814 -0.0585
 2619W        W16033   1.798   1.066   5.784  0.2653  0.2061  0.0165
 2620W        W16034  17.163   9.500  15.132 -0.2410 -0.1071  0.0644
 2621W        W16035   3.800  13.570   3.584  0.0733  0.0529 -0.3909
 2622W        W16036   7.173  12.250   5.783  0.1447 -0.2123 -0.0282
 2623W        W16037   8.993  13.664  15.762  0.0802  0.1503  0.2297
 2624W        W16038  10.404   0.296   0.716  0.1105 -0.0764  0.4318
 2625W        W16039  14.587   8.573  12.044 -0.3510  0.2078  0.0442
 2626W        W16040   5.984   8.633  11.995  0.2085 -0.1238  0.2163
 2627W        W16041   6.018  16.241   2.388 -0.2266 -0.2509  0.2253
 2628W        W16042  11.511   4.789   5.177 -0.1270  0.0797  0.2489
 2629W        W16043  14.428  10.931   3.268 -0.0510  0.1757 -0.2343
 2630W        W16044   3.624   1.714  15.814  0.1433  0.0590 -0.2009
 2631W        W16045   9.626  18.305   9.952 -0.1146 -0.0051 -0.1037
 2632W        W16046   4.812   8.085  11.178 -0.1636 -0.0552  0.2315
 2633W        W16047   2.936  16.577  15.785 -0.1018 -0.0726  0.1264
 2634W        W16048   7.204   2.821  13.128  0.2366  0.0963  0.0964
 2635W        W16049   8.338  18.360  13.777 -0.3891  0.1203  0.1881
 2636W        W16050  18.337  17.015  14.836  0.1149 -0.2187 -0.1830
 2637W        W16051   9.757  18.299  10.958 -0.3181  0.1416 -0.0610
 2638W        W16052   3.281  14.070   2.506 -0.2923  0.1402  0.3236
 2639W        W16053  16.355  12.419   5.198  0.1607  0.3344 -0.1975
 2640W        W16054   4.046  14.937   1.432 -0.1170  0.1260 -0.0876
 2641W        W16055  14.302  16.303  13.909 -0.1257  0.3194  0.1329
 2642W        W16056   3.206  17.312   6.718  0.3421  0.0466 -0.4227
 2643W        W16057   8.009   0.734   3.711  0.2398 -0.2455 -0.0527
 2644W        W16058  16.701   7.889  13.667  0.1249 -0.1701 -0.1009
 2645W        W16059   8.013   0.881   1.071  0.1535 -0.0054 -0.0968
 2646W        W16060  14.273  12.726   5.431  0.1409  0.3191 -0.3173
 2647W        W16061  11.664   8.932  14.917  0.1686  0.0397 -0.1902
 2648W        W16062   2.281  11.180   2.874 -0.0203 -0.1703 -0.2786
 2649W        W16063   0.942  14.684   6.017 -0.2077 -0.0975 -0.0396
 2650W        W16064  10.340  16.700   3.180  0.0440  0.0597  0.0392
 2651W        W16065   5.373   8.416   2.520  0.1732 -0.3018 -0.2073
 2652W        W16066  15.518  12.951   5.956  0.1640  0.0511 -0.3332
 2653W        W16067   5.387   4.833  15.153 -0.2381  0.0035  0.0805
 2654W        W16068   7.362   6.872  14.548  0.1349  0.3223 -0.2178
 2655W        W16069  16.136   5.326  12.167  0.2787  0.2452  0.2675
 2656W        W16070   5.709  11.779  11.554  0.0364  0.0675  0.2386
 2657W        W16071   3.683  16.012   2.204  0.5424  0.1565  0.0686
 2658W        W16072  15.947  16.124  13.674 -0.2314  0.0206 -0.2456
 2659W        W16073  12.847   8.777  16.391  0.0978 -0.2034 -0.0243
 2660W        W16074   6.574   6.806  15.689 -0.1989 -0.0488 -0.3923
 2661W        W16075   1.350   2.421   5.272 -0.0117 -0.0436 -0.0740
 2662W        W16076  15.786  18.011  16.072  0.3446 -0.0889  0.2369
 2663W        W16077  16.267   5.885  15.304  0.0516  0.0387  0.1167
 2664W        W16078  17.719   3.919  14.675  0.2530 -0.1475  0.1273
 2665W        W16079   6.066   4.936   4.005 -0.1024 -0.2057 -0.1848
 2666W        W16080   8.422   4.251  11.936  0.2822  0.1076 -0.0179
 2667W        W16081  13.418  16.442   5.210 -0.1772 -0.0238  0.2852
 2668W        W16082  16.436  10.945  16.025  0.3463 -0.0824 -0.3347
 2669W        W16083  12.531   7.698  12.108  0.0011 -0.2292 -0.0897
 2670W        W16084   6.483  15.646   1.274 -0.2680  0.1859 -0.0582
 2671W        W16085  11.654   2.570  13.887 -0.0485 -0.0685  0.0361
 2672W        W16086   5.310   1.622   3.863  0.1264  0.0148  0.2412
 2673W        W16087  12.327  12.109   4.343 -0.0516 -0.3383  0.1075
 2674W        W16088   8.041  11.916  14.996  0.0650  0.2691  0.0039
 2675W        W16089  11.558   0.450   3.808  0.0858 -0.1878  0.0426
 2676W        W16090  17.686   2.050  14.957 -0.1147  0.1758  0.3894
 2677W        W16091   0.574  10.055   3.418  0.0505 -0.3613  0.1702
 2678W        W16092  12.414  12.786   5.366 -0.0680  0.2387 -0.3181
 2679W        W16093   6.213   1.010   2.780  0.0148 -0.0185  0.2281
 2680W        W16094  13.406   4.656   4.287  0.2151 -0.2460  0.2527
 2681W        W16095  10.943  10.588   5.970 -0.2568 -0.2014 -0.0669
 2682W        W16096  12.512   1.496   5.222  0.0518 -0.2095 -0.0072
 2683W        W16097  11.982  11.400  15.151  0.1891  0.0780  0.0866
 2684W        W16098   6.209   8.422   2.931 -0.0165 -0.0490 -0.2410
 2685W        W16099  17.793  14.173   2.015 -0.1075 -0.0523 -0.1679
 2686W        W16100  12.407   8.715  15.865 -0.1704 -0.0178  0.4328
 2687W        W16101   4.310   9.253   1.237  0.0335 -0.1837  0.0730
 2688W        W16102  11.388   2.025  13.866  0.4077 -0.1122 -0.3043
 2689W        W16103  14.748  13.258   2.593  0.0528  0.2814  0.1631
 2690W        W16104   3.033   7.522   4.460  0.0361 -0.0728 -0.0227
 2691W        W16105  12.896   8.677   4.914  0.1123  0.4780 -0.4017
 2692W        W16106  14.066   0.016   1.969 -0.3251 -0.2002 -0.0753
 2693W        W16107  15.295  11.288   2.991 -0.2121  0.4468 -0.0101
 2694W        W16108  16.832  10.626  13.314  0.0499 -0.0765 -0.3481
 2695W        W16109   6.228  17.295   3.496  0.1616 -0.0688 -0.0185
 2696W        W16110  10.193   3.604   0.593  0.0658 -0.1934 -0.0014
 2697W        W16111   5.207   8.290   2.946 -0.1748  0.1691  0.0457
 2698W        W16112  10.393  13.116   2.742  0.0532 -0.0992 -0.4250
 2699W        W16113  15.199   8.917  12.541  0.2638  0.3731  0.1434
 2700W        W16114   8.544  17.798  14.399 -0.1301 -0.0288 -0.2395
 2701W        W16115   4.549  12.043   0.619 -0.2067 -0.0961  0.0026
 2702W        W16116   7.040   7.470   1.881 -0.2535 -0.1030  0.4139
 2703W        W16117  15.140   8.705   1.056  0.0287  0.2426 -0.5680
 2704W        W16118   2.130  10.530  11.570  0.2254 -0.0643  0.0153
 2705W        W16119   4.485   9.497  11.261  0.3107  0.0216  0.0582
 2706W        W16120   7.975   3.086   0.516 -0.1549  0.0240  0.1861
 2707W        W16121  12.276   4.969   0.038  0.1126  0.1062 -0.3097
 2708W        W16122   4.954  16.931  12.938 -0.0041 -0.2886 -0.2281
 2709W        W16123   8.753   4.443  16.431 -0.0422 -0.0580 -0.2759
 2710W        W16124   8.321  12.075  13.579 -0.1801 -0.1051  0.3252
 2711W        W16125   6.656   7.728  13.043 -0.0359  0.1185  0.2078
 2712W        W16126   6.229  14.826  14.480  0.1064  0.0078 -0.0754
 2713W        W16127   2.693  10.896   3.159  0.4583  0.1876 -0.1098
 2714W        W16128   3.738  10.341   1.941 -0.1204  0.3767  0.0897
 2715W        W16129   5.536   7.501   0.048  0.1076  0.1234  0.1638
 2716W        W16130  10.532  15.298   0.924 -0.0251  0.0860 -0.3220
 2717W        W16131   1.343  14.577   4.047  0.2973  0.0072  0.0700
 2718W        W16132   2.481   7.964  14.591 -0.1696  0.0895  0.0191
 2719W        W16133  17.537   4.802  14.941  0.0671 -0.0343 -0.1150
 2720W        W16134  14.350   5.115  13.510 -0.0463  0.2664  0.0834
 2721W        W16135   2.728   7.913   5.318 -0.2519  0.1161 -0.3169
 2722W        W16136   1.838  15.931   4.353  0.0415 -0.1399  0.3706
 2723W        W16137   9.573   7.064   5.181 -0.0036 -0.2671 -0.1653
 2724W        W16138   1.121   9.534  15.417  0.0295  0.2196 -0.0433
 2725W        W16139   3.922  14.547  11.855  0.1105 -0.0357  0.0732
 2726W        W16140  15.579   5.007   0.976  0.0270 -0.1407  0.0573
 2727W        W16141  17.192   8.705  15.623  0.0169 -0.1009  0.0483
 2728W        W16142  18.083  16.897   7.345 -0.0175 -0.3012  0.0366
 2729W        W16143  15.329   9.294  13.346  0.1490  0.0346  0.1621
 2730W        W16144  18.126   4.441   4.926  0.0599 -0.0507  0.4559
 2731W        W16145   0.409  11.585  15.721 -0.0277 -0.0121 -0.0675
 2732W        W16146  10.185   8.632  13.656 -0.0830  0.0967 -0.0813
 2733W        W16147   6.371   9.398   3.529 -0.0251 -0.0469  0.1120
 2734W        W16148   7.664   7.107  11.987 -0.2370 -0.2050  0.3902
 2735W        W16149   8.489  14.174  11.496 -0.2805  0.2432 -0.0175
 2736W        W16150   3.681   7.424  13.011 -0.1202  0.0368 -0.1493
 2737W        W16151  12.837  10.524   2.559  0.1757 -0.0045  0.1322
 2738W        W16152   2.598  16.802  11.198  0.0839 -0.0166  0.0147
 2739W        W16153  16.140  16.110  12.195 -0.2233  0.0170  0.0217
 2740W        W16154   8.484  14.372  13.682  0.0393  0.1974 -0.1700
 2741W        W16155   6.296   7.428  12.166  0.0280 -0.0171 -0.2535
 2742W        W16156   2.762  15.674   5.302  0.0914  0.2227  0.0669
 2743W        W16157  14.459  16.529   6.429  0.2755 -0.1902  0.1235
 2744W        W16158   5.988  13.960  15.752  0.1195  0.2906  0.1444
 2745W        W16159  16.077  18.058   4.080 -0.1978 -0.0109  0.1095
 2746W        W16160   0.518  15.232   4.402  0.0317 -0.0796  0.1775
 2747W        W16161  11.422  15.303   2.668  0.0462 -0.0292 -0.3482
 2748W        W16162   5.709  10.534   2.700  0.2507  0.0126 -0.1037
 2749W        W16163  14.829   3.383  12.191  0.1196 -0.3815 -0.0172
 2750W        W16164  18.244   3.949   5.732  0.1183 -0.0757 -0.1110
 2751W        W16165  15.930   5.089  13.139 -0.0107  0.1853  0.1140
 2752W        W16166  13.728   8.018  12.212  0.0622 -0.0330  0.0005
 2753W        W16167   9.706  13.246   1.992 -0.1989 -0.1419  0.2857
 2754W        W16168   6.492  10.014   5.969  0.0158 -0.1980 -0.2461
 2755W        W16169  10.146   1.089  10.799 -0.1724 -0.1816  0.1231
 2756W        W16170   4.453   3.967  13.127  0.1128 -0.0795  0.0470
 2757W        W16171   4.672   1.127   0.799 -0.1443  0.1219 -0.0741
 2758W        W16172  16.731  15.849   2.382 -0.3056 -0.0104 -0.2131
 2759W        W16173   4.654  15.436  14.917 -0.2297 -0.1159  0.3253
 2760W        W16174   9.492   5.337  12.168 -0.2640  0.1723  0.0936
 2761W        W16175   6.927  10.485   1.348  0.2516  0.0585  0.0056
 2762W        W16176   5.302   2.881  13.568  0.0538  0.0040 -0.0079
 2763W        W16177  12.997   1.297  13.514  0.1783  0.0058  0.0101
 2764W        W16178  12.097  10.369  15.136 -0.2045 -0.0814 -0.0555
 2765W        W16179  16.881   2.866  12.831  0.1743 -0.0571 -0.1941
 2766W        W16180  10.767   9.415   0.939  0.3194  0.1597 -0.1728
 2767W        W16181  18.075   1.786   3.569  0.1242  0.1866 -0.4687
 2768W        W16182   3.513   1.717   0.145  0.1549  0.3971 -0.0475
 2769W        W16183   8.604  16.244   2.359 -0.2367 -0.2904  0.1103
 2770W        W16184   9.419  16.914   3.140  0.0689  0.0793  0.0350
 2771W        W16185   8.333  16.771   3.704 -0.3498  0.1112  0.1675
 2772W        W16186  15.631   7.204   4.763  0.1225 -0.1933 -0.1891
 2773W        W16187  18.001  13.281  11.023 -0.3478 -0.0183 -0.1133
 2774W        W16188   4.947  13.033  14.721 -0.1949 -0.4177  0.0583
 2775W        W16189  12.495   1.964  11.968  0.1408 -0.0881 -0.0313
 2776W        W16190  11.123   2.131  12.494 -0.0672 -0.0458 -0.2750
 2777W        W16191   2.760  11.714   0.690 -0.1368 -0.0557 -0.0166
 2778W        W16192   3.233  10.571   2.185 -0.0359  0.3714  0.1232
 2779W        W16193  15.650  13.052  13.340  0.1765 -0.2311  0.1418
 2780W        W16194  12.992  10.664  12.549 -0.2657  0.1053 -0.0387
 2781W        W16195   1.817   8.002   0.261 -0.2347 -0.0054  0.0565
 2782W        W16196  11.810   7.405  10.962 -0.0903  0.2234 -0.1009
 2783W        W16197   3.285   7.336   1.444  0.0347 -0.1140 -0.1342
 2784W        W16198  17.861  10.939   2.563  0.1309 -0.3487 -0.2877
 2785W        W16199   9.055  12.625   1.240  0.2082  0.3133  0.1386
 2786W        W16200   8.951   7.487   4.026 -0.1023  0.0913  0.1916
 2787W        W16201   1.608  10.955  15.342  0.1232  0.1790  0.2046
 2788W        W16202  11.823   0.616   2.179  0.2009 -0.1539  0.1982
 2789W        W16203  17.914   9.116  11.557  0.1730  0.0865 -0.1603
 2790W        W16204  17.743   7.604   1.086  0.3488 -0.1061 -0.1088
 2791W        W16205   3.620   4.741  11.256  0.2448  0.0066 -0.0423
 2792W        W16206   3.535  12.423   0.770  0.0184  0.1131 -0.3233
 2793W        W16207   5.698  15.103   3.152 -0.3089 -0.2477 -0.0957
 2794W        W16208  13.716  10.401   1.617  0.2793 -0.0472  0.1338
 2795W        W16209  14.563  14.911   3.301  0.1304 -0.0736  0.3372
 2796W        W16210  11.146  12.593   3.492 -0.2588 -0.1561 -0.2649
 2797W        W16211   5.225  11.916  11.531  0.1475  0.0562  0.1083
 2798W        W16212  16.600  17.948  16.167 -0.1189  0.0187  0.1058
 2799W        W16213  16.911  13.671  12.026 -0.3153 -0.1169 -0.2674
 2800W        W16214   9.432   8.083  13.017  0.1817  0.1176 -0.0287
 2801W        W16215   2.285   7.469  10.887  0.1306 -0.1401  0.3383
 2802W        W16216  18.031  17.064  15.215  0.0218 -0.0659  0.2754
 2803W        W16217   4.456   8.676   3.209  0.0871  0.1536  0.0315
 2804W        W16218   4.104  15.849   5.688  0.2232  0.2134 -0.5927
 2805W        W16219   1.163  12.242   0.788 -0.2237 -0.1953 -0.3275
 2806W        W16220  15.472  18.184   0.536 -0.5041 -0.1827  0.0463
 2807W        W16221  13.221   2.543  12.009  0.0286  0.0743  0.0207
 2808W        W16222  11.328  14.292  11.152 -0.0670  0.0458  0.3456
 2809W        W16223   7.233   2.958   0.225  0.1507  0.1736  0.2393
 2810W        W16224   4.340   6.380  14.800 -0.1958 -0.1418 -0.0345
 2811W        W16225   1.439   9.396   3.880  0.0463  0.0913 -0.0413
 2812W        W16226  18.346   2.769   3.146 -0.2837 -0.2625  0.2675
 2813W        W16227  13.897  15.994   4.247  0.3308  0.3239  0.1560
 2814W        W16228   2.582   7.467  14.322  0.0237 -0.0199 -0.2395
 2815W        W16229   5.845   9.373   1.629  0.0999 -0.1271  0.2317
 2816W        W16230   6.548  15.052  15.346  0.1493  0.1913  0.3754
 2817W        W16231   8.164  12.014   2.512  0.0596  0.0254 -0.1093
 2818W        W16232   3.448   7.178  12.465 -0.3627  0.0155 -0.2612
 2819W        W16233  15.282   8.066  14.547 -0.1352 -0.2606  0.1048
 2820W        W16234  15.098  11.597   1.733 -0.2025 -0.1150 -0.1546
 2821W        W16235   8.468  15.671   5.126  0.0654  0.3933 -0.1677
 2822W        W16236  16.789   7.452   0.200 -0.1483 -0.0134  0.0625
 2823W        W16237   2.919  18.033   3.761  0.0280  0.0487 -0.1042
 2824W        W16238   5.898   6.069  10.131  0.0292  0.3148  0.0597
 2825W        W16239  17.827  18.087   0.201 -0.0359 -0.1486  0.0584
 2826W        W16240  13.323  10.215   3.701 -0.1311  0.3946 -0.0817
 2827W        W16241   2.736   8.396   1.074 -0.3164 -0.2300  0.1963
 2828W        W16242  12.070  13.580  14.663  0.0985  0.1842  0.0998
 2829W        W16243  17.559   3.113  11.990 -0.2031  0.2041 -0.2205
 2830W        W16244   9.434  15.941  14.104  0.0849  0.1177  0.2302
 2831W        W16245   6.421   0.711   3.348  0.1082 -0.1323  0.0057
 2832W        W16246  11.120  15.904   2.767 -0.0512 -0.2791 -0.0329
 2833W        W16247   6.089  11.714  13.673  0.0045  0.4253  0.0658
 2834W        W16248  15.279   7.723   1.147 -0.2933 -0.2651  0.0076
 2835W        W16249   4.870   1.322  14.059 -0.1000 -0.0796 -0.0067
 2836W        W16250   4.380  13.689  11.458  0.1831  0.3561  0.0406
 2837W        W16251   5.562   6.706  16.205 -0.5565  0.1574 -0.1827
 2838W        W16252   5.405  15.092  11.757 -0.0551  0.0552  0.1669
 2839W        W16253   3.435  16.641   0.358 -0.1477 -0.2172  0.3006
 2840W        W16254   8.166   8.180   4.187  0.1787 -0.2135  0.2593
 2841W        W16255   0.917   7.371  10.664  0.1642  0.0756 -0.0512
 2842W        W16256   7.815  10.650  16.499 -0.0801 -0.0381 -0.0633
 2843W        W16257   3.351  10.527  13.912  0.1162 -0.0453 -0.2702
 2844W        W16258  18.280   2.824  14.563 -0.1824 -0.0930 -0.1657
 2845W        W16259   2.910   4.188   4.405 -0.4665 -0.1654  0.3713
 2846W        W16260  11.226   8.462  13.369 -0.1793  0.1655  0.0438
 2847W        W16261  16.348  15.009   1.562 -0.1829  0.2845  0.1126
 2848W        W16262   5.046   3.894   3.751 -0.1862 -0.1589  0.2349
 2849W        W16263   7.801   7.448   3.852 -0.4774 -0.0496 -0.0481
 2850W        W16264   4.850  14.129   1.379 -0.2597  0.1027 -0.1156
 2851W        W16265  12.360   9.921  12.831 -0.2966  0.1052  0.1548
 2852W        W16266  16.721  10.310   2.030  0.1482 -0.2493 -0.1329
 2853W        W16267   5.348  13.918   1.295 -0.2111 -0.2409 -0.2100
 2854W        W16268  18.025  11.835  12.933 -0.0907  0.1977  0.2742
 2855W        W16269   2.870   4.848  13.112 -0.0307  0.0946 -0.0269
 2856W        W16270   7.751  13.055   4.242 -0.3119  0.0614 -0.0237
 2857W        W16271  12.057  18.104   5.347 -0.1535 -0.1916  0.1111
 2858W        W16272  17.944  14.854  14.989 -0.2101 -0.0198 -0.2687
 2859W        W16273   7.230  12.349   4.593 -0.1666 -0.0406 -0.3092
 2860W        W16274   4.175   7.060   9.943  0.0747 -0.0669  0.1701
 2861W        W16275   1.674   9.789  11.680 -0.1560  0.1175 -0.1272
 2862W        W16276   9.613   1.635  12.350  0.1678 -0.0651  0.2930
 2863W        W16277  14.957  15.410  12.164  0.2922 -0.0631  0.0136
 2864W        W16278   3.168   1.492   3.918  0.0266  0.1807  0.1945
 2865W        W16279  13.035   9.936   5.294  0.0112  0.3066 -0.1616
 2866W        W16280   2.361   6.584   4.954 -0.1532 -0.0065  0.1720
 2867W        W16281   9.810   5.140   5.784  0.1350  0.0131  0.3493
 2868W        W16282   5.584   1.968   3.567 -0.2049  0.1877  0.0140
 2869W        W16283   7.019  17.238  13.823 -0.0217 -0.2138  0.1219
 2870W        W16284  13.133  13.432  12.418  0.0491  0.3134  0.2903
 2871W        W16285  12.464  14.336   1.737  0.0451  0.0594  0.0632
 2872W        W16286   8.177   8.768  11.121 -0.0985  0.0453 -0.2588
 2873W        W16287   2.507  16.535   2.115  0.0757 -0.4467 -0.1705
 2874W        W16288   3.563  15.296   1.311  0.1302  0.4010  0.0423
 2875W        W16289  16.957   0.164  10.633 -0.0538 -0.0183 -0.2379
 2876W        W16290  11.731   5.594   0.500  0.0043  0.0555  0.1797
 2877W        W16291   1.605  16.932   2.093 -0.2086  0.0443 -0.0675
 2878W        W16292  14.775   8.627   0.262 -0.2875  0.2424  0.3042
 2879W        W16293  14.926   6.041   1.494 -0.1253  0.2685  0.1175
 2880W        W16294  10.485   4.512   5.223 -0.1290  0.2913 -0.2734
 2881W        W16295   0.427   6.836   0.300  0.0965 -0.1678  0.2538
 2882W        W16296  14.682   3.033  14.766 -0.0890  0.0331 -0.0126
 2883W        W16297   7.751   6.611  14.704  0.0915  0.0720  0.2090
 2884W        W16298   4.870   5.842   1.979  0.2576  0.1855 -0.0125
 2885W        W16299   5.325   2.315  13.226  0.0316 -0.0991  0.1742
 2886W        W16300   4.729  16.020   5.575  0.4585 -0.1162  0.4863
 2887W        W16301  10.863   5.509  10.514  0.3243  0.1171  0.2532
 2888W        W16302  10.007   1.176  13.373  0.2070  0.0323  0.5272
 2889W        W16303   9.453  13.841  15.602  0.1618 -0.0211 -0.0821
 2890W        W16304   5.250   0.209   4.822 -0.1435 -0.1075 -0.2737
 2891W        W16305  16.234  12.587   5.651  0.3632 -0.0994  0.0090
 2892W        W16306   9.968  15.063   2.825  0.2002  0.2177 -0.2028
 2893W        W16307  13.691   3.569   5.121 -0.0811  0.0290  0.1186
 2894W        W16308  17.578  10.349   1.973  0.3627 -0.0161 -0.3186
 2895W        W16309   4.353  17.321   5.134  0.3811  0.0259  0.1249
 2896W        W16310  17.744   1.230   3.260  0.0430 -0.1072  0.2071
 2897W        W16311   3.903   3.234  10.666 -0.0880  0.2031  0.2144
 2898W        W16312   7.579   6.893  15.046  0.2330  0.0823  0.4456
 2899W        W16313   9.457  14.852  12.696 -0.0165 -0.0494 -0.1786
 2900W        W16314   3.365   7.826  13.911 -0.3105  0.0667  0.0868
 2901W        W16315  17.189   0.791   5.024  0.1156 -0.3771 -0.0286
 2902W        W16316  10.111  16.803   0.494 -0.0250  0.3097  0.0752
 2903W        W16317   4.894   4.962   9.510 -0.1393 -0.0942  0.0802
 2904W        W16318  13.528  15.315   1.936  0.2212  0.3873 -0.0641
 2905W        W16319   7.722  15.098  11.763  0.2264 -0.1615 -0.1612
 2906W        W16320   2.408  14.810  15.407  0.1260 -0.1921  0.1587
 2907W        W16321   4.041  12.329  12.958  0.1309 -0.3076  0.0242
 2908W        W16322   0.326   6.086  15.399  0.0431  0.3261  0.2115
 2909W        W16323   7.917  13.875   5.057  0.2761 -0.1070 -0.0352
 2910W        W16324   5.266  13.094  11.227 -0.0170  0.0767 -0.0475
 2911W        W16325  14.294   1.924  12.757 -0.0081 -0.0831 -0.0615
 2912W        W16326  18.208   4.719  15.716  0.3573 -0.2401  0.3718
 2913W        W16327   7.358   8.752  11.173  0.1119 -0.1366 -0.1991
 2914W        W16328   9.047   3.316  10.562  0.2666  0.0639  0.1179
 2915W        W16329  14.003  11.440   2.454  0.0915 -0.2233  0.4832
 2916W        W16330  15.689   3.339  11.145 -0.3897  0.2424 -0.1793
 2917W        W16331   8.903   9.994  15.594 -0.4303 -0.3070 -0.0936
 2918W        W16332  11.701  15.426  16.294 -0.2750  0.2826 -0.1333
 2919W        W16333  11.085  10.259  10.070 -0.3724 -0.3681  0.2619
 2920W        W16334  17.602   6.974  16.102 -0.0799 -0.4502 -0.1695
 2921W        W16335   7.492  17.148   0.952 -0.3012  0.0347 -0.4134
 2922W        W16336   4.497  14.891   1.119 -0.0581 -0.0597 -0.0640
 2923W        W16337   6.282  17.202  10.904 -0.0614 -0.0413  0.1530
 2924W        W16338  14.449  12.797   6.693 -0.0833  0.0505 -0.1950
 2925W        W16339   3.330   3.143   4.677 -0.2575  0.0599 -0.0996
 2926W        W16340   4.407   8.016   2.092  0.3491 -0.0661  0.1396
 2927W        W16341   9.904   1.513   3.613  0.0075  0.1938  0.1862
 2928W        W16342   2.953  14.672  11.149  0.0616  0.0884 -0.1286
 2929W        W16343   9.623   0.455   4.483 -0.4107 -0.0303  0.0963
 2930W        W16344  15.393   7.229   3.376  0.3135 -0.0201 -0.1558
 2931W        W16345  14.921   6.246   4.549 -0.1538  0.2630  0.1665
 2932W        W16346  13.016   7.630  16.450  0.0337 -0.1346 -0.2066
 2933W        W16347  12.980  13.283   5.726 -0.3505 -0.1340  0.3040
 2934W        W16348   5.287   9.131  10.179  0.0121 -0.1197 -0.0409
 2935W        W16349  13.808  14.036  15.151 -0.0215 -0.0427 -0.1807
 2936W        W16350  11.570  12.592  12.569  0.2032  0.2518  0.2919
 2937W        W16351  17.349   0.159  13.664  0.1003  0.1844  0.2009
 2938W        W16352   1.190  12.551  12.052 -0.1390  0.0691 -0.0960
 2939W        W16353   7.871   8.723  10.479  0.1668 -0.2195  0.2982
 2940W        W16354   1.142  11.304  10.959 -0.0833 -0.2896 -0.2086
 2941W        W16355   9.271  17.703   5.047  0.1438  0.2303  0.1185
 2942W        W16356   9.253  10.958  10.766 -0.0559 -0.1124  0.1801
 2943W        W16357   4.024  18.132   1.006 -0.1098 -0.2749  0.0676
 2944W        W16358   5.741   1.464   1.957 -0.0225  0.3143 -0.1216
 2945W        W16359   0.308   2.310  11.908 -0.0830 -0.2170 -0.0507
 2946W        W16360   5.393   4.248  11.639 -0.1648 -0.1915  0.0119
 2947W        W16361  12.082  12.469   3.750 -0.1583  0.1418 -0.0298
 2948W        W16362  16.921  16.222   0.510 -0.0120  0.1065 -0.4753
 2949W        W16363  16.175  14.458   1.622 -0.1443 -0.0452  0.0742
 2950W        W16364   5.740   8.065   0.842  0.0988  0.1640  0.0076
 2951W        W16365   9.370   5.622   3.594  0.0910 -0.0230  0.1241
 2952W        W16366   2.486  11.344  12.047 -0.2620 -0.1912  0.0581
 2953W        W16367   5.768   7.527   0.746 -0.0920  0.3022  0.2053
 2954W        W16368   0.537  18.205   5.891 -0.0358  0.3151  0.0519
 2955W        W16369   4.571   6.531   1.748  0.0866  0.0905  0.1146
 2956W        W16370  17.514  18.252  11.681 -0.1180 -0.3631  0.1231
 2957W        W16371   2.593  13.889  11.790 -0.0613 -0.2809  0.1668
 2958W        W16372   1.563  15.945  15.580 -0.1031 -0.1458 -0.1246
 2959W        W16373  12.210  16.673  10.797 -0.1066  0.2443 -0.0936
 2960W        W16374   5.905   8.525   2.570  0.2618 -0.0588  0.2308
 2961W        W16375   4.844   5.485  10.835 -0.2718 -0.0668  0.0947
 2962W        W16376  13.808  18.241  11.285 -0.0800  0.2485  0.2694
 2963W        W16377   7.784   8.045   2.353  0.0491  0.3360 -0.1821
 2964W        W16378  17.591   3.001   1.919 -0.1809  0.0620  0.0810
 2965W        W16379   4.219   1.742  16.043  0.1692  0.1439 -0.1909
 2966W        W16380   3.155  10.433   3.794  0.2024 -0.1630  0.1127
 2967W        W16381  11.125   9.449  14.372  0.1456 -0.0175 -0.1732
 2968W        W16382  17.657   6.118   5.268  0.1973 -0.2021 -0.1456
 2969W        W16383  18.118   0.580  14.113 -0.2318 -0.0614 -0.0768
 2970W        W16384  13.658   6.271   0.385  0.0632  0.0104  0.0269
 2971W        W16385  15.148  17.318  14.312  0.0605  0.2574  0.1581
 2972W        W16386   0.704   8.185  14.170 -0.0625 -0.2445  0.0849
 2973W        W16387   0.264  14.624   3.708  0.0808 -0.0807 -0.1783
 2974W        W16388   7.415  13.522  14.168 -0.1838  0.2021  0.3009
 2975W        W16389   7.467   8.727   4.636 -0.0166 -0.1705 -0.0229
 2976W        W16390   9.072  12.084  13.724  0.3209  0.0704 -0.0829
 2977W        W16391   9.975  12.935   0.983 -0.0907  0.0791  0.3883
 2978W        W16392  18.129   8.863   2.639  0.1478  0.1721 -0.1804
 2979W        W16393  12.359  15.349  12.862 -0.2222  0.1317  0.0846
 2980W        W16394  12.354  10.805   1.585 -0.3342 -0.1759 -0.0194
 2981W        W16395   2.102   4.776  12.056 -0.1223  0.0114 -0.0637
 2982W        W16396   6.950  12.007   1.534 -0.0347  0.4041 -0.2687
 2983W        W16397   8.493  18.204   4.700  0.1024  0.1742  0.2357
 2984W        W16398  13.032   8.523   3.462  0.0468  0.3303 -0.0117
 2985W        W16399   3.884  14.819  15.465 -0.0560 -0.2114 -0.1548
 2986W        W16400   1.874   6.141  16.007  0.2156 -0.1229 -0.1493
 2987W        W16401   9.930   4.657  10.769 -0.2377 -0.2517 -0.2837
 2988W        W16402  11.248  13.003  13.109  0.1643 -0.3992 -0.2263
 2989W        W16403   1.248   5.741   3.261  0.0949 -0.2508  0.1897
 2990W        W16404  15.050   5.546   0.251 -0.1419 -0.2269  0.2970
 2991W        W16405  10.200   6.824  10.839 -0.0704 -0.1003 -0.3606
 2992W        W16406   9.538  17.688   1.421 -0.1224  0.3334  0.1487
 2993W        W16407  17.607  11.457  11.304  0.2614 -0.1068 -0.0666
 2994W        W16408   2.664  11.219   2.416 -0.2916  0.1008 -0.0731
 2995W        W16409   7.603  17.218   0.306 -0.0210 -0.0552 -0.1852
 2996W        W16410   0.271  15.651   0.674 -0.1723 -0.2999 -0.1815
 2997W        W16411  13.469  15.881  12.113  0.1266 -0.0802  0.1289
 2998W        W16412   8.625   6.386   3.180 -0.1982 -0.1375 -0.2858
 2999W        W16413  17.602  17.229  11.420  0.1786  0.0397  0.2474
 3000W        W16414   5.889   6.820   5.365  0.0453  0.4183 -0.2788
 3001W        W16415  17.086  15.484   3.567  0.2249  0.0080  0.4058
 3002W        W16416   2.799   8.269   4.125 -0.5054 -0.0743  0.1256
 3003W        W16417   2.075   6.496  13.476 -0.0333 -0.1325 -0.0698
 3004W        W16418  11.891  14.632  11.502 -0.0792  0.0586 -0.0346
 3005W        W16419  14.666  17.293  10.545 -0.0713  0.0709  0.2960
 3006W        W16420   6.091   0.916  15.338  0.2067  0.1257  0.2228
 3007W        W16421   0.874   4.956   0.286 -0.0543 -0.0210  0.1462
 3008W        W16422  11.929   1.863   2.941  0.0187  0.0423 -0.4289
 3009W        W16423   2.928  13.687  13.105  0.0291  0.3472  0.0419
 3010W        W16424   8.534   7.409   0.760 -0.2255 -0.1191 -0.0974
 3011W        W16425   0.303  13.659   3.493 -0.0659 -0.2050 -0.1685
 3012W        W16426  13.782  10.758   2.491 -0.0027  0.1864  0.4800
 3013W        W16427   8.578  10.093   4.530  0.0087  0.1823 -0.3277
 3014W        W16428   8.939   9.711  11.716 -0.0402  0.1618  0.1170
 3015W        W16429   7.236  10.176  13.531 -0.2457  0.1060  0.2796
 3016W        W16430   3.453   4.818  10.725 -0.0277 -0.1439  0.0935
 3017W        W16431   0.589   3.233   1.196 -0.1174  0.0193  0.1867
 3018W        W16432   1.485   9.783   4.202  0.0842  0.1316 -0.1258
 3019W        W16433   5.483  17.735  13.842 -0.0718 -0.2083 -0.2434
 3020W        W16434  14.628   0.886  11.799 -0.0531 -0.1582 -0.1016
 3021W        W16435  15.324  11.126   4.417 -0.3114 -0.2010 -0.4911
 3022W        W16436  15.263   8.261   9.835 -0.2758 -0.1671  0.3426
 3023W        W16437   0.355   5.882  13.294 -0.2382 -0.1611  0.3732
 3024W        W16438   3.949  14.985   3.765  0.0792  0.0351  0.0172
 3025W        W16439   5.188   5.721   3.304 -0.0662  0.1206 -0.1373
 3026W        W16440   1.302   2.095  15.768  0.1095  0.1880  0.0705
 3027W        W16441   1.359   3.710  12.444 -0.0573  0.1949  0.4171
 3028W        W16442  13.955   4.734  13.429  0.0406  0.0661  0.1919
 3029W        W16443   5.947  14.547   3.785 -0.1501 -0.0797  0.2264
 3030W        W16444  10.009   7.803  11.636 -0.1887  0.1664  0.0444
 3031W        W16445  15.814  11.568   5.954 -0.0905  0.0438 -0.2184
 3032W        W16446   8.251   0.846   0.584  0.0479  0.3517  0.1648
 3033W        W16447   0.437   0.418  14.496  0.0774 -0.1528 -0.1539
 3034W        W16448   9.656  15.502   5.114  0.1213  0.1434  0.0655
 3035W        W16449   5.187   6.616   2.730  0.5708 -0.1886 -0.2185
 3036W        W16450  11.277   5.813  14.493  0.1199 -0.3251 -0.2132
 3037W        W16451   9.054   6.215   4.906  0.0155 -0.0819 -0.0660
 3038W        W16452   7.627   2.746  13.333  0.1802 -0.1170  0.0218
 3039W        W16453  14.422  17.576   0.431 -0.2726 -0.0203 -0.3147
 3040W        W16454  17.819   8.128   4.599  0.1362  0.2186  0.1564
 3041W        W16455   6.712  10.072   1.770 -0.2081 -0.0447 -0.0216
 3042W        W16456  12.451   8.390   4.091 -0.0500 -0.1216  0.0020
 3043W        W16457   3.557   4.517  12.919  0.3710  0.1929  0.1824
 3044W        W16458  11.273   0.859  13.725 -0.0792  0.1183  0.0364
 3045W        W16459   0.472  16.347   3.956 -0.1354 -0.0665 -0.1395
 3046W        W16460  11.835  12.328  14.544 -0.0556  0.0322  0.0270
 3047W        W16461   9.176  12.757  12.535 -0.1600 -0.1058 -0.0766
 3048W        W16462  11.634  13.192   5.938  0.1965  0.0977  0.1912
 3049W        W16463   1.536   7.211   3.915  0.2991 -0.0031 -0.0375
 3050W        W16464  16.462  12.273   0.632  0.0850  0.1139 -0.1620
 3051W        W16465  13.362   2.201   4.430 -0.0474  0.4034 -0.1992
 3052W        W16466   3.431   9.404  13.980  0.1120 -0.1552  0.0440
 3053W        W16467   1.057   7.201  16.071  0.1047  0.0407  0.2077
 3054W        W16468  15.778  17.235  12.815  0.0172 -0.5815  0.2938
 3055W        W16469  13.501   0.754   5.204 -0.0241  0.3809 -0.1033
 3056W        W16470  11.031  11.974   5.169 -0.0634 -0.0315 -0.0108
 3057W        W16471   6.336  16.061   4.242 -0.0120 -0.0955 -0.6217
 3058W        W16472   4.364   6.933  11.444 -0.2604  0.1935 -0.2003
 3059W        W16473  12.159  17.080  14.800 -0.0367 -0.1342 -0.0734
 3060W        W16474   8.575   5.358  11.628 -0.1738  0.1017  0.0635
 3061W        W16475   1.847   0.492   6.574 -0.3248 -0.0237  0.4211
 3062W        W16476  11.215   6.523  15.731  0.1797  0.0615  0.0857
 3063W        W16477   9.198  17.522  13.915 -0.3306 -0.1146  0.2022
 3064W        W16478   6.357  11.381  15.289  0.0442  0.0652  0.0131
 3065W        W16479   2.512   9.623  13.950  0.1228  0.1139  0.1489
 3066W        W16480  15.563  15.725   2.870 -0.1875 -0.1541  0.1317
 3067W        W16481   1.158  13.460   0.556  0.1296  0.1085 -0.2001
 3068W        W16482  11.709  12.982  10.917 -0.1981 -0.1197  0.0444
 3069W        W16483   2.862  17.710   0.036  0.0306  0.1196  0.2059
 3070W        W16484  12.510   6.265   3.141 -0.1745  0.0739  0.1682
 3071W        W16485   9.869   2.445  10.051  0.0485  0.0160  0.0522
 3072W        W16486   5.345   8.793   1.191  0.0053 -0.1581 -0.3140
 3073W        W16487  16.439  10.250   9.793  0.3618  0.2026 -0.1017
 3074W        W16488   0.515   7.501   1.866 -0.0845 -0.2500 -0.2403
 3075W        W16489  16.522  16.814  12.055  0.0312 -0.0168 -0.3295
 3076W        W16490  17.775   1.529  13.305  0.2875 -0.1757  0.3423
 3077W        W16491   1.970   5.443  10.582 -0.0398  0.0856  0.2740
 3078W        W16492   9.992   5.120  13.171  0.1945  0.0130  0.3561
 3079W        W16493   5.067   6.568  15.464  0.0678  0.0073 -0.0644
 3080W        W16494   0.903   4.085  15.882  0.2415  0.1459 -0.0473
 3081W        W16495   1.891  14.648   3.972  0.3956  0.3127  0.1749
 3082W        W16496  15.325   8.562  13.097  0.1203  0.2491  0.0248
 3083W        W16497  12.803  15.878   6.160 -0.2237  0.0055 -0.1452
 3084W        W16498  16.588   7.730   4.440 -0.0044 -0.1717 -0.0938
 3085W        W16499  10.378   8.144   3.498 -0.4091 -0.0828 -0.1158
 3086W        W16500  13.983   5.206   5.064 -0.1669  0.0251  0.0725
 3087W        W16501   7.082   4.879   3.800  0.0431 -0.0143  0.1646
 3088W        W16502   7.784   5.566  15.003  0.2621  0.3940  0.4059
 3089W        W16503  10.200   3.516   4.486  0.1277 -0.0591  0.0144
 3090W        W16504   2.522   5.199   5.121  0.2293  0.5410  0.2345
 3091W        W16505   6.612   0.272  13.649 -0.2590  0.1050  0.0691
 3092W        W16506   7.053  13.224  12.184  0.4687 -0.0273  0.0350
 3093W        W16507  11.057   4.824   3.218 -0.0630  0.1512 -0.3300
 3094W        W16508   0.882  18.243   1.938 -0.2193  0.1504 -0.1543
 3095W        W16509   6.430   7.452   0.532 -0.1267 -0.2452  0.2224
 3096W        W16510  14.054   6.961  14.085  0.1261  0.1680  0.1672
 3097W        W16511  15.080  17.889   7.160 -0.0902 -0.3559  0.1393
 3098W        W16512  14.136   9.351   4.494  0.0122  0.0203 -0.1212
 3099W        W16513   3.576  11.404  12.433  0.0808  0.2654 -0.2137
 3100W        W16514  13.002   8.347  14.742 -0.0957 -0.2405 -0.1377
 3101W        W16515   2.218  11.593   2.477 -0.0994 -0.1183 -0.1012
 3102W        W16516  16.735   9.763   2.031 -0.0978  0.1503 -0.2592
 3103W        W16517   4.725   9.213   3.648  0.0379  0.2778 -0.2987
 3104W        W16518  13.618   9.741   3.988  0.3036 -0.1089  0.0982
 3105W        W16519   2.558  11.147   1.733 -0.0077 -0.2525  0.2311
 3106W        W16520   3.069   9.537  10.884 -0.0642 -0.1944  0.0195
 3107W        W16521   5.097  10.108   1.277  0.2862  0.1201  0.4435
 3108W        W16522   3.590  10.424  10.823 -0.2309 -0.2157  0.1697
 3109W        W16523  11.820   5.266  10.078  0.4952 -0.0096 -0.0338
 3110W        W16524   9.381  11.053  11.780 -0.0845 -0.4798 -0.0371
 3111W        W16525  12.092   6.274  14.817  0.1738 -0.1972 -0.1647
 3112W        W16526  11.354   1.282   3.548  0.1888  0.0026 -0.2557
 3113W        W16527   5.413   6.315   5.418 -0.0088  0.1258  0.1617
 3114W        W16528   3.929   5.096  12.758 -0.1200  0.0467  0.1910
 3115W        W16529  11.667  14.260  15.358  0.1677  0.2320 -0.0762
 3116W        W16530  11.604  13.856   4.979 -0.2460 -0.0342  0.3819
 3117W        W16531   0.408   3.410   1.975 -0.2259  0.0294 -0.0294
 3118W        W16532   6.417   6.386   2.038  0.1904 -0.2552  0.1594
 3119W        W16533  10.419  12.170   5.717  0.0011  0.0344  0.4042
 3120W        W16534  12.407  13.285   6.421 -0.0585  0.2616 -0.3094
 3121W        W16535   5.196   9.475   5.574 -0.1202 -0.4626  0.0174
 3122W        W16536   1.349   0.099   4.794  0.0822 -0.0740  0.5040
 3123W        W16537  12.409  17.099  12.016 -0.1766  0.0987 -0.2224
 3124W        W16538  15.914  12.292  10.863  0.2124  0.0153  0.0112
 3125W        W16539  12.790   3.398   2.260 -0.0770  0.3675  0.2248
 3126W        W16540  12.841   0.734   3.079 -0.1230  0.2404  0.1217
 3127W        W16541  15.129  16.806   0.435 -0.0445  0.0640  0.1025
 3128W        W16542  17.079  11.454   0.844  0.3222  0.1042  0.0482
 3129W        W16543  16.608   2.444  12.550  0.1761  0.2177 -0.1418
 3130W        W16544  15.340   4.569   1.028  0.0036 -0.0141  0.0558
 3131W        W16545   2.512  14.475   2.503 -0.0171 -0.0621 -0.0641
 3132W        W16546   8.119  13.569   0.754  0.1242  0.1737 -0.1872
 3133W        W16547  15.887  13.876  15.904  0.4464  0.2986  0.3399
 3134W        W16548  10.220  17.899  11.916 -0.0646 -0.0947  0.0287
 3135W        W16549  17.013   7.174  14.625 -0.2136 -0.0213  0.0283
 3136W        W16550  15.095  11.357  12.420 -0.0608 -0.0166 -0.1275
 3137W        W16551   9.971   4.795   4.933  0.3405  0.0723 -0.0343
 3138W        W16552  16.059  12.107   4.304 -0.1044 -0.2360  0.1809
 3139W        W16553  12.760  13.064  11.751  0.4702 -0.3394  0.0135
 3140W        W16554  17.798  10.110  16.375  0.2020  0.1478  0.0006
 3141W        W16555   1.603   1.623   2.782  0.0033  0.0784  0.1004
 3142W        W16556  11.625   2.990   0.955 -0.2180  0.1732  0.0181
 3143W        W16557   1.085   7.092   3.668 -0.0754 -0.1148 -0.2921
 3144W        W16558  16.766  14.471  12.945 -0.2614  0.0783 -0.0374
 3145W        W16559   1.739   9.597  14.544 -0.2839 -0.0003 -0.2262
 3146W        W16560  18.183   1.977  14.351  0.0569 -0.1947  0.3437
 3147W        W16561  13.254   9.848   3.209  0.4064 -0.0736 -0.2090
 3148W        W16562   9.796  12.367   5.577  0.2605  0.0494 -0.0668
 3149W        W16563  12.639  11.047   3.957  0.1187 -0.2292 -0.2529
 3150W        W16564  11.569   6.823  14.173 -0.0856  0.3173 -0.0428
 3151W        W16565  12.140  17.836  16.229 -0.1551  0.0879  0.0550
 3152W        W16566   3.429   3.255  11.337  0.1025 -0.2196  0.0213
 3153W        W16567   0.142  11.404  10.216  0.1009  0.1599 -0.1157
 3154W        W16568  14.366  10.578   1.292  0.0375 -0.0262  0.1329
 3155W        W16569  18.154  15.767  15.957 -0.0331  0.0646  0.1401
 3156W        W16570   2.129  15.577   4.120 -0.1587  0.1736 -0.1914
 3157W        W16571  15.597   4.157   2.280 -0.0136  0.1784 -0.2020
 3158W        W16572   7.558  10.296   9.837 -0.1825 -0.0655  0.0500
 3159W        W16573  14.927  15.016   1.797  0.1276 -0.2159 -0.2367
 3160W        W16574   3.536  12.911   2.051  0.0942  0.0487  0.2689
 3161W        W16575   7.580  10.170  16.153 -0.1711  0.2218  0.0151
 3162W        W16576  13.391   0.973  10.999 -0.1824 -0.1399 -0.0519
 3163W        W16577  15.276  17.212   2.361 -0.2189  0.2031  0.0410
 3164W        W16578   9.213  15.201  14.135 -0.0810 -0.0871 -0.1599
 3165W        W16579   7.951  16.037   4.796  0.1235  0.1043 -0.1008
 3166W        W16580   6.091   7.711  11.122  0.3678  0.5451 -0.3361
 3167W        W16581  16.774  13.690   5.897  0.5665 -0.0744 -0.2073
 3168W        W16582   8.230  14.935   1.224  0.2524 -0.1427 -0.1098
 3169W        W16583   4.776  16.986  14.669  0.0722  0.0744 -0.0966
 3170W        W16584   2.398   0.170   0.209  0.3182  0.0711  0.1932
 3171W        W16585   1.220  11.854  10.888  0.1032  0.2010  0.2368
 3172W        W16586   5.248   0.698  11.573 -0.0466 -0.0879  0.3717
 3173W        W16587   3.223   2.241   2.364 -0.1358 -0.0530 -0.0151
 3174W        W16588   3.953  12.415  15.688 -0.0336 -0.1096  0.0739
 3175W        W16589   8.939  12.943  14.727 -0.1048  0.0086 -0.4012
 3176W        W16590   0.424   8.191   1.617  0.2493  0.0727 -0.3949
 3177W        W16591   2.422  11.223  16.044 -0.1177  0.1630 -0.1553
 3178W        W16592   9.267  16.390  14.258  0.1724 -0.1987 -0.1153
 3179W        W16593  12.462   4.717   1.341  0.3200 -0.0829  0.2071
 3180W        W16594  11.673   3.904  16.006 -0.2705  0.2802  0.1272
 3181W        W16595   2.510  17.430  12.831  0.1937  0.2809  0.1007
 3182W        W16596  11.727  18.012   4.864  0.2382 -0.2251  0.0502
 3183W        W16597   6.667   3.374  14.665 -0.0045  0.0248  0.3189
 3184W        W16598   8.049  10.555   3.660 -0.0552  0.0740  0.3177
 3185W        W16599   7.255   5.921   3.728  0.2869  0.0319  0.1663
 3186W        W16600  18.210  13.595   3.873  0.1650  0.1085  0.0885
 3187W        W16601   1.949  13.109  16.511  0.1098  0.0880 -0.3023
 3188W        W16602  13.691  12.459  16.417  0.5388 -0.1093 -0.1262
 3189W        W16603   8.157  12.200   4.265  0.0662  0.0274 -0.0045
 3190W        W16604   6.173   9.417   5.572  0.0252  0.2585 -0.0687
 3191W        W16605   0.548   5.812   1.844  0.1932 -0.1948 -0.0884
 3192W        W16606  18.294  16.424   6.690 -0.2268 -0.1396  0.0241
 3193W        W16607   9.502  10.647  10.416 -0.2459  0.0915 -0.2210
 3194W        W16608  15.397   5.089  13.116 -0.0085 -0.0330 -0.2272
 3195W        W16609   7.053  16.070   1.888  0.2255  0.2973  0.1099
 3196W        W16610   5.553  12.507   5.876 -0.0666  0.0938 -0.1259
 3197W        W16611  10.266   8.994   5.249 -0.2763  0.0046 -0.1875
 3198W        W16612   4.195  11.334   1.958 -0.1066 -0.1498 -0.0219
 3199W        W16613  10.646   2.938   3.847  0.0137 -0.0136 -0.4230
 3200W        W16614   5.171   6.079   6.100 -0.1174 -0.1739  0.1460
 3201W        W16615   4.960  11.168  14.226  0.0854  0.0034  0.3042
 3202W        W16616  12.175   9.522  13.795 -0.1282 -0.0864  0.2470
 3203W        W16617   9.345   0.844  10.304 -0.1287 -0.0043 -0.0464
 3204W        W16618  16.627   6.853  15.571  0.1621 -0.2956 -0.0935
 3205W        W16619  16.412   5.260  13.967 -0.0256  0.0564  0.4018
 3206W        W16620   3.204   4.113  11.846  0.0328  0.2396  0.0578
 3207W        W16621  16.969   3.637   2.128 -0.1209 -0.0772 -0.1385
 3208W        W16622   2.539  14.036   4.581 -0.2144 -0.0521  0.2637
 3209W        W16623   4.374   9.962   2.964  0.1194 -0.0850 -0.1157
 3210W        W16624  17.987  12.433   3.165 -0.1413  0.2757 -0.1955
 3211W        W16625   7.182  17.844  10.341 -0.0491  0.1383  0.0518
 3212W        W16626   3.272  10.592  12.050  0.0364 -0.0500  0.0628
 3213W        W16627   5.734   8.356   4.329  0.0619  0.0265  0.1750
 3214W        W16628   3.082   0.425  14.540  0.0727  0.2251 -0.3406
 3215W        W16629   5.705  17.536   3.446  0.1237 -0.0776 -0.0884
 3216W        W16630  17.526   3.589  11.681  0.1837  0.0437 -0.4767
 3217W        W16631   0.139   3.972  14.808  0.1499  0.1974 -0.0637
 3218W        W16632  17.756  17.766  11.785 -0.1073  0.1977  0.0339
 3219W        W16633  11.484  11.042   2.127  0.1238  0.1787  0.3785
 3220W        W16634  17.494  16.056   2.970  0.0898 -0.1530  0.2390
 3221W        W16635   7.742   4.260   4.854  0.3709 -0.3527 -0.2144
 3222W        W16636  15.587   6.348  11.119  0.0427  0.2428  0.2448
 3223W        W16637   9.465   9.531  11.095  0.1916  0.0581  0.3643
 3224W        W16638  17.364  17.642   0.962 -0.0439 -0.0370 -0.1898
 3225W        W16639  12.782   9.133   0.965  0.0352  0.0179  0.2657
 3226W        W16640   1.730  12.874   3.146 -0.0128  0.0180  0.0697
 3227W        W16641  14.182   7.195  12.183 -0.2409 -0.0738  0.0675
 3228W        W16642  17.634   8.131  16.426 -0.0412  0.2240  0.0879
 3229W        W16643  14.216  12.177   3.064  0.0996  0.6499  0.2162
 3230W        W16644  10.210  13.523  10.696  0.0278 -0.0176 -0.0892
 3231W        W16645   5.199  17.781   1.239 -0.2695  0.2635  0.0257
 3232W        W16646   9.504  11.135  13.822 -0.0001  0.1092  0.1551
 3233W        W16647   2.942   7.290  10.468 -0.0962 -0.0338  0.0705
 3234W        W16648   9.618   8.532  10.308  0.3345  0.0296 -0.0540
 3235W        W16649   8.720  14.419  11.920 -0.2297  0.1707  0.1754
 3236W        W16650   0.994   7.096   4.386  0.0828 -0.0441 -0.2993
 3237W        W16651   0.988   6.427   0.975  0.1576  0.1024 -0.1400
 3238W        W16652  14.197   2.516   2.740  0.1152  0.0304 -0.1574
 3239W        W16653  18.204   8.375   4.263  0.0267 -0.4508 -0.1919
 3240W        W16654   2.786  16.316   0.629 -0.0309  0.0261  0.0170
 3241W        W16655  17.684   2.896   0.871  0.0042  0.0990  0.2215
 3242W        W16656  15.001  10.821   3.225 -0.0008  0.2391 -0.2051
 3243W        W16657   8.300   8.751   0.437 -0.2733 -0.1989 -0.0226
 3244W        W16658   5.859  15.561  14.055  0.0485  0.3013 -0.0858
 3245W        W16659   5.624  12.695  11.151 -0.0127 -0.0582 -0.2972
 3246W        W16660   4.922   6.875   1.878  0.0053 -0.0569  0.1358
 3247W        W16661   8.872  14.569   5.748  0.1186  0.0338  0.0994
 3248W        W16662   9.226  18.165   5.454  0.1464  0.2140 -0.0364
 3249W        W16663   3.099   8.193  14.043  0.2163  0.1658 -0.0512
 3250W        W16664   2.757   9.752   4.202 -0.0731  0.1699  0.0324
 3251W        W16665   4.919   8.809   2.491  0.1112  0.2262 -0.0446
 3252W        W16666  16.115   2.531  12.511 -0.0408  0.0021 -0.0416
 3253W        W16667   3.664   4.253   9.932 -0.0407  0.1849 -0.1429
 3254W        W16668  13.635   7.171  12.900 -0.1637  0.2717  0.2964
 3255W        W16669   5.980   1.411  11.592 -0.0239  0.2464 -0.2383
 3256W        W16670   4.141  11.668   2.820 -0.1159  0.0396 -0.3403
 3257W        W16671  18.223  11.028   4.884 -0.2040 -0.1317  0.1462
 3258W        W16672   6.085   9.445  11.342  0.2660 -0.3023 -0.1817
 3259W        W16673   2.879   7.011  15.973 -0.0210  0.1994 -0.1983
 3260W        W16674  17.963  13.767  13.556 -0.1370  0.3106  0.1166
 3261W        W16675  14.451   8.912   2.985  0.1539  0.1888 -0.5445
 3262W        W16676   8.036  10.366  15.958 -0.3276  0.0244 -0.2259
 3263W        W16677  12.793   6.800   1.374  0.1993  0.1757 -0.2927
 3264W        W16678  11.998  14.709  15.530 -0.0002 -0.2249 -0.0546
 3265W        W16679   4.931  11.993  13.306  0.0337 -0.3486 -0.1331
 3266W        W16680   7.814   6.146   3.816 -0.3519  0.4319 -0.1483
 3267W        W16681  16.967  11.610   3.352 -0.2847 -0.2500  0.2757
 3268W        W16682   9.503   0.804  15.112  0.1431  0.1251 -0.0205
 3269W        W16683   1.813   3.448  12.496 -0.0771 -0.3909  0.1364
 3270W        W16684   1.230   4.404  15.728 -0.2136 -0.0516 -0.0600
 3271W        W16685   3.796   2.477  14.201  0.3211 -0.0193 -0.0862
 3272W        W16686  10.024   9.746  14.615  0.0177  0.0500  0.3177
 3273W        W16687  11.861   4.036   4.672  0.2365  0.1493  0.0894
 3274W        W16688   1.532  11.905  16.238  0.0021  0.3829 -0.0925
 3275W        W16689   4.322   6.727  10.875  0.0051 -0.4751 -0.1147
 3276W        W16690  14.218   1.822   2.420  0.0474  0.1568 -0.0032
 3277W        W16691  18.109  16.447  13.590  0.1115  0.1054  0.2931
 3278W        W16692   2.803   1.109  15.412 -0.1152 -0.0572 -0.4063
 3279W        W16693   9.177   1.403   0.325  0.1791 -0.1529  0.0636
 3280W        W16694   4.223  18.221  12.670  0.0338 -0.1220  0.0179
 3281W        W16695   9.232  16.476  14.852  0.0747  0.1026 -0.0648
 3282W        W16696   6.178   6.322   3.340 -0.1101  0.1536  0.1901
 3283W        W16697   2.751  17.318  15.362  0.2466 -0.0025  0.3454
 3284W        W16698  17.328  16.637   6.276 -0.0604 -0.1164  0.2486
 3285W        W16699  10.583   6.610  14.306  0.2173  0.2035 -0.3485
 3286W        W16700  14.175  10.301  12.460  0.2229 -0.2976 -0.2836
 3287W        W16701   0.619   1.848   3.770  0.0065 -0.3565  0.0580
 3288W        W16702   1.553   4.958   3.598 -0.0948  0.0925 -0.2109
 3289W        W16703  15.086  15.759  11.763 -0.0338  0.2510 -0.0408
 3290W        W16704   1.384  10.422  14.653 -0.1452 -0.1780 -0.0430
 3291W        W16705   4.404  10.335  10.922  0.0219 -0.0126 -0.0759
 3292W        W16706   4.841  15.903   1.277 -0.1679  0.3717  0.0044
 3293W        W16707  13.098  10.304   6.136 -0.0574 -0.0839 -0.0569
 3294W        W16708   6.005  13.025   0.488 -0.0018  0.1074  0.4036
 3295W        W16709   5.815  12.828   4.519 -0.0483  0.1673 -0.2286
 3296W        W16710  17.771  17.086   3.509 -0.1421 -0.1253 -0.1256
 3297W        W16711  13.163   3.764   1.499 -0.1590 -0.2886  0.0846
 3298W        W16712  11.138   0.774  15.032 -0.0718  0.1113 -0.2617
 3299W        W16713   7.423   0.429   5.869 -0.1633  0.0048 -0.1278
 3300W        W16714   3.841  17.471  13.278 -0.0711  0.0602 -0.0163
 3301W        W16715  11.689   5.240  10.738 -0.1901  0.0919  0.0347
 3302W        W16716   5.652  18.283  15.600  0.1251  0.0065 -0.3243
 3303W        W16717   5.920   5.251   3.184 -0.0266  0.2664 -0.0488
 3304W        W16718  16.697  11.872   3.933  0.0094  0.3565 -0.3588
 3305W        W16719  15.030   2.373  12.189  0.3729  0.0014  0.1235
 3306W        W16720  13.770   0.001   0.068 -0.0278 -0.0258 -0.0818
 3307W        W16721   9.225   3.674   4.970 -0.2975 -0.0523 -0.1725
 3308W        W16722   0.968   7.414  12.360 -0.1308 -0.1531  0.3089
 3309W        W16723   4.777   0.064  11.895 -0.0283 -0.2412 -0.0426
 3310W        W16724   9.822   9.486   1.702 -0.1699 -0.0499  0.1431
 3311W        W16725  11.454  16.283  14.795  0.1154 -0.0807  0.1404
 3312W        W16726  17.412  12.103   5.148 -0.1058 -0.1527 -0.1591
 3313W        W16727   5.313   7.009   4.005 -0.1166 -0.1218 -0.4294
 3314W        W16728  14.046  16.678  13.455  0.0596 -0.5353 -0.2342
 3315W        W16729   2.877  10.775  12.726  0.0581 -0.1511 -0.3711
 3316W        W16730   1.093   0.209   2.877 -0.3228 -0.0730  0.0742
 3317W        W16731   0.709  11.206  11.487 -0.1451 -0.1150 -0.0412
 3318W        W16732   6.935   6.354  15.313  0.0210  0.0425  0.3596
 3319W        W16733   5.862  14.529   0.424  0.2015 -0.2669 -0.4051
 3320W        W16734  14.338  15.002  12.121  0.2557  0.0030  0.3365
 3321W        W16735   6.011   8.407   3.901 -0.3055  0.0022 -0.2006
 3322W        W16736   6.019  13.589   4.684  0.1563  0.0666 -0.2315
 3323W        W16737  14.243  13.286   1.734 -0.1790 -0.0279 -0.1372
 3324W        W16738  13.288   3.534  15.812  0.0193 -0.0888 -0.0645
 3325W        W16739   4.821   2.997  11.681  0.0427  0.4275  0.1040
 3326W        W16740   9.922   7.373  10.829 -0.0530  0.0800  0.1773
 3327W        W16741   3.845  16.994   0.054 -0.1563  0.1682 -0.0720
 3328W        W16742   6.584   3.446   0.397 -0.0412  0.1122 -0.0369
 3329W        W16743  13.473   9.640  10.892 -0.0774 -0.0326  0.1153
 3330W        W16744   1.407   4.735   3.132  0.0773  0.1914  0.0195
 3331W        W16745   1.063   8.720   0.528 -0.2743  0.3807  0.0181
 3332W        W16746   9.567  10.035  10.976 -0.0504  0.2585 -0.0262
 3333W        W16747   4.840  17.157  11.425 -0.0202 -0.1011  0.2276
 3334W        W16748   1.395  13.370  15.706  0.4615  0.0472 -0.0047
 3335W        W16749   9.310  16.687   2.235 -0.2490  0.0943  0.2411
 3336W        W16750   7.321  11.649   0.902 -0.2938  0.0445 -0.0286
 3337W        W16751   5.648  13.063   0.812  0.3119  0.0430  0.2351
 3338W        W16752  17.866  16.801   3.109  0.1144  0.0685 -0.1555
 3339W        W16753   7.290   1.972  16.341  0.2422  0.2036 -0.2650
 3340W        W16754   7.374   8.849   1.531  0.0859 -0.1991 -0.0301
 3341W        W16755   2.592   8.283   5.005  0.0881  0.0666 -0.0115
 3342W        W16756   3.462   5.528   4.150 -0.1744 -0.2393 -0.1010
 3343W        W16757  12.330  16.830   1.214 -0.3931  0.0755 -0.0165
 3344W        W16758  10.178   4.712  13.463  0.0751  0.0131 -0.0718
 3345W        W16759  16.455   0.777   6.855 -0.0951 -0.2127 -0.1423
 3346W        W16760  17.769   0.116   6.603 -0.1331 -0.0353 -0.1834
 3347W        W16761   7.324  14.524  13.044 -0.0718  0.0937  0.1447
 3348W        W16762  17.384  14.804   5.869  0.3879  0.2808 -0.0672
 3349W        W16763   5.081  10.328  12.494 -0.1435 -0.1960 -0.1167
 3350W        W16764  14.482   2.992  15.612 -0.2428 -0.0572  0.1755
 3351W        W16765  15.295  16.347   0.533 -0.0972 -0.1166 -0.0805
 3352W        W16766   9.568  10.161  12.093  0.0643  0.0600 -0.2758
 3353W        W16767   1.612   2.757   0.267 -0.1949  0.2637  0.1251
 3354W        W16768  13.580   6.112  10.126 -0.2166  0.4496  0.1847
 3355W        W16769   0.477   5.984   4.276 -0.2068  0.0082 -0.1616
 3356W        W16770  10.534  10.083  16.420 -0.0880  0.3579 -0.0625
 3357W        W16771  12.899   0.034  15.364  0.1135  0.1548  0.0756
 3358W        W16772   2.580   7.116  13.081  0.0618  0.6028  0.2402
 3359W        W16773   3.735   3.277  11.824 -0.0823 -0.0561 -0.0720
 3360W        W16774  17.363   0.686   2.460 -0.1690  0.1860  0.1693
 3361W        W16775   2.724   7.898  12.440  0.0213 -0.0134  0.0565
 3362W        W16776  15.144  10.800   3.938 -0.4676 -0.0299 -0.1001
 3363W        W16777   0.870   8.697  10.457  0.1792 -0.2168  0.4700
 3364W        W16778   9.936   2.587  14.727  0.3032 -0.1652  0.2375
 3365W        W16779   8.739   9.475  14.866  0.2970 -0.1769  0.2853
 3366W        W16780   4.113   1.854   0.451 -0.0443  0.2347 -0.1974
 3367W        W16781  16.841   1.859  14.241 -0.1213 -0.0681  0.0931
 3368W        W16782  15.555   0.856   3.059 -0.1069 -0.0378  0.1361
 3369W        W16783  10.129   0.190  11.126  0.1294  0.2687  0.3420
 3370W        W16784  11.644   5.693   3.078 -0.1860 -0.0398  0.1615
 3371W        W16785  14.464   0.216   2.239  0.0480 -0.1420 -0.1910
 3372W        W16786  15.794   8.945  12.407  0.0298 -0.1952 -0.0895
 3373W        W16787  11.559  12.760   4.992 -0.1658 -0.0830 -0.2807
 3374W        W16788  10.861   4.087   5.055 -0.0153  0.3391  0.0425
 3375W        W16789   1.465  11.870   0.392 -0.0220  0.0301  0.4168
 3376W        W16790   4.612   3.804   5.327 -0.0747 -0.2475 -0.0286
 3377W        W16791  16.446   5.786  14.790  0.0993 -0.0049 -0.0171
 3378W        W16792  18.315   8.297  16.426 -0.0964 -0.1792  0.1107
 3379W        W16793  15.218   2.017   0.990 -0.1891 -0.1417 -0.1728
 3380W        W16794  11.447   6.665  10.764 -0.2804 -0.0447  0.3085
 3381W        W16795  10.015   8.955  13.320  0.2457 -0.2513 -0.4134
 3382W        W16796   1.464   5.126  15.687  0.1069  0.0603 -0.1483
 3383W        W16797  16.022  11.453  12.528 -0.0838  0.3026  0.0143
 3384W        W16798  11.176  10.723   4.820  0.0468 -0.2880 -0.0778
 3385W        W16799  15.178   7.097  14.428 -0.0685  0.3056 -0.3244
 3386W        W16800  16.333  15.212  12.276  0.2709 -0.1561  0.1620
 3387W        W16801   3.078  10.569   3.027 -0.0441 -0.1382 -0.0639
 3388W        W16802   2.091  11.794   6.188  0.0244  0.3596 -0.1977
 3389W        W16803   3.980   4.059  10.936  0.0734  0.2892  0.1230
 3390W        W16804   8.939   8.374   3.943  0.2701 -0.0125  0.2711
 3391W        W16805  17.109  17.447  11.337  0.2617 -0.4356 -0.0950
 3392W        W16806   6.529  17.421  15.011  0.2243 -0.2451 -0.3292
 3393W        W16807   4.816   6.063   3.236  0.0335 -0.0949  0.0349
 3394W        W16808  14.596  17.168  14.345  0.3104  0.6286 -0.1992
 3395W        W16809   6.953   9.157   5.441  0.2687 -0.2226 -0.1770
 3396W        W16810   8.950   8.556  11.665  0.0157 -0.2069  0.0172
 3397W        W16811  13.184  12.519  15.126  0.1011 -0.2277  0.0322
 3398W        W16812  16.426  14.611   5.029 -0.1479 -0.1861 -0.0604
 3399W        W16813   6.558   3.874  14.471  0.1949  0.1125 -0.1244
 3400W        W16814   1.338   7.215  14.938  0.1296  0.1749 -0.0009
 3401W        W16815   4.255   6.810  13.001 -0.1896  0.2664  0.3444
 3402W        W16816  16.767  17.477  14.272 -0.1402 -0.2221  0.0134
 3403W        W16817   8.938  16.842  12.910  0.3004 -0.0263  0.0314
 3404W        W16818  12.940  15.914   0.259  0.2421  0.1303 -0.0881
 3405W        W16819  12.221   1.576  11.767 -0.0661 -0.0166  0.2173
 3406W        W16820   5.808   7.906  13.308 -0.4918 -0.0807 -0.0577
 3407W        W16821  13.212  17.281  13.127  0.0712 -0.2128  0.3615
 3408W        W16822  14.861  12.499   1.743  0.0982 -0.0515  0.0171
 3409W        W16823   0.049   9.326  13.084 -0.0537 -0.0493  0.3090
 3410W        W16824  12.307  13.951   2.081 -0.1847  0.1136 -0.1668
 3411W        W16825   4.377   5.676  10.853 -0.2254  0.1333  0.2840
 3412W        W16826   0.129   6.779   4.316 -0.0218  0.1153  0.1013
 3413W        W16827   5.986   6.403  10.463 -0.3458 -0.1604  0.1080
 3414W        W16828   8.271  10.080  12.615 -0.0706  0.1307  0.0080
 3415W        W16829  12.142   1.287  13.745 -0.2738 -0.4252 -0.2586
 3416W        W16830  11.596   5.549   1.503  0.1688 -0.3481 -0.0735
 3417W        W16831  14.089   3.828   5.394  0.0187  0.0474 -0.2996
 3418W        W16832   8.534   6.904  15.174  0.0954  0.2140 -0.1923
 3419W        W16833  17.636  13.414  16.439 -0.0575  0.0335  0.2396
 3420W        W16834   1.921   2.866  14.199  0.2522  0.2543 -0.0857
 3421W        W16835   0.862   2.434  15.868  0.2428 -0.0534 -0.0612
 3422W        W16836   6.144  14.532  13.508  0.0799  0.0233 -0.2983
 3423W        W16837  17.791   5.917  11.414 -0.0035  0.1434 -0.2069
 3424W        W16838   6.309   2.824  12.747  0.0612  0.0130  0.0897
 3425W        W16839  10.196   3.518  15.664  0.2763  0.3316  0.0155
 3426W        W16840   5.276  10.683   3.657 -0.0831  0.1383 -0.0605
 3427W        W16841  16.754   7.359  11.597  0.0307  0.1029 -0.3960
 3428W        W16842  15.224  17.986  15.208 -0.0932  0.2562  0.2750
 3429W        W16843   0.313   1.090   2.552 -0.1233 -0.1961  0.1822
 3430W        W16844   0.443  12.694   5.861  0.0379  0.1803  0.0915
 3431W        W16845  16.391  12.802   2.462 -0.0259 -0.0082  0.0630
 3432W        W16846  15.688   1.297   0.178  0.1465  0.2205  0.0667
 3433W        W16847  11.007  10.016   4.665  0.2525 -0.0229  0.3312
 3434W        W16848   8.088  12.732   4.075 -0.0771 -0.2513 -0.0426
 3435W        W16849  16.290  12.328  14.267 -0.0195  0.1110 -0.0173
 3436W        W16850  12.083   4.852   4.376 -0.3071 -0.0189 -0.0717
 3437W        W16851   3.639   5.294   0.938 -0.0180 -0.1592  0.0146
 3438W        W16852  14.573   7.882   5.458 -0.2240  0.0620  0.0059
 3439W        W16853   3.521   3.615   5.579 -0.2033 -0.2290  0.2373
 3440W        W16854  10.567   3.716  12.472  0.0905  0.1606 -0.1615
 3441W        W16855   4.826  18.016  15.388  0.2418  0.0079  0.2894
 3442W        W16856  14.910  12.893  16.508  0.0809  0.0406 -0.2453
 3443W        W16857   9.732   8.756  16.114  0.0460 -0.0405 -0.0086
 3444W        W16858   5.009  11.814  16.444  0.0727 -0.0479  0.2045
 3445W        W16859  18.115  10.245   2.978  0.1483  0.1491 -0.1088
 3446W        W16860   7.349   2.548  15.531 -0.1319  0.1829 -0.0818
 3447W        W16861   4.388  16.784  14.384  0.0480 -0.3911  0.0178
 3448W        W16862  14.446  13.230  15.597 -0.2175  0.0796 -0.0929
 3449W        W16863  15.164  11.988  12.785 -0.0941 -0.1019 -0.2906
 3450W        W16864   4.429  14.627  10.977  0.1901 -0.2236  0.1593
 3451W        W16865  14.694  15.900  14.988  0.0383 -0.1457 -0.2133
 3452W        W16866  15.519   3.200  12.754 -0.2414  0.4443 -0.1952
 3453W        W16867   2.205   3.010   2.653  0.2474  0.0038 -0.1672
 3454W        W16868  16.311   1.993  12.264  0.0085  0.0999  0.3043
 3455W        W16869  11.449   8.749   2.029  0.0052  0.1775  0.2113
 3456W        W16870   3.750  18.210   0.591  0.1951 -0.0906  0.1215
 3457W        W16871   9.277  18.105   1.017  0.1728  0.0568 -0.2083
 3458W        W16872  13.186   8.603   2.477  0.0681  0.0635 -0.0204
 3459W        W16873   3.772   1.956  12.285 -0.2121  0.0617 -0.1414
 3460W        W16874  17.938  13.134  13.580 -0.1409  0.0394  0.0508
 3461W        W16875   3.383  18.271  15.314 -0.0455  0.0555  0.2059
 3462W        W16876   2.965   9.631   4.712  0.1809 -0.0167  0.1775
 3463W        W16877   1.293  12.454  10.043  0.0274 -0.0740  0.0102
 3464W        W16878  12.391  18.147   4.733 -0.0255 -0.3175 -0.1385
 3465W        W16879   2.559   3.464  12.892 -0.3125 -0.3428  0.0828
 3466W        W16880   7.074  10.356   3.581  0.0081  0.0042 -0.1423
 3467W        W16881  14.340   7.716   2.596  0.2816  0.1528  0.1665
 3468W        W16882   2.584   2.350   1.044 -0.0198 -0.0457 -0.3718
 3469W        W16883  14.081  10.679  11.837  0.1876  0.0954 -0.1522
 3470W        W16884   9.864   5.283   2.340  0.0239 -0.0981  0.0051
 3471W        W16885   4.038  13.847   3.945 -0.0845  0.0596  0.2102
 3472W        W16886   2.942  10.259  12.654  0.0076  0.2662 -0.2531
 3473W        W16887   0.795   1.285   5.723  0.0031 -0.0816 -0.1540
 3474W        W16888   1.831  16.662  13.888  0.0833  0.2856  0.0775
 3475W        W16889  18.257   5.874  11.427  0.2385 -0.0020 -0.2114
 3476W        W16890   6.729  16.616   3.781  0.0310  0.0564 -0.1148
 3477W        W16891   3.639   8.349  13.216 -0.0290 -0.2824  0.3663
 3478W        W16892   7.730  13.305   5.022 -0.1462  0.2082 -0.1808
 3479W        W16893  13.847   5.051   3.777  0.0484 -0.2664 -0.2123
 3480W        W16894   0.266  13.359   6.750  0.0400 -0.0181  0.1440
 3481W        W16895   5.748   5.544   4.961  0.1852  0.2084  0.0026
 3482W        W16896  12.222  10.923  12.089 -0.0048 -0.3136  0.4227
 3483W        W16897  12.454   3.531   5.191 -0.0297  0.0124 -0.0222
 3484W        W16898  17.974   9.135   2.075  0.1957 -0.0306 -0.1360
 3485W        W16899  10.149   6.828  14.317 -0.0905 -0.0352 -0.0710
 3486W        W16900  14.008  10.550  15.873 -0.1437  0.3210 -0.3083
 3487W        W16901  15.300  17.416  15.516 -0.5699 -0.0949  0.0943
 3488W        W16902   4.336   2.744   6.429 -0.0871  0.1479 -0.1126
 3489W        W16903   1.839   4.148   3.932 -0.0430  0.0834 -0.0893
 3490W        W16904  13.375   5.231  15.369  0.1044 -0.0501  0.3599
 3491W        W16905  15.964   5.419   2.748  0.1788 -0.2034 -0.3454
 3492W        W16906  16.671   4.436   0.755 -0.0937  0.3984  0.0661
 3493W        W16907   8.032   7.653   3.387 -0.1253 -0.4738 -0.0505
 3494W        W16908  14.246  16.585   0.568  0.4363 -0.3651  0.2635
 3495W        W16909  17.068   6.157  16.057 -0.0304  0.1210 -0.0026
 3496W        W16910  13.813   1.984   0.541 -0.4168  0.0969 -0.0263
 3497W        W16911   0.618  11.496   3.443 -0.1261 -0.1502 -0.1491
 3498W        W16912  15.384  13.772  11.818  0.2083  0.0929 -0.1254
 3499W        W16913  11.776   0.572  12.536 -0.2894 -0.2040  0.1451
 3500W        W16914   8.897   4.814   5.165  0.2063  0.0995  0.0368
 3501W        W16915  11.311   3.018  12.194 -0.2550 -0.4642 -0.0896
 3502W        W16916   6.561   2.897  12.304  0.0928 -0.1371  0.0874
 3503W        W16917   1.756  18.383   5.643  0.1260  0.1280  0.2863
 3504W        W16918  12.949   8.898  15.557 -0.2219 -0.4043  0.2052
 3505W        W16919   7.752  12.177   3.167  0.1246  0.1480  0.0381
 3506W        W16920  12.338  15.893   2.094 -0.3524  0.2325 -0.0155
 3507W        W16921   2.943  17.549  10.628  0.1638 -0.1361  0.1810
 3508W        W16922  11.902  16.158   3.892  0.1551 -0.0380  0.0243
 3509W        W16923  10.504   8.158  15.366 -0.3484  0.3446  0.2448
 3510W        W16924  11.480   2.094  16.389 -0.4212 -0.0294 -0.3810
 3511W        W16925   4.138   0.180   6.236  0.4684 -0.1542 -0.1439
 3512W        W16926   5.717  18.114  12.136 -0.0126 -0.0247 -0.0730
 3513W        W16927   6.273   4.179  15.092  0.1341 -0.0650  0.0673
 3514W        W16928  15.704   4.885   3.490 -0.2097 -0.0586 -0.0986
 3515W        W16929   1.817  17.017  16.382 -0.0527 -0.0270  0.2944
 3516W        W16930  12.751   6.373   3.594 -0.1047 -0.0155  0.2254
 3517W        W16931  13.829  14.228   2.446 -0.2168 -0.1267  0.1766
 3518W        W16932   3.235  11.980   2.340  0.0693  0.0012  0.3818
 3519W        W16933  13.582   5.024  13.567  0.0663 -0.0159  0.2496
 3520W        W16934  14.301   7.769  11.410  0.1798  0.0007 -0.0814
 3521W        W16935  16.210   7.890  14.122  0.1581 -0.0326  0.2497
 3522W        W16936   4.792   1.165  15.936  0.2568 -0.1740  0.0149
 3523W        W16937   5.494   5.111   4.742  0.0661 -0.1019  0.0746
 3524W        W16938  12.503   8.196  12.248 -0.2632 -0.2105 -0.0973
 3525W        W16939  13.587  16.769  12.017 -0.0561  0.0481  0.1262
 3526W        W16940   0.187  11.361  11.359  0.2850 -0.2080  0.3625
 3527W        W16941   6.082   1.368  12.836  0.1409  0.1608  0.0014
 3528W        W16942   8.086   7.938  14.493  0.1528 -0.0323 -0.0894
 3529W        W16943   0.294   6.668  10.583 -0.0046 -0.0123  0.2476
 3530W        W16944  11.431   8.151   4.644  0.2262 -0.3126 -0.0083
 3531W        W16945  14.992  18.203   4.226  0.1914  0.1027  0.0274
 3532W        W16946   0.924  16.634   1.446  0.0408  0.1066  0.0468
 3533W        W16947  12.807   5.755   5.230  0.0436 -0.1660 -0.0911
 3534W        W16948  11.678   4.432  16.135  0.1572  0.3326  0.1571
 3535W        W16949   0.772  14.091  16.031  0.1726  0.0636 -0.0162
 3536W        W16950  15.705  11.168   2.153  0.0306  0.2265 -0.0841
 3537W        W16951  15.474   8.663  11.418  0.1869 -0.0183  0.2093
 3538W        W16952   2.449   2.572  13.282  0.0277  0.0115  0.2379
 3539W        W16953   2.035   5.317   1.243 -0.1554 -0.2794 -0.1095
 3540W        W16954   7.031   1.308   5.299 -0.1464  0.3626  0.3471
 3541W        W16955   8.763   2.449   1.593 -0.0759  0.1026  0.0059
 3542W        W16956  17.506   6.519  14.352  0.2769 -0.1901 -0.5230
 3543W        W16957   1.326  15.882  13.589 -0.1030 -0.2364 -0.1389
 3544W        W16958   2.222  17.726   4.953 -0.1556 -0.3689 -0.0728
 3545W        W16959   2.331   9.897   4.057 -0.0763  0.1473 -0.4136
 3546W        W16960  14.807  15.953   4.453 -0.0273  0.2020 -0.2012
 3547W        W16961  11.843   9.098   4.869  0.5216 -0.2636 -0.1152
 3548W        W16962  15.836  17.868   1.889  0.1089 -0.0800  0.1155
 3549W        W16963   7.330   6.383   4.594 -0.1367 -0.0771  0.1235
 3550W        W16964   5.347  15.599  13.834  0.2266  0.1107  0.1251
 3551W        W16965  17.926  17.865  15.123  0.2526 -0.1149 -0.2646
 3552W        W16966   1.339   3.199  12.615 -0.0911 -0.1678 -0.0162
 3553W        W16967   9.672   2.467  15.525 -0.1083 -0.0752  0.0634
 3554W        W16968   7.638   0.075  12.348  0.3455 -0.2419 -0.0582
 3555W        W16969   0.594  17.640   2.843 -0.0988 -0.0081  0.0680
 3556W        W16970  10.338   8.084  11.113  0.3446 -0.0656 -0.0111
 3557W        W16971   7.735   9.332  13.641 -0.3778  0.1579 -0.0356
 3558W        W16972   0.031  15.328   2.113  0.1679 -0.1643 -0.1680
 3559W        W16973   7.673   5.595  11.085  0.4031 -0.0209 -0.0148
 3560W        W16974   4.501   1.903  13.004 -0.0697 -0.0188 -0.0915
 3561W        W16975  17.136  18.004  14.806 -0.3382 -0.1832  0.0148
 3562W        W16976   0.606   9.020   3.671  0.2523  0.0740  0.0542
 3563W        W16977   3.344  13.973  14.879 -0.1003  0.0140 -0.5507
 3564W        W16978   4.748  12.984  10.963 -0.0659  0.3282  0.3091
 3565W        W16979   3.599  13.579  11.635 -0.2030 -0.3248 -0.1359
 3566W        W16980  11.862   8.484   1.227  0.1060 -0.0806  0.3203
 3567W        W16981  14.771  14.641   1.073 -0.1737 -0.1417 -0.0604
 3568W        W16982  11.115   8.380  12.155 -0.0082 -0.3580 -0.0081
 3569W        W16983   8.741   3.353  11.864  0.0241 -0.2323 -0.1091
 3570W        W16984  13.365   7.618   4.192  0.1143 -0.0992 -0.3122
 3571W        W16985   9.992  12.662  15.931  0.2200 -0.2582  0.2277
 3572W        W16986   2.538   3.351   0.680  0.0367  0.3929  0.2981
 3573W        W16987   8.449   6.589  15.561  0.1066  0.0611 -0.2828
 3574W        W16988  12.494   3.133  13.056  0.5867  0.3266 -0.0482
 3575W        W16989  17.161  14.305  10.868 -0.2299  0.3212 -0.2319
 3576W        W16990  14.947  17.472   2.624 -0.1979  0.2044  0.0288
 3577W        W16991  10.108   7.869   2.667 -0.1323 -0.1593 -0.0113
 3578W        W16992   7.841   7.361  15.170 -0.1921  0.1622  0.2157
 3579W        W16993  11.395   3.303  10.700  0.2372 -0.0875 -0.1457
 3580W        W16994   2.132  13.122   1.019  0.1068 -0.0726  0.0740
 3581W        W16995   4.061  16.631   5.628 -0.2084 -0.0728  0.0234
 3582W        W16996   1.282   3.392  10.183  0.1452  0.1153  0.2709
 3583W        W16997  11.690   9.735  13.865 -0.1757 -0.0265  0.0953
 3584W        W16998   0.552   5.251   1.605 -0.1132  0.1267 -0.0379
 3585W        W16999   4.962   4.390   3.625 -0.0856  0.2076  0.0193
 3586W        W17000   0.539   1.578   0.703  0.2249 -0.0785  0.1554
 3587W        W17001  14.635  16.326   5.993 -0.3226  0.0691 -0.1977
 3588W        W17002   4.996   8.249  16.345  0.2008  0.1603 -0.3030
 3589W        W17003   0.176   9.345   1.684 -0.0603 -0.2581 -0.0621
 3590W        W17004   8.742  12.212  15.614  0.2227  0.0698  0.0845
 3591W        W17005   3.885  11.117   2.369  0.1360  0.2582  0.0713
 3592W        W17006  16.851  16.957   3.483 -0.0585  0.3820 -0.0509
 3593W        W17007  14.842  13.589  12.285 -0.0399 -0.3124  0.3476
 3594W        W17008   5.634   0.391   9.939 -0.0422 -0.2439 -0.2747
 3595W        W17009   0.860   3.989   0.540 -0.2920 -0.0944 -0.3197
 3596W        W17010  12.316   8.952   2.512 -0.1916  0.1022 -0.4384
 3597W        W17011  16.744  15.321   3.185 -0.1759  0.0772  0.6629
 3598W        W17012  11.639  13.357  11.426 -0.0822  0.0122  0.0776
 3599W        W17013   6.678   9.271  12.238  0.0864 -0.1370  0.1221
 3600W        W17014  11.325   8.309  15.766  0.1526  0.0494  0.1023
 3601W        W17015  10.286   8.339   3.946 -0.0507  0.2309 -0.4297
 3602W        W17016  16.952   7.115   3.346 -0.1618 -0.2160 -0.0543
 3603W        W17017   6.052   8.629   4.655  0.1172  0.3411 -0.1844
 3604W        W17018  17.754   1.035   2.393  0.1536  0.0086 -0.0507
 3605W        W17019  13.551  17.708   4.746 -0.0356 -0.2792 -0.0151
 3606W        W17020  12.172   3.313  14.703  0.3660  0.4868 -0.2803
 3607W        W17021  11.866  15.787   2.371 -0.0268 -0.1362  0.2825
 3608W        W17022   3.388   9.215  12.266  0.2225  0.1884  0.0908
 3609W        W17023  17.691   0.909   4.743  0.1707 -0.0880 -0.2952
 3610W        W17024  15.443   9.894   1.395 -0.1719 -0.1950 -0.1145
 3611W        W17025   9.503   3.667  11.590 -0.3498 -0.2149  0.1120
 3612W        W17026  15.290   8.191   1.130 -0.3900  0.3105 -0.1832
 3613W        W17027   4.085   4.164   1.294 -0.0995 -0.2736  0.0892
 3614W        W17028  10.098  11.337  11.165  0.2901  0.2948  0.0131
 3615W        W17029  10.629  10.872   5.717 -0.1350 -0.2884  0.1888
 3616W        W17030  11.408   1.369   4.083 -0.2943  0.0252  0.0986
 3617W        W17031   2.644   3.263  11.996  0.1668 -0.2638  0.0367
 3618W        W17032  12.362   3.244  15.217 -0.0538  0.0306  0.0257
 3619W        W17033  15.359   2.017   2.002  0.2568 -0.1653 -0.0799
 3620W        W17034   8.224   9.133  13.668  0.0785 -0.0274 -0.1664
 3621W        W17035   2.986  11.083   4.639  0.0021 -0.2230  0.1152
 3622W        W17036  17.972   7.267  14.985  0.2584  0.2859  0.1511
 3623W        W17037   4.065   8.094   2.518  0.0382 -0.1846  0.1572
 3624W        W17038   2.142  12.455   1.902  0.1192  0.2879 -0.1142
 3625W        W17039   5.975   4.307   4.737  0.0212 -0.3578 -0.0145
 3626W        W17040  16.275  11.854  15.157  0.2009 -0.0510  0.2822
 3627W        W17041  14.042   4.728   0.955 -0.0150 -0.3339 -0.0629
 3628W        W17042   5.310   7.865   1.630  0.1947 -0.0208 -0.0123
 3629W        W17043   4.947   6.283   5.318 -0.2862  0.2635 -0.1345
 3630W        W17044  14.317   7.437  15.687  0.1306  0.1625  0.2217
 3631W        W17045   1.542   1.612  14.009  0.0575  0.1118  0.0802
 3632W        W17046  12.205   0.940   4.229 -0.4359  0.0523 -0.0755
 3633W        W17047  12.011   7.838   1.669  0.0125 -0.2303  0.2182
 3634W        W17048   4.965   0.617   0.764 -0.0044 -0.1797  0.1192
 3635W        W17049   9.913  12.576  14.748 -0.1606  0.0106 -0.0447
 3636W        W17050  14.490  17.263   0.041  0.1275  0.0936  0.1409
 3637W        W17051   6.811  16.105  15.564  0.1343 -0.1416  0.0389
 3638W        W17052  17.842  11.956  12.055 -0.1660 -0.0621  0.0974
 3639W        W17053  11.131  15.488  11.011  0.0583 -0.2015  0.4566
 3640W        W17054  15.504   0.200   5.615  0.0138 -0.1784  0.1832
 3641W        W17055  16.420  12.605   0.129  0.0024  0.2032 -0.0214
 3642W        W17056  10.286  14.086   0.377  0.4681  0.3257  0.1229
 3643W        W17057   7.994  17.197  13.829 -0.3166  0.2686  0.3098
 3644W        W17058  17.296  12.554   2.564 -0.0574  0.1570  0.0427
 3645W        W17059   3.991   9.053   4.642  0.0367 -0.2210  0.1427
 3646W        W17060   8.150   2.271   3.369 -0.2038 -0.3139  0.2541
 3647W        W17061   0.994  10.034  11.217 -0.1605 -0.0156 -0.1136
 3648W        W17062   4.713  10.334  14.566 -0.1877 -0.1057  0.0429
 3649W        W17063  16.322   4.443  15.803 -0.1292  0.0482 -0.0052
 3650W        W17064   2.339  14.621   1.030 -0.0931 -0.1208 -0.0775
 3651W        W17065   3.144   3.254  11.782 -0.0328 -0.0636  0.1268
 3652W        W17066   5.659   1.022  11.759  0.3600 -0.0129  0.1962
 3653W        W17067   9.808  11.518  13.827 -0.0043  0.0784 -0.1646
 3654W        W17068  12.452  18.117   4.235  0.1598 -0.2246 -0.3405
 3655W        W17069   1.721  10.610  15.778 -0.2226 -0.0953  0.3530
 3656W        W17070   0.844   5.802  11.586  0.0485 -0.0953 -0.0169
 3657W        W17071  15.275  14.556  16.001  0.3546  0.1309  0.0503
 3658W        W17072   4.283  13.850  12.513  0.1503 -0.2076  0.1158
 3659W        W17073  17.191   8.184  15.671 -0.2602 -0.1386 -0.4910
 3660W        W17074   1.284  11.036   5.394  0.5553 -0.1456 -0.1911
 3661W        W17075   6.728  13.240   4.994 -0.2421 -0.1909  0.4702
 3662W        W17076   2.462  15.248  10.731 -0.0264  0.0728  0.2530
 3663W        W17077   0.765  18.065   6.321  0.2973 -0.1773 -0.5785
 3664W        W17078   0.105   9.184  13.637 -0.1611 -0.0317  0.1036
 3665W        W17079  13.528  14.311   4.867  0.0057  0.1066  0.1368
 3666W        W17080   5.949   8.604   3.435 -0.2522 -0.0938  0.1535
 3667W        W17081  15.765  14.186  15.429  0.1953  0.0736  0.0132
 3668W        W17082  14.869   0.090  12.786  0.4379 -0.1096 -0.0799
 3669W        W17083  16.038  16.116   1.089  0.0696 -0.2262 -0.0059
 3670W        W17084   0.619   2.640  11.565  0.0999  0.1567  0.1499
 3671W        W17085   4.463   9.905  14.387  0.0847  0.3284 -0.1647
 3672W        W17086   0.409   2.038   0.724 -0.0786  0.1824 -0.0200
 3673W        W17087  16.928   9.524  14.368 -0.0786 -0.2294  0.4475
 3674W        W17088   9.144  15.606  13.818  0.2744  0.1342  0.2380
 3675W        W17089  13.196   0.339   5.032  0.5133  0.1251 -0.2515
 3676W        W17090   7.442  14.822   3.168 -0.3138  0.0834  0.3597
 3677W        W17091  12.846   1.684   1.175 -0.4068  0.2239 -0.0726
 3678W        W17092   1.309   6.801  11.534  0.0313 -0.2876 -0.1802
 3679W        W17093   3.983  12.194  12.120 -0.2337  0.0316  0.0194
 3680W        W17094   6.724   2.546   2.432 -0.2116 -0.0292  0.0147
 3681W        W17095  14.603  11.985   3.377  0.0975  0.1350  0.0844
 3682W        W17096   9.323  18.090  14.672  0.1180 -0.0319 -0.2101
 3683W        W17097   8.033  10.620  13.396 -0.0588 -0.1454 -0.0475
 3684W        W17098  10.519   2.098   2.688  0.0441  0.2432 -0.0426
 3685W        W17099  16.272  16.772   0.284  0.0094 -0.1883 -0.1818
 3686W        W17100   2.226  15.372  16.179 -0.0015 -0.1830 -0.0030
 3687W        W17101   2.370   6.199   1.974 -0.2350  0.2008  0.1040
 3688W        W17102  12.164   8.789   1.522  0.0108  0.1242 -0.2278
 3689W        W17103  13.071  11.069  13.080  0.2725  0.0007 -0.0937
 3690W        W17104  17.310   6.876   2.311  0.0660 -0.3100  0.2022
 3691W        W17105   4.768  15.081  16.395 -0.0996 -0.0868  0.0529
 3692W        W17106   4.286  12.733  15.490 -0.0327 -0.3607 -0.1761
 3693W        W17107  13.660   5.244   2.461  0.0488 -0.0982  0.1225
 3694W        W17108  16.090  11.208  10.659 -0.0811  0.0611 -0.3405
 3695W        W17109   5.153  16.227  11.302 -0.0790  0.0613  0.0194
 3696W        W17110   8.651   3.558  11.358  0.0171  0.3850 -0.1954
 3697W        W17111  16.784  17.179  11.677  0.0089  0.1372 -0.2374
 3698W        W17112   3.116   8.717  13.313  0.3060  0.0192 -0.1803
 3699W        W17113  16.897   2.750   2.369  0.2619 -0.2321 -0.1331
 3700W        W17114  11.431  17.125  14.718  0.5197 -0.0919 -0.1682
 3701W        W17115   7.670   8.572   2.635  0.0625 -0.0602  0.0574
 3702W        W17116   7.441  14.999  15.468 -0.1780 -0.0986  0.1115
 3703W        W17117   7.411   5.421   0.929 -0.0397  0.2565  0.2775
 3704W        W17118  14.128  17.146  14.194 -0.0017  0.0404  0.0083
 3705W        W17119  17.261  17.286   3.660 -0.1838 -0.1257 -0.1909
 3706W        W17120   7.436  12.570  15.417  0.0072 -0.0851  0.0438
 3707W        W17121  17.351   9.553   3.962  0.0864  0.2264  0.0937
 3708W        W17122   0.188   6.669   3.804 -0.2175 -0.2719 -0.1730
 3709W        W17123  12.061   9.831  15.182 -0.2259  0.1624 -0.1450
 3710W        W17124  17.711  16.660  13.865 -0.3170 -0.2143  0.1626
 3711W        W17125   7.365   0.206  11.489 -0.2745 -0.2933 -0.1156
 3712W        W17126  16.655  15.486   2.713 -0.2251 -0.2606 -0.2389
 3713W        W17127  17.919  16.999   2.201 -0.2459  0.0196  0.1135
 3714W        W17128   0.736   8.871  12.873  0.0914  0.0340 -0.2098
 3715W        W17129  11.397   5.155   3.878 -0.1531  0.4076 -0.1750
 3716W        W17130   2.827  16.569  14.503 -0.0274  0.1912  0.2940
 3717W        W17131   0.852   8.298   0.315 -0.2565 -0.2997 -0.1403
 3718W        W17132   0.550   6.273   1.294  0.3362  0.0677  0.1849
 3719W        W17133   4.758   6.681  11.732 -0.0425 -0.2032  0.2007
 3720W        W17134   3.575  14.790   4.128 -0.2332 -0.0465 -0.2290
 3721W        W17135  16.316   2.625  13.536  0.0429 -0.1112 -0.1899
 3722W        W17136   1.511   4.096  14.752 -0.2181  0.0227 -0.0313
 3723W        W17137  16.986   2.995  11.738 -0.0361  0.2739 -0.1688
 3724W        W17138  11.866   3.503   4.825 -0.0381 -0.0231 -0.1327
 3725W        W17139   0.621  14.478   5.655 -0.1771 -0.1320  0.1284
 3726W        W17140   4.774   2.983   3.822 -0.1567 -0.1228  0.2220
 3727W        W17141   2.993   8.454  15.861  0.0934  0.0846  0.0111
 3728W        W17142   5.743  17.007   2.693 -0.0564 -0.1022 -0.1248
 3729W        W17143   4.602  14.083  14.888  0.1732 -0.2579  0.0201
 3730W        W17144   0.638   6.929  15.825  0.2346  0.0228 -0.1624
 3731W        W17145   7.332  15.275   0.750  0.0988 -0.3090  0.0020
 3732W        W17146   3.171   8.632   4.309  0.1912 -0.1002  0.0605
 3733W        W17147  15.061  15.509   0.622 -0.5606  0.1306 -0.1426
 3734W        W17148   4.252   9.581  13.902  0.0048 -0.0195  0.3512
 3735W        W17149   5.609   3.287   3.225  0.1012  0.0897  0.2397
 3736W        W17150   7.851   8.992   0.540  0.0409  0.0063  0.1337
 3737W        W17151  11.748  14.500   0.476  0.0982 -0.1248  0.0477
 3738W        W17152  16.538   0.445   1.798 -0.2313 -0.0073 -0.2031
 3739W        W17153   6.060   4.773   3.136  0.1917  0.0285 -0.0896
 3740W        W17154  13.331   7.422  14.304 -0.0989  0.3667 -0.1015
 3741W        W17155   4.672   9.386   0.093  0.2285 -0.2175  0.1227
 3742W        W17156  16.825   0.229  13.894  0.0466 -0.4966 -0.1490
 3743W        W17157   8.646  13.140   2.694  0.1502 -0.0264  0.1189
 3744W        W17158   2.787   6.495  12.566  0.3043 -0.0978 -0.0077
 3745W        W17159  15.180  16.027   3.759 -0.2358  0.1130 -0.1212
 3746W        W17160   5.623   2.823  14.567 -0.2744 -0.0212 -0.1528
 3747W        W17161   4.016  15.533  11.692 -0.1054  0.1319 -0.2407
 3748W        W17162  10.742   8.445  12.501  0.0756 -0.4682  0.0086
 3749W        W17163   5.475   8.027  11.412 -0.1732  0.2846 -0.1135
 3750W        W17164   8.719  10.213  14.320 -0.1912  0.2883 -0.3815
 3751W        W17165  16.673  16.593  11.003  0.0961 -0.1532 -0.1937
 3752W        W17166   6.128   4.099  13.349  0.2362 -0.0549 -0.0180
 3753W        W17167   2.145   2.557   0.970  0.2851 -0.2288  0.1885
 3754W        W17168   6.904   2.843  10.708  0.0987 -0.0265 -0.3350
 3755W        W17169   2.719  10.498  11.743 -0.0330 -0.1058 -0.5342
 3756W        W17170   1.508   5.502   1.245  0.0138  0.0375 -0.1135
 3757W        W17171  17.031   3.119  10.699 -0.1828 -0.0724  0.0477
 3758W        W17172   0.366   0.204   3.112 -0.4570  0.2271 -0.0243
 3759W        W17173   6.510  16.092  12.250  0.1300 -0.2621 -0.3295
 3760W        W17174  13.508  16.011  13.294  0.3442  0.1250  0.1663
 3761W        W17175   0.581  14.757   4.187  0.0336  0.1543  0.1868
 3762W        W17176   5.873  13.701   5.238 -0.1507  0.0736 -0.1900
 3763W        W17177   0.702  10.625  12.013  0.1283  0.1043  0.0806
 3764W        W17178   1.168  11.612   1.650 -0.1827 -0.0080 -0.2319
 3765W        W17179  10.545  13.161  14.580  0.0279 -0.1719 -0.0685
 3766W        W17180   9.311   6.069  15.367 -0.1036 -0.1784  0.1415
 3767W        W17181   3.632  16.878   0.784 -0.1043 -0.0522 -0.1632
 3768W        W17182   5.533   6.507   1.644  0.1490 -0.0443  0.0217
 3769W        W17183  17.448   2.437   4.945 -0.0528 -0.1260  0.0101
 3770W        W17184   5.678   4.220  15.917  0.2457 -0.0676 -0.0304
 3771W        W17185  12.143   4.563  13.860 -0.3474 -0.1825 -0.0861
 3772W        W17186   4.752  11.671   1.916 -0.1092  0.0755  0.0887
 3773W        W17187   4.572  10.212   1.525 -0.0373  0.0577 -0.4531
 3774W        W17188  13.306   1.941  14.274 -0.1136 -0.1131 -0.2976
 3775W        W17189  17.056   9.397   0.719  0.0398  0.1300 -0.0896
 3776W        W17190   2.070   7.646   5.989  0.0015 -0.1839 -0.0374
 3777W        W17191   0.568  14.343  13.682  0.0559 -0.0820  0.0164
 3778W        W17192   8.910  16.361  16.159 -0.1739  0.3534 -0.0888
 3779W        W17193  15.558   2.045   5.094 -0.2080 -0.0599 -0.2854
 3780W        W17194   1.172   8.342   4.478  0.0020 -0.2564  0.1804
 3781W        W17195   8.602   2.451  13.451  0.0266 -0.2885  0.1747
 3782W        W17196   8.079  10.642  10.470 -0.1134  0.0890  0.1911
 3783W        W17197   4.761  11.386   3.856  0.2045  0.1294 -0.0740
 3784W        W17198   9.695   6.327  12.828  0.2493 -0.4386 -0.1555
 3785W        W17199  13.589  14.128  15.605 -0.4316  0.0265  0.2107
 3786W        W17200   1.353   9.550  16.126  0.1352 -0.0886 -0.3375
 3787W        W17201   7.420  16.888  11.685 -0.1491 -0.2050  0.0991
 3788W        W17202   2.623  12.631  13.648  0.1268  0.1637  0.1962
 3789W        W17203   3.037  14.292  10.810 -0.0062 -0.0569  0.0376
 3790W        W17204  14.040  14.028   0.541  0.0373  0.0297  0.3940
 3791W        W17205  12.356   4.840  14.256 -0.4022 -0.1581  0.0165
 3792W        W17206   0.369  10.453  11.099  0.1746  0.0623 -0.0522
 3793W        W17207   9.193   8.457   0.169  0.1621  0.0871 -0.2231
 3794W        W17208  15.930  10.190   4.179  0.0921 -0.1886  0.0385
 3795W        W17209   2.195  14.349  15.586  0.2743  0.0378  0.1897
 3796W        W17210  15.950   7.620  15.343  0.0988 -0.0442 -0.1831
 3797W        W17211   6.100   7.902  13.956  0.1020 -0.0779  0.1291
 3798W        W17212   5.407  12.115   6.134  0.2265 -0.2728 -0.3247
 3799W        W17213   8.646   5.439   1.440 -0.1255 -0.0469 -0.1382
 3800W        W17214   4.994  13.702   1.608 -0.1492  0.2382  0.0428
 3801W        W17215   0.710  18.256   0.495  0.1354  0.1123 -0.1230
 3802W        W17216  13.724   0.714   1.683 -0.4106  0.2587  0.0909
 3803W        W17217  12.154  16.903   3.417 -0.1339  0.0050  0.1187
 3804W        W17218  13.002  13.765  14.021  0.2709 -0.1499  0.1098
 3805W        W17219   3.427  14.331   3.510  0.3933  0.0247  0.2255
 3806W        W17220   4.095   3.300   4.184  0.0669  0.1767 -0.1563
 3807W        W17221  14.580   8.111  11.176  0.1332 -0.3999 -0.0977
 3808W        W17222  17.978  14.837  16.038  0.0563  0.1742  0.3249
 3809W        W17223   6.310   3.944  11.999 -0.0510 -0.3300 -0.0289
 3810W        W17224  12.613  17.718   4.661  0.1083  0.3098 -0.0425
 3811W        W17225   8.609   2.462  10.774  0.0698  0.2403  0.0145
 3812W        W17226  18.086   5.250  14.391 -0.3003  0.3295  0.1201
 3813W        W17227   9.771   7.195   1.983 -0.3900 -0.0023 -0.0024
 3814W        W17228  14.957  17.464  15.136 -0.3841  0.0578  0.1174
 3815W        W17229  13.451  13.367   6.054  0.1941 -0.0971  0.0619
 3816W        W17230  10.107   5.149  11.235  0.2459  0.1362 -0.0704
 3817W        W17231   0.789   1.201   0.830  0.2294  0.1458 -0.1070
 3818W        W17232   5.280   5.319  12.122 -0.2037 -0.1090 -0.0276
 3819W        W17233   1.164   8.246  11.582  0.0187 -0.1724 -0.3013
 3820W        W17234  13.139   5.047  11.437  0.0012 -0.0589  0.0959
 3821W        W17235   4.875   0.696  15.805 -0.1268  0.0578 -0.0244
 3822W        W17236  14.443   9.044  11.758  0.0656  0.1370 -0.1853
 3823W        W17237  12.877   7.244   2.279  0.1953 -0.1741 -0.2516
 3824W        W17238  12.435  17.538  11.807  0.0832  0.0144 -0.0922
 3825W        W17239  15.885   7.467   3.092  0.3467 -0.1395  0.0310
 3826W        W17240   1.892  10.728  14.402 -0.2479  0.0937  0.0035
 3827W        W17241  15.600  14.312  13.513 -0.2188 -0.0624 -0.3777
 3828W        W17242   5.127  17.466   1.938  0.1944 -0.0606 -0.2023
 3829W        W17243   5.244  17.049   0.314  0.0508  0.1788  0.1966
 3830W        W17244   4.573   0.464   1.212 -0.0708  0.3060 -0.2446
 3831W        W17245   1.391  10.742  10.137 -0.1840  0.2085 -0.0800
 3832W        W17246  12.710   2.431  12.176  0.0485 -0.0662  0.0834
 3833W        W17247   4.218   1.648  13.480  0.1858 -0.2268  0.2122
 3834W        W17248   8.159   4.836   1.107  0.1103  0.0655  0.3047
 3835W        W17249   7.861  15.223   0.979  0.2930  0.3014  0.0268
 3836W        W17250   1.811   2.841   5.424  0.2699  0.1777  0.0631
 3837W        W17251   2.211  12.752  10.687  0.0613  0.0081 -0.1607
 3838W        W17252   5.495   0.527   0.919 -0.0663  0.0083 -0.0311
 3839W        W17253  10.634  15.367   5.164 -0.0986 -0.2360  0.1313
 3840W        W17254  14.365  10.895  15.571  0.1444 -0.3886 -0.0143
 3841W        W17255  15.382   3.443  14.557  0.2107  0.2506 -0.1251
 3842W        W17256   5.835  12.883   3.450 -0.0574 -0.0262 -0.3554
 3843W        W17257   5.960  16.546  14.156  0.1915 -0.1874 -0.0076
 3844W        W17258  13.004   8.099   2.554 -0.1541 -0.3127 -0.2759
 3845W        W17259  10.477  15.964   9.977 -0.1417 -0.1800  0.0603
 3846W        W17260   5.684  15.636  12.904  0.1855  0.0133  0.0185
 3847W        W17261   6.107   7.345  10.212  0.1306  0.0536 -0.0074
 3848W        W17262   8.248   7.577   5.752  0.2977  0.0031  0.1396
 3849W        W17263   1.625  14.168   4.000  0.0238 -0.0459 -0.3348
 3850W        W17264  14.805   5.330   2.367  0.1741  0.0835  0.2633
 3851W        W17265  12.005   7.423   0.073  0.0887 -0.0075  0.3373
 3852W        W17266  17.115  11.957  16.398  0.0931 -0.1967 -0.1933
 3853W        W17267  18.028   9.912  15.941 -0.3498 -0.2235 -0.2800
 3854W        W17268  11.634  11.958   6.264 -0.3966  0.2239  0.2903
 3855W        W17269   9.244   6.999  11.857  0.1961 -0.1923  0.2172
 3856W        W17270  18.040   2.741   0.472  0.0486  0.1963 -0.3677
 3857W        W17271  15.679  14.519   2.074  0.2974  0.1618  0.1125
 3858W        W17272   4.352   8.145   0.268  0.3974 -0.1015  0.5779
 3859W        W17273  17.066   9.694  13.444  0.2056 -0.1986 -0.4682
 3860W        W17274  17.023  11.290  13.343 -0.0125  0.0785 -0.2416
 3861W        W17275   5.822   2.861   3.397  0.2635  0.1274  0.1047
 3862W        W17276  17.628   8.908   2.904 -0.1665 -0.0065 -0.0065
 3863W        W17277  12.904   4.940  15.404 -0.3544  0.0007 -0.0822
 3864W        W17278   7.846   8.673   1.777  0.0188 -0.1762 -0.0543
 3865W        W17279   5.410  16.918   3.331  0.1137  0.0915  0.0932
 3866W        W17280  15.049   7.280   2.246  0.2477 -0.0499 -0.1858
 3867W        W17281   6.479  13.774   1.460 -0.2708 -0.1816 -0.0754
 3868W        W17282   3.551   4.818   1.155 -0.0035 -0.0180  0.0642
 3869W        W17283   2.593   8.635  15.481  0.1465 -0.1424 -0.0700
 3870W        W17284  11.236   1.405   0.637 -0.3111  0.4111  0.0420
 3871W        W17285  12.789  15.797  15.992 -0.0595  0.0147  0.0510
 3872W        W17286  13.955   0.156   5.753  0.4111 -0.1149 -0.3269
 3873W        W17287   6.871   3.770  11.063  0.4231  0.0158 -0.2758
 3874W        W17288   4.836  17.196   5.088 -0.0656 -0.0810 -0.1012
 3875W        W17289   4.357   9.459   0.712 -0.0985 -0.0665 -0.1870
 3876W        W17290   6.895   0.774  15.932 -0.3369  0.2656 -0.0860
 3877W        W17291  10.860  12.679  10.935 -0.1848 -0.2810 -0.1651
 3878W        W17292  11.179   8.320   2.416 -0.1877 -0.1614 -0.1372
 3879W        W17293  18.004   4.844  12.521 -0.2193 -0.1270 -0.1067
 3880W        W17294  12.973   7.451   4.617  0.0203 -0.0228  0.1473
 3881W        W17295  11.407  12.426  14.108 -0.0177  0.0299 -0.0144
 3882W        W17296  13.451   1.304  15.644  0.2770  0.0598  0.1035
 3883W        W17297   0.442   2.566   5.087  0.1732  0.0122  0.1218
 3884W        W17298   2.870   6.231  15.141 -0.0834  0.3207  0.0734
 3885W        W17299  17.292  13.953   2.230 -0.0493 -0.2476 -0.0402
 3886W        W17300   2.572  16.679   0.421 -0.1910  0.0884 -0.0160
 3887W        W17301   7.661   6.516  10.621  0.2131  0.0594  0.0587
 3888W        W17302  15.043   3.454   2.309 -0.2328 -0.0648 -0.2751
 3889W        W17303  15.070  12.724   6.028 -0.1830  0.0936 -0.0938
 3890W        W17304   1.138   3.046   2.741 -0.0781 -0.0896  0.2627
 3891W        W17305   6.560  16.971  16.198 -0.4000 -0.2818  0.1054
 3892W        W17306  10.414  10.305  11.930  0.0064 -0.3270 -0.2376
 3893W        W17307  10.434   0.597  11.135  0.0025  0.0553 -0.1989
 3894W        W17308   9.364  14.931   3.968  0.0311  0.0141  0.2434
 3895W        W17309   4.392   3.096  12.078  0.1019  0.1568  0.0324
 3896W        W17310   3.065   9.544   3.114 -0.0182  0.0474 -0.0188
 3897W        W17311   2.891   8.700   2.136  0.0296  0.3590 -0.1323
 3898W        W17312  11.824   9.909  11.890 -0.5724  0.0625 -0.0164
 3899W        W17313  16.302  18.226  14.786 -0.5317  0.0265  0.1200
 3900W        W17314  14.605   9.583  16.401 -0.1249 -0.1282  0.2755
 3901W        W17315  10.244   1.589  12.033  0.0159 -0.1047 -0.1479
 3902W        W17316  10.155  18.392   5.160  0.1602  0.0416 -0.0767
 3903W        W17317  18.064   5.096  15.371 -0.0086  0.0053  0.1279
 3904W        W17318  12.551   6.595   2.316  0.2537  0.0829 -0.2789
 3905W        W17319  12.575   8.463  11.489  0.0390 -0.1813 -0.2817
 3906W        W17320  12.693   1.022   0.169 -0.3656 -0.0705  0.0939
 3907W        W17321  14.989   8.000   1.923  0.2154 -0.1095  0.2860
 3908W        W17322   0.275   6.185  13.775 -0.3447 -0.1273 -0.0879
 3909W        W17323   8.915  15.914  11.963 -0.0921  0.0329 -0.4223
 3910W        W17324  16.962   5.608  15.794 -0.4577  0.1701  0.1615
 3911W        W17325   6.823   6.065  15.779  0.3408  0.0106  0.1600
 3912W        W17326  15.672  10.361   4.600 -0.1016  0.0205  0.1102
 3913W        W17327  10.254  10.921   0.833 -0.1449  0.0826 -0.1313
 3914W        W17328  16.094  15.409   6.485 -0.1887 -0.0940  0.2339
 3915W        W17329   0.952  12.459  12.682  0.1257  0.3242 -0.2013
 3916W        W17330  15.171  16.683  13.690 -0.0139  0.0616  0.1708
 3917W        W17331   0.927   0.518   4.012 -0.2391 -0.0379 -0.2485
 3918W        W17332   3.821  14.406   3.917  0.1258  0.2281 -0.1240
 3919W        W17333   5.872   6.144  11.001  0.1284  0.2682  0.0945
 3920W        W17334  17.232   7.377   5.070 -0.2335 -0.1501 -0.3562
 3921W        W17335   5.316   3.088  15.955  0.1296 -0.1226 -0.0525
 3922W        W17336   0.661  14.037   3.138 -0.1508 -0.1637 -0.2020
 3923W        W17337  14.193  15.064   2.087 -0.1131 -0.0790  0.1060
 3924W        W17338   8.028   9.898   1.401 -0.1979  0.1724  0.2164
 3925W        W17339   0.823  12.738   2.769  0.1793  0.2960  0.0443
 3926W        W17340   4.219   6.719   0.098  0.0106  0.0814  0.5442
 3927W        W17341  13.493   8.223   2.221 -0.0557 -0.2886  0.0280
 3928W        W17342   1.954  17.519   1.551  0.0179 -0.2066  0.1709
 3929W        W17343   9.436   2.365   3.292  0.1867  0.0403 -0.3395
 3930W        W17344  14.007  11.323   6.217  0.2952 -0.0482 -0.1716
 3931W        W17345   0.553  16.598  15.065 -0.3369 -0.1235  0.1229
 3932W        W17346   1.365  10.893  14.343 -0.0165 -0.1060 -0.1265
 3933W        W17347  15.858   5.116  16.280  0.0496  0.4028 -0.2207
 3934W        W17348   9.464   5.820   4.166 -0.1577 -0.1581 -0.0861
 3935W        W17349   7.616  12.283   4.343  0.0170  0.0940 -0.0230
 3936W        W17350  10.995  14.935  11.182 -0.1670 -0.3168 -0.2979
 3937W        W17351   9.465  17.308  10.582 -0.4727 -0.0805 -0.2673
 3938W        W17352  16.299   2.023   2.372  0.1060 -0.1058  0.1088
 3939W        W17353   2.670  16.429  16.177  0.3131 -0.0770  0.4187
 3940W        W17354  17.150  12.296  14.492 -0.0697 -0.2404 -0.2976
 3941W        W17355   6.591  10.877   2.292 -0.4019  0.1308 -0.2208
 3942W        W17356   0.979  15.072   6.713  0.0789 -0.1511  0.2583
 3943W        W17357  17.043   8.552  14.285  0.3769  0.0514 -0.0154
 3944W        W17358  13.530  13.882   0.609 -0.1839 -0.1663  0.0219
 3945W        W17359   3.671  18.208  12.251 -0.2739 -0.0423  0.1119
 3946W        W17360   3.006   7.762  14.354  0.0188  0.1059 -0.0559
 3947W        W17361   1.325   9.064  13.495  0.2382  0.0825  0.2170
 3948W        W17362   8.706   1.623  11.271  0.0233 -0.2233 -0.1079
 3949W        W17363   9.266  13.878  10.853 -0.1247  0.0009 -0.2443
 3950W        W17364  11.728  17.821  10.200 -0.0057  0.0497  0.1788
 3951W        W17365   5.748   6.902  11.592  0.2616  0.1903  0.0406
 3952W        W17366  11.780   0.420   1.524 -0.5149 -0.0759  0.0554
 3953W        W17367   6.492  10.459  13.831  0.1678 -0.0040  0.1164
 3954W        W17368  16.008  14.252   5.903 -0.3509 -0.1555 -0.0011
 3955W        W17369  12.466  16.959  15.246 -0.1419  0.2002  0.1340
 3956W        W17370   0.920   2.661  15.402  0.1459  0.1201 -0.0413
 3957W        W17371   5.172   5.851   4.892  0.1426  0.2141 -0.0045
 3958W        W17372  10.399  11.255  12.452  0.0936 -0.1136  0.2560
 3959W        W17373  12.260   5.898   5.057 -0.1893  0.0427 -0.1687
 3960W        W17374   3.883   2.645   1.451 -0.2112  0.2228  0.0188
 3961W        W17375  12.124   6.986  10.860  0.2246  0.2815 -0.0928
 3962W        W17376   2.150   3.517   1.139 -0.0296 -0.2524 -0.0842
 3963W        W17377  15.316   4.195  12.535 -0.1916 -0.1042 -0.0140
 3964W        W17378  13.020  14.044  16.326  0.1609 -0.1239 -0.2116
 3965W        W17379  12.810   7.283   5.086  0.2955  0.1315  0.1891
 3966W        W17380  17.316  10.406   0.566 -0.4285 -0.0869  0.0025
 3967W        W17381  16.245  17.399   5.990  0.1315 -0.0670  0.2858
 3968W        W17382  15.445   3.224   5.055 -0.0059 -0.1072 -0.6383
 3969W        W17383   0.028   8.426   0.806 -0.0106 -0.0718 -0.3105
 3970W        W17384  13.100  17.587   4.568  0.2437  0.2843 -0.0955
 3971W        W17385  15.374  12.715  16.235  0.3229 -0.1398  0.1795
 3972W        W17386   1.408  11.047   4.792 -0.0614 -0.2299  0.2799
 3973W        W17387   6.776  14.176   3.442  0.1431  0.1215  0.3338
 3974W        W17388   3.960   4.056   0.715 -0.0237 -0.1045 -0.0379
 3975W        W17389  10.321   1.252  12.927 -0.0334  0.0280 -0.0120
 3976W        W17390  14.092   4.679  12.926  0.2775 -0.3241  0.0794
 3977W        W17391  15.478  15.716  14.507  0.1654 -0.1617  0.1775
 3978W        W17392  11.741   2.337  11.857  0.0681  0.0152 -0.1631
 3979W        W17393  12.051   0.891  12.826  0.3783 -0.1774  0.1677
 3980W        W17394   6.811   1.970  13.642  0.0665 -0.0351  0.0301
 3981W        W17395  15.313  12.577   3.399 -0.0582  0.0874 -0.0710
 3982W        W17396   3.380   1.096   3.127 -0.0590 -0.0401 -0.0700
 3983W        W17397   3.255   9.024   2.142  0.1969 -0.2934  0.2351
 3984W        W17398   7.522  10.993   0.110  0.1503 -0.1359  0.0760
 3985W        W17399   3.748  13.856  15.450 -0.3198 -0.1196 -0.0738
 3986W        W17400   0.696  16.585   6.429  0.3148  0.2572 -0.2625
 3987W        W17401  11.711  15.798  15.456  0.0984 -0.4785  0.1019
 3988W        W17402  12.914   8.355  14.212 -0.1251  0.1302 -0.1849
 3989W        W17403  16.031  17.801   0.194 -0.0590  0.0517 -0.1863
 3990W        W17404   8.906   6.160  12.220 -0.1644 -0.1294 -0.3999
 3991W        W17405   8.119   5.677  14.085 -0.0493 -0.3851 -0.3547
 3992W        W17406  10.088  18.148  13.690  0.0308  0.0252  0.0191
 3993W        W17407   6.678  15.222   5.477 -0.2178  0.3408 -0.1670
 3994W        W17408   1.478   1.612   3.732  0.0257 -0.0068  0.2114
 3995W        W17409   2.841   7.614   0.128 -0.0786  0.1526 -0.0230
 3996W        W17410  11.105   0.214  14.860 -0.2981 -0.2345 -0.2882
 3997W        W17411   8.143   4.389   0.415  0.1058 -0.0230  0.1812
 3998W        W17412   9.698   8.582  14.319  0.2650 -0.2374  0.3741
 3999W        W17413  10.744   1.597  15.753 -0.2781 -0.0086  0.0800
 4000W        W17414  15.566  15.952  15.325 -0.1707 -0.3129  0.2575
 4001W        W17415  17.138   8.957   2.341 -0.0926  0.0383  0.0596
 4002W        W17416   5.421   4.777  16.028 -0.1112 -0.2038  0.0835
 4003W        W17417   3.271   4.179   4.971 -0.0308 -0.0434 -0.0127
 4004W        W17418  16.459  14.072   1.285 -0.0464 -0.1045 -0.0125
 4005W        W17419   4.210   4.161  11.910  0.3783  0.0569 -0.4029
 4006W        W17420   8.765   6.401   2.683 -0.2576 -0.0551 -0.2478
 4007W        W17421  13.408  17.863  14.420 -0.0004  0.1120 -0.0369
 4008W        W17422   4.770   9.662   0.559  0.0993 -0.3261 -0.3186
 4009W        W17423  13.197  17.595  11.075 -0.2314 -0.1476 -0.3322
 4010W        W17424  12.376   5.855  13.344  0.2421 -0.1406 -0.2811
 4011W        W17425   6.102  15.605  15.123  0.3474  0.2085  0.1884
 4012W        W17426  16.663  12.007   6.135  0.0014 -0.3508  0.1130
 4013W        W17427   0.392   0.388   1.319  0.0002  0.0797 -0.3285
 4014W        W17428   4.994   7.441  13.033  0.0795  0.3269 -0.0328
 4015W        W17429  11.011   2.239  11.473  0.1399  0.1924 -0.0415
 4016W        W17430  17.256   3.715   3.815 -0.1855 -0.0680  0.0886
 4017W        W17431   7.003   9.290   0.497 -0.3261 -0.0446  0.1538
 4018W        W17432   4.997  15.171   1.441 -0.0864 -0.1729  0.0266
 4019W        W17433   9.517   5.025  14.031 -0.0542  0.0595  0.0734
 4020W        W17434  16.773  12.178   5.130  0.1091  0.1383 -0.2256
 4021W        W17435  14.066   7.945   2.183 -0.1518 -0.0524  0.1086
 4022W        W17436   1.988  14.551   5.226  0.2014  0.1571 -0.1810
 4023W        W17437   5.297   2.833  15.289  0.3792 -0.0140 -0.0844
 4024W        W17438   8.792  15.134  13.932 -0.0273  0.2290  0.0094
 4025W        W17439  15.061   4.438   1.494 -0.0907 -0.0529 -0.1008
 4026W        W17440   8.115  13.907  12.286 -0.5310 -0.0493 -0.0191
 4027W        W17441   2.229  18.354  16.195  0.2445  0.1149  0.0854
 4028W        W17442   0.695   1.882   2.376  0.0732 -0.1223 -0.1562
 4029W        W17443  15.611   2.039  15.875 -0.2114  0.1426  0.2671
 4030W        W17444  10.864   2.070  15.665  0.2583 -0.0689  0.3085
 4031W        W17445   7.670   3.526  14.753 -0.1932  0.0714 -0.1423
 4032W        W17446  16.656  15.792  11.740 -0.2087 -0.3750  0.1941
 4033W        W17447   2.031  16.240   3.400 -0.2556 -0.0341 -0.2124
 4034W        W17448   9.351  16.692   4.530  0.0098 -0.2183 -0.1913
 4035W        W17449  16.558   5.001  12.935  0.1627  0.3475  0.0458
 4036W        W17450   7.263   4.398   4.714  0.1575  0.0274  0.1632
 4037W        W17451   5.373  10.664  10.745 -0.0895  0.0744 -0.0635
 4038W        W17452   8.706  10.138  11.564 -0.1291 -0.2353 -0.3426
 4039W        W17453  14.805  18.021   5.769  0.0980  0.0593 -0.1597
 4040W        W17454  17.372   5.317   4.988  0.0609 -0.0305  0.0543
 4041W        W17455   5.630  11.056   4.283 -0.0022 -0.2106  0.0841
 4042W        W17456  15.431  16.908  15.111  0.1497 -0.1045 -0.1997
 4043W        W17457   6.299  15.459   4.869 -0.3113 -0.1478 -0.0326
 4044W        W17458  15.741   2.504  10.042 -0.0838 -0.1632 -0.1118
 4045W        W17459  11.963  11.543   5.797  0.1501 -0.1365  0.0084
 4046W        W17460   3.079  12.618   3.242 -0.1794  0.3869 -0.0744
 4047W        W17461  17.673  11.168   2.989  0.3060  0.2785 -0.1149
 4048W        W17462   9.388   8.412  11.375  0.1423  0.4424  0.1038
 4049W        W17463  15.928   7.110  15.652  0.2229  0.0168  0.0493
 4050W        W17464   2.750  16.725   3.914 -0.0152  0.1318  0.1090
 4051W        W17465   4.610  15.221   6.354 -0.1021 -0.1227  0.3315
 4052W        W17466  15.591  11.171  16.302  0.1984  0.0716  0.2585
 4053W        W17467  17.009  10.317   4.800 -0.0882 -0.0941 -0.1981
 4054W        W17468  17.060   8.843  10.536 -0.1542 -0.3671  0.0910
 4055W        W17469   1.790  17.512   5.842 -0.2362 -0.0317 -0.2761
 4056W        W17470  12.270   5.908  15.604  0.1990 -0.2498  0.3504
 4057W        W17471  18.354  12.713   4.637 -0.1033  0.1835 -0.0432
 4058W        W17472   7.273  13.774   0.403 -0.3032 -0.0399  0.1837
 4059W        W17473  15.091  10.424  14.894  0.2356 -0.4874  0.0461
 4060W        W17474  12.525   6.150  15.239 -0.0838  0.0338  0.2444
 4061W        W17475  16.611   4.391  14.869  0.0468  0.0584 -0.2008
 4062W        W17476  14.390   8.396   0.074 -0.0339 -0.1308  0.1317
 4063W        W17477   5.381  14.241  13.757  0.0045 -0.2691  0.1662
 4064W        W17478   9.844  14.580  12.341  0.0116  0.1253 -0.1952
 4065W        W17479  16.997  15.997   3.124 -0.1277 -0.0688  0.1353
 4066W        W17480  13.372   8.072  11.111  0.0478  0.1291 -0.2201
 4067W        W17481   4.377   1.202  14.132 -0.1082  0.0666  0.0881
 4068W        W17482   7.054   4.590   0.619 -0.0596  0.0824  0.1361
 4069W        W17483  13.764   2.491  13.230 -0.1422  0.0708 -0.0646
 4070W        W17484  10.151  15.876  15.752 -0.0668 -0.1025  0.5072
 4071W        W17485  13.997   1.120   1.638  0.0707  0.0823  0.2632
 4072W        W17486   0.067   3.260   2.773  0.0489 -0.1146 -0.0280
 4073W        W17487   6.626   0.714  11.771 -0.2621 -0.2099  0.4513
 4074W        W17488   4.916   6.083  16.435  0.0526 -0.0156  0.0289
 4075W        W17489  13.579   2.879  14.030  0.1656  0.2043  0.2996
 4076W        W17490  12.782   4.962   0.000 -0.0970  0.1085 -0.1094
 4077W        W17491   5.771   9.232  14.287 -0.0661 -0.0922  0.1070
 4078W        W17492  15.600  15.249   1.142 -0.0166 -0.0828  0.3006
 4079W        W17493   4.460  11.641  10.923  0.0197  0.1950  0.3139
 4080W        W17494   6.609  12.847  12.989  0.4482  0.2491  0.3339
 4081W        W17495  13.955  17.711  14.240 -0.1687 -0.4409 -0.2358
 4082W        W17496   4.635   3.761   2.862 -0.1473 -0.2275 -0.1887
 4083W        W17497  12.232  13.301  11.785  0.0386 -0.0135 -0.1659
 4084W        W17498   6.769  15.520   5.032 -0.1195 -0.0683  0.2324
 4085W        W17499  17.412   6.296  13.314 -0.2324 -0.4080 -0.0447
 4086W        W17500   5.691  13.357   6.320  0.2694  0.2990 -0.1297
 4087W        W17501  10.942   2.273  13.397 -0.1074 -0.0562  0.1154
 4088W        W17502   0.145   5.114   5.441  0.0962  0.0546  0.2023
 4089W        W17503   0.875  17.689   3.784  0.0310  0.2181 -0.1238
 4090W        W17504   3.545  14.646   4.977 -0.2162 -0.0552 -0.2274
 4091W        W17505   2.920   0.971  10.482 -0.1407 -0.0581 -0.0239
 4092W        W17506  15.128   1.746  16.002 -0.0103  0.2829 -0.2129
 4093W        W17507   9.352  14.811   5.044 -0.0972  0.0698 -0.1125
 4094W        W17508  17.238  11.254   0.408  0.0454  0.0097  0.2878
 4095W        W17509  14.609   5.968  15.448  0.1929  0.2232 -0.0319
 4096W        W17510   3.042   9.850   5.160 -0.0037 -0.0850  0.1918
 4097W        W17511  16.783   5.473  11.503 -0.0361 -0.3177  0.1839
 4098W        W17512  10.166  13.175   4.857 -0.2169 -0.1606  0.1534
 4099W        W17513  14.703   3.641   6.219  0.2359 -0.1283  0.1954
 4100W        W17514   1.549   1.965   5.567  0.0724  0.3737  0.2385
 4101W        W17515  13.152  12.299   5.897  0.2441 -0.3942 -0.0158
 4102W        W17516  17.995  10.937  10.759 -0.1301 -0.1066  0.1731
 4103W        W17517  17.891  12.426   0.303  0.0315  0.3308  0.1000
 4104W        W17518   3.471  16.288  12.043  0.0255 -0.0497 -0.0523
 4105W        W17519   8.725  16.173  15.011  0.1252  0.1086 -0.0796
 4106W        W17520  11.110  14.771  15.522  0.0834 -0.2273 -0.1038
 4107W        W17521   3.942  11.132  14.920 -0.1453 -0.1615  0.2547
 4108W        W17522   3.380  13.847   5.288  0.0576  0.1532  0.1183
 4109W        W17523  12.226   0.554  13.745 -0.1813  0.0647 -0.1387
 4110W        W17524  10.825   1.914  13.860 -0.1642 -0.1335  0.1344
 4111W        W17525   7.202   9.401   2.156 -0.0830 -0.1197 -0.1474
 4112W        W17526   7.326   8.830  10.666 -0.1490  0.0974 -0.0511
 4113W        W17527  18.276   2.185   1.279 -0.2035  0.0429  0.0945
 4114W        W17528  11.327   8.532  14.909  0.0111  0.2860 -0.1935
 4115W        W17529   1.730   2.750   2.627 -0.2644  0.1792 -0.1512
 4116W        W17530   8.724  15.873   1.574 -0.0618  0.0007  0.0972
 4117W        W17531  15.626  10.016   0.898  0.2391  0.1232  0.0844
 4118W        W17532   2.177   4.508   3.983 -0.1498 -0.1484  0.0462
 4119W        W17533   3.143  15.410  13.795  0.1496  0.2071  0.1134
 4120W        W17534   0.146  17.232   1.748 -0.0886  0.1238 -0.1787
 4121W        W17535   5.404  18.163   5.489 -0.0041 -0.0060 -0.0652
 4122W        W17536  12.782   2.632  11.601  0.0605 -0.2447 -0.0139
 4123W        W17537   7.982  17.838  11.089  0.1399  0.2946  0.0494
 4124W        W17538  10.493  12.851  15.641  0.4029 -0.1710  0.0995
 4125W        W17539  12.729   6.560   4.098  0.0640  0.1408 -0.0804
 4126W        W17540   2.134  10.115   0.059  0.0817  0.1457  0.3186
 4127W        W17541  15.019  15.401  16.372 -0.2196 -0.0511  0.2330
 4128W        W17542   2.707   2.154  16.148 -0.0549  0.0904 -0.0040
 4129W        W17543  16.564   3.361  13.117  0.2173 -0.2086  0.0169
 4130W        W17544   8.121   5.693   1.024  0.0082 -0.1436  0.3398
 4131W        W17545   5.037   4.653  11.043  0.2602  0.0864  0.0201
 4132W        W17546  17.532  13.000   4.345  0.2070 -0.0941 -0.1162
 4133W        W17547  13.800  15.556   1.188  0.0261  0.0582 -0.2821
 4134W        W17548   9.505  15.317   1.869 -0.0718 -0.2424 -0.0743
 4135W        W17549  13.135   1.612   2.127 -0.0799 -0.0116 -0.0188
 4136W        W17550   8.774   2.657   5.458  0.0282  0.0690  0.0805
 4137W        W17551  12.848  15.242  12.961 -0.0508  0.2520 -0.1279
 4138W        W17552   4.674   2.525  11.300 -0.1872  0.1447 -0.0668
 4139W        W17553   2.296  11.878   1.339 -0.1055 -0.3351  0.4443
 4140W        W17554  17.384  13.281   3.841  0.0725 -0.0271 -0.1455
 4141W        W17555  17.107  11.153   1.834  0.0935 -0.0592  0.0994
 4142W        W17556   2.821  12.028  11.696  0.1406 -0.1584 -0.1223
 4143W        W17557   8.363  16.356   3.366 -0.1298 -0.0222 -0.0767
 4144W        W17558  13.178   7.037  14.637 -0.0842 -0.0584 -0.0427
 4145W        W17559   4.195   8.123  15.097  0.1229 -0.2180 -0.1389
 4146W        W17560   1.095   3.022   4.529 -0.3199  0.3566  0.2605
 4147W        W17561   7.736   5.634   3.633  0.1555  0.0519 -0.2733
 4148W        W17562   3.915   1.926   6.034  0.2639 -0.2355  0.0302
 4149W        W17563   1.021  10.502  14.979 -0.4369 -0.0749 -0.1010
 4150W        W17564  15.700   9.606   2.079  0.0518  0.0874 -0.1339
 4151W        W17565   0.932  17.449   0.995 -0.0310  0.1711  0.1245
 4152W        W17566   0.337  16.447   6.780  0.1457  0.0293  0.1320
 4153W        W17567  15.766   2.802  12.332 -0.3411 -0.3177 -0.2198
 4154W        W17568   9.991  15.161   0.996  0.3428 -0.3198 -0.2179
 4155W        W17569  14.149   3.285   3.157  0.0016 -0.0329 -0.2158
 4156W        W17570   7.510  16.686   0.680 -0.4741 -0.1079 -0.1976
 4157W        W17571   0.525  11.766   0.164 -0.2335 -0.0892 -0.1602
 4158W        W17572  11.292   8.398   5.174  0.2448 -0.1171 -0.2150
 4159W        W17573  17.656   1.990  14.462  0.1938 -0.2173 -0.0029
 4160W        W17574  13.386  12.140  14.017  0.0208 -0.0582 -0.0426
 4161W        W17575   5.292   8.473  14.598 -0.1909  0.2271 -0.1076
 4162W        W17576  13.301   4.466   5.432  0.0672  0.0972  0.1417
 4163W        W17577  13.611  10.928   3.791 -0.5671 -0.0624 -0.1776
 4164W        W17578   6.723  12.031  10.649  0.1342  0.2851  0.0376
 4165W        W17579  13.957  10.331  11.075 -0.0979  0.0628  0.1709
 4166W        W17580   0.442  17.403   2.426  0.1844  0.0021  0.0118
 4167W        W17581   7.949  17.025  15.296 -0.0811 -0.0417  0.1103
 4168W        W17582   5.969  11.799   3.771  0.0744  0.0669 -0.1808
 4169W        W17583   4.647  15.415  15.968  0.0940 -0.1769 -0.2260
 4170W        W17584  12.051   9.975   2.756  0.3365 -0.1039  0.1018
 4171W        W17585   4.282   2.449   3.272 -0.2129  0.0698 -0.1479
 4172W        W17586   7.808  11.380  11.957 -0.0022 -0.2991  0.1606
 4173W        W17587   8.624  13.833  13.632  0.0923 -0.3069 -0.1055
 4174W        W17588   2.267   3.145   5.737 -0.2111 -0.1327 -0.0657
 4175W        W17589   6.224  12.107  16.467  0.0988 -0.3296 -0.2538
 4176W        W17590   9.236  18.272  11.597  0.0333 -0.0477 -0.1190
 4177W        W17591  13.393  18.150   0.832  0.1147 -0.0864 -0.0170
 4178W        W17592   7.431  12.738   1.293 -0.2682 -0.1046  0.0949
 4179W        W17593   0.148   7.193   3.956 -0.0780  0.0646  0.1350
 4180W        W17594  14.355   4.569  13.761 -0.2318  0.2055 -0.0857
 4181W        W17595  16.022   3.344   3.409 -0.1058 -0.1118  0.2409
 4182W        W17596   7.346  17.449  10.696 -0.3683 -0.1643 -0.0292
 4183W        W17597  15.721   7.039  14.313  0.3477  0.0102 -0.0719
 4184W        W17598   8.860   0.622  13.111 -0.2965 -0.1818  0.2018
 4185W        W17599  13.911   9.987   1.865  0.0849 -0.2581  0.0501
 4186W        W17600   7.959  17.612  13.602 -0.0008  0.3314  0.1577
 4187W        W17601  10.238   0.412  11.550  0.0872  0.1154  0.0757
 4188W        W17602   0.467  15.286   5.615 -0.0113 -0.2824 -0.0381
 4189W        W17603   6.250  17.369  13.419 -0.1566  0.0593  0.3675
 4190W        W17604  12.455   0.064  15.599  0.1213  0.0111 -0.1697
 4191W        W17605   3.639  13.467  15.743 -0.0392 -0.0938  0.1582
 4192W        W17606  12.027  10.051  13.489  0.1226 -0.0943 -0.1417
 4193W        W17607  16.206  10.900   5.894 -0.1180 -0.2502 -0.0616
 4194W        W17608   4.522   2.726  16.364  0.3958 -0.1669 -0.2362
 4195W        W17609  11.541   9.958  14.816  0.3206  0.2059 -0.3605
 4196W        W17610  10.466   5.083   5.050 -0.1504  0.1250 -0.4649
 4197W        W17611  13.446   7.152   2.284 -0.2823 -0.2123 -0.4260
 4198W        W17612  12.163  11.180   4.161 -0.1112 -0.0634  0.0139
 4199W        W17613   1.542  14.982  11.101 -0.1946 -0.0585  0.1890
 4200W        W17614   5.480   2.211  15.913 -0.2494 -0.0252  0.3386
 4201W        W17615   6.289  10.876   1.823  0.2642  0.0182  0.1297
 4202W        W17616  13.518   2.942   5.786 -0.2671  0.4674 -0.0515
 4203W        W17617  18.336  14.009  15.191 -0.1765  0.5103  0.1362
 4204W        W17618   9.642  13.164  16.068 -0.1497  0.0271  0.3049
 4205W        W17619   5.104   0.607  15.268 -0.0423 -0.0685  0.0317
 4206W        W17620  10.172   3.679  10.277  0.0232 -0.1698  0.1175
 4207W        W17621   8.232   3.289  11.544  0.0445  0.3112 -0.3682
 4208W        W17622  16.499   2.141  13.479  0.2290 -0.3422  0.0388
 4209W        W17623   0.755   1.321  16.303  0.2885  0.0837  0.0484
 4210W        W17624   2.147   2.334   6.622  0.4227 -0.0190 -0.0084
 4211W        W17625   1.376  15.576   0.014 -0.0930  0.0844 -0.2371
 4212W        W17626   6.043  12.514   3.066  0.1691  0.0994  0.1005
 4213W        W17627  10.760  17.310   2.677  0.1156  0.0897  0.1068
 4214W        W17628   5.144   8.333   5.268 -0.1222  0.2101 -0.1454
 4215W        W17629   2.086  14.503   2.754  0.2047  0.0319 -0.4222
 4216W        W17630   0.489   2.569  14.490 -0.2948 -0.3484  0.3130
 4217W        W17631   2.673   7.527  12.094 -0.0772 -0.0274 -0.1617
 4218W        W17632  14.263  11.284  16.118  0.1704  0.0664  0.1661
 4219W        W17633   0.588   6.810   4.509 -0.2648 -0.1343  0.3064
 4220W        W17634   4.446  14.157  14.100  0.0694 -0.0313  0.0358
 4221W        W17635  17.971   2.876  16.477 -0.3344  0.0312  0.2815
 4222W        W17636   5.297   0.320   3.339 -0.1939  0.3768  0.1044
 4223W        W17637   0.121  17.703   2.143 -0.1169 -0.3296 -0.0532
 4224W        W17638   1.396  11.296  15.587  0.0167 -0.3655 -0.1664
 4225W        W17639  14.274   4.327  14.550 -0.3650 -0.0462  0.0537
 4226W        W17640   4.884  10.957   3.070  0.1997 -0.2414  0.1361
 4227W        W17641  17.935   6.762  11.161  0.0879 -0.1676 -0.1493
 4228W        W17642  16.226   4.762   3.299 -0.0316  0.1652  0.1059
 4229W        W17643  11.898   9.733  13.075  0.0099 -0.2355 -0.2551
 4230W        W17644  17.970   5.578  11.777 -0.0861  0.1085 -0.2552
 4231W        W17645   1.310  12.471   1.546 -0.3173  0.2606 -0.1558
 4232W        W17646  16.528   8.270   5.275  0.1087  0.1423  0.1524
 4233W        W17647   9.571   6.095  13.233  0.2131  0.2027  0.0409
 4234W        W17648  13.073  15.521  14.946  0.2966 -0.2007  0.3534
 4235W        W17649   0.535   0.965   3.584 -0.0458  0.3212  0.3395
 4236W        W17650  16.729  13.463   3.302 -0.2725  0.0495  0.1073
 4237W        W17651  16.932  15.342  12.017  0.0712 -0.0726  0.3081
 4238W        W17652  10.295   9.462   1.181 -0.0662  0.1134 -0.1785
 4239W        W17653  13.342  10.025   1.894  0.1652  0.0056  0.0099
 4240W        W17654   7.350   5.000  15.440 -0.0212  0.2422 -0.1829
 4241W        W17655   1.806   4.655   4.873 -0.0316  0.2561  0.0866
 4242W        W17656  13.046   8.767   5.881 -0.0536  0.1497 -0.1210
 4243W        W17657   3.722   6.308  12.525 -0.2130  0.0200  0.0303
 4244W        W17658  12.995  11.183   0.206  0.0834 -0.0431  0.0004
 4245W        W17659   2.581  13.715   0.372 -0.1733 -0.0385  0.1449
 4246W        W17660  13.901   0.847  16.312  0.0382  0.0277 -0.1040
 4247W        W17661   7.797  11.161  15.034 -0.0270 -0.1926  0.2026
 4248W        W17662  12.224   1.326  10.863  0.0334 -0.0897  0.1375
 4249W        W17663   9.332   2.354  11.597  0.1365  0.0682 -0.3595
 4250W        W17664  15.712  10.462  13.297 -0.0938  0.0820  0.1923
 4251W        W17665  14.624  10.378  14.628  0.0986 -0.1569  0.0339
 4252W        W17666   4.348   1.004   1.489 -0.2093  0.5300 -0.1915
 4253W        W17667  17.386   0.079   1.100  0.1976 -0.0295 -0.1001
 4254W        W17668   6.052   9.945   0.024 -0.1676  0.0164 -0.2342
 4255W        W17669   5.691   8.410   3.019  0.0324 -0.0579  0.0351
 4256W        W17670  10.549   9.163  11.216 -0.0279  0.1810  0.0740
 4257W        W17671  17.762  11.979   2.058 -0.4144 -0.0957 -0.0342
 4258W        W17672   0.444  16.895  13.167 -0.1167 -0.2663 -0.1371
 4259W        W17673   0.418  10.538   4.502 -0.0939  0.0016 -0.0511
 4260W        W17674  11.964   3.616   2.488  0.1332 -0.2425  0.1334
 4261W        W17675  10.805  15.715   4.157  0.3352 -0.4048 -0.0583
 4262W        W17676   2.369   2.271   1.932  0.1838  0.3224 -0.1777
 4263W        W17677   4.814  10.582   4.860  0.0186  0.1088  0.0868
 4264W        W17678   7.927   4.324  14.789 -0.2595  0.0438 -0.2555
 4265W        W17679   5.124   2.795  16.455  0.2792 -0.0354 -0.1241
 4266W        W17680  10.604  17.462  11.986  0.0840 -0.3175 -0.1764
 4267W        W17681  17.162  12.960   5.238  0.1149 -0.2095  0.1110
 4268W        W17682   1.403   0.735   0.021 -0.4234 -0.1060  0.2064
 4269W        W17683   2.938   6.924   1.692  0.1610  0.1505  0.1102
 4270W        W17684   1.746   1.341   2.352 -0.0640 -0.0091 -0.0729
 4271W        W17685  14.142   9.041  13.462 -0.0665  0.2269 -0.3084
 4272W        W17686  16.358   3.932   0.762  0.2732 -0.0696 -0.0154
 4273W        W17687   8.240   2.611   0.656  0.1577 -0.1188  0.0735
 4274W        W17688  18.380   6.009   4.571  0.0546 -0.1495  0.3337
 4275W        W17689  15.856   5.688   1.900  0.2369 -0.0048 -0.3267
 4276W        W17690  18.066  14.959   5.529  0.2815  0.0080 -0.0974
 4277W        W17691   1.847  17.997   5.309 -0.2267  0.1200  0.1406
 4278W        W17692  17.993   6.921  12.365 -0.0117 -0.3877 -0.0215
 4279W        W17693   0.455   6.403  15.808 -0.0242 -0.1822 -0.3760
 4280W        W17694  10.249   8.274   0.551 -0.0428  0.2015 -0.0782
 4281W        W17695  15.597  12.617  14.588  0.1355 -0.0210 -0.0561
 4282W        W17696   6.344   7.993   1.495  0.1463  0.0249  0.0296
 4283W        W17697   2.971   4.285  12.258 -0.0464  0.4444 -0.4990
 4284W        W17698   0.202  15.117  13.554 -0.0261 -0.2313  0.2976
 4285W        W17699  16.637  17.559  15.309 -0.0263 -0.0176 -0.2854
 4286W        W17700  12.866   4.307   5.353  0.3426 -0.0647  0.2569
 4287W        W17701  14.171  17.398  11.511 -0.0330 -0.0648  0.1441
 4288W        W17702   3.851   5.111   4.388  0.0458 -0.0383 -0.0733
 4289W        W17703   5.469  17.804   3.088  0.2485  0.3231 -0.2837
 4290W        W17704  14.513   7.444  12.531  0.1109 -0.0654 -0.2374
 4291W        W17705  16.488  13.455   6.630  0.1977 -0.1173 -0.1175
 4292W        W17706   6.798   5.072  11.257 -0.0797 -0.1688 -0.1178
 4293W        W17707  14.857   3.795   4.187  0.1130 -0.1431  0.1128
 4294W        W17708  16.025   5.855  11.911 -0.1332  0.0060 -0.2998
 4295W        W17709  12.445   2.411   0.813 -0.0313  0.2170 -0.1196
 4296W        W17710  18.376   0.285   4.863  0.3706  0.0633 -0.1950
 4297W        W17711   8.612   7.663  11.752  0.2067 -0.3880 -0.0361
 4298W        W17712  11.630  10.906   3.020  0.1589 -0.2173 -0.1513
 4299W        W17713  13.771   6.858   4.178 -0.0527 -0.1612  0.0030
 4300W        W17714   7.246   3.188  10.742  0.1757 -0.0068  0.0256
 4301W        W17715  17.724  10.306  14.806 -0.1041  0.0094  0.0308
 4302W        W17716  12.478  12.407  15.226  0.0714 -0.0858  0.3796
 4303W        W17717  15.750   4.594   3.873  0.2092 -0.1007  0.1061
 4304W        W17718   6.669  17.055   2.329  0.2063 -0.1291  0.1054
 4305W        W17719  10.195   5.789   2.948 -0.3073 -0.2037 -0.2122
 4306W        W17720   7.720   9.737   0.047  0.0112  0.0061 -0.1441
 4307W        W17721   3.744   7.959  13.591  0.0715  0.2503 -0.1741
 4308W        W17722   7.541   9.084   5.592 -0.0415  0.1033  0.0796
 4309W        W17723  16.547  15.176   4.812  0.1535  0.3868  0.0148
 4310W        W17724   8.683   4.087  12.517  0.1126  0.0229  0.0133
 4311W        W17725   6.184   2.063  12.181 -0.1948 -0.2140 -0.2574
 4312W        W17726   2.122   9.485  12.877 -0.0539  0.1119 -0.3811
 4313W        W17727  17.227   9.046  13.788  0.0669  0.0912 -0.0676
 4314W        W17728  15.861  16.918  14.142 -0.1475  0.0144  0.0625
 4315W        W17729   8.257  16.409   4.068  0.1770 -0.0004  0.1905
 4316W        W17730  12.450  15.011   0.525 -0.0476 -0.0151  0.2912
 4317W        W17731  10.636   4.032  12.107 -0.0909 -0.2523  0.1315
 4318W        W17732  12.735  10.166  14.196  0.1583  0.0845  0.0635
 4319W        W17733   2.453   5.010   4.150  0.1188 -0.0221 -0.0418
 4320W        W17734  12.152  10.806   0.399 -0.3604  0.0167  0.1594
 4321W        W17735   5.858   1.058   1.525  0.1965  0.1493 -0.3165
 4322W        W17736  12.962   9.386  14.782  0.5555 -0.1592  0.1626
 4323W        W17737   0.321   6.701  13.653  0.0443 -0.0013 -0.2916
 4324W        W17738   4.028   5.040   1.223 -0.0251  0.0890 -0.1652
 4325W        W17739  12.632  14.376  13.186 -0.0736 -0.0387  0.1601
 4326W        W17740  12.242  15.614  11.439  0.0029 -0.0591 -0.2111
 4327W        W17741   0.457  12.457  12.163 -0.3126  0.3224  0.0495
 4328W        W17742   4.618   1.226   6.174 -0.0570  0.2187 -0.2875
 4329W        W17743  10.229   5.830  16.191  0.0620 -0.2183 -0.1609
 4330W        W17744   4.107   9.878   2.547  0.1173 -0.1901 -0.1324
 4331W        W17745  13.787   4.215   0.451 -0.4006  0.1727  0.1624
 4332W        W17746  10.931   4.756  11.146 -0.3162  0.0689  0.1149
 4333W        W17747  17.834   5.745  12.757 -0.2687  0.0728  0.0999
 4334W        W17748  15.302  17.347   4.172 -0.1080 -0.0595  0.2481
 4335W        W17749  14.743   8.162  12.311 -0.0106 -0.0005  0.1983
 4336W        W17750   6.768   7.311  12.297 -0.0172  0.2646  0.0033
 4337W        W17751  14.619  15.271   0.829 -0.0094 -0.0254 -0.1899
 4338W        W17752   8.276  18.254  11.194  0.2946 -0.1071  0.1604
 4339W        W17753   0.479   1.331  14.905  0.1037 -0.0338 -0.2049
 4340W        W17754   1.550   4.155  12.226  0.0821  0.1259  0.1844
 4341W        W17755  13.942   8.522   2.798 -0.0179 -0.1241  0.0940
 4342W        W17756   9.994   4.151  14.229  0.0639  0.1392  0.2157
 4343W        W17757  13.963  12.249   2.145  0.0733  0.1052  0.1282
 4344W        W17758   9.851   5.500   1.513  0.0887  0.0941 -0.1345
 4345W        W17759  14.376   0.763   3.578  0.2767 -0.0315  0.2502
 4346W        W17760   1.189   1.070  13.453 -0.0712 -0.0395 -0.0196
 4347W        W17761   9.767  14.338  11.081 -0.2653  0.4546 -0.1935
 4348W        W17762   0.577  13.230   2.745  0.0718 -0.0742  0.0315
 4349W        W17763  17.923   9.033  15.286  0.1390  0.3368  0.0198
 4350W        W17764   5.044   8.744   5.592 -0.2732 -0.1497  0.2210
 4351W        W17765  11.120  17.000   0.954 -0.1050 -0.3540  0.1606
 4352W        W17766   7.210  13.321   6.641  0.1120  0.1126  0.1689
 4353W        W17767   6.603  15.376   3.828 -0.0290 -0.1140  0.0426
 4354W        W17768  16.080  15.668  13.417 -0.1195  0.2409 -0.0432
 4355W        W17769   6.107   5.754  12.079  0.1093  0.1100  0.2699
 4356W        W17770  12.477   6.557  14.849  0.0448 -0.1298 -0.0338
 4357W        W17771  10.068   0.389   0.369 -0.0992  0.2820  0.0396
 4358W        W17772   5.994  17.400  15.024 -0.0895  0.1187 -0.1352
 4359W        W17773  15.066   3.247   1.493  0.0670 -0.2026  0.1744
 4360W        W17774   1.822  16.225  15.229 -0.1062  0.1790  0.0146
 4361W        W17775  16.421   3.661  16.290  0.2918 -0.0725  0.2153
 4362W        W17776  18.317   2.609  11.706  0.0071 -0.1836  0.1400
 4363W        W17777  15.277   2.590  15.227  0.0784 -0.2121 -0.0616
 4364W        W17778  12.720   9.540  15.555 -0.0737 -0.0590 -0.0758
 4365W        W17779  17.613   2.984   1.375  0.1777 -0.0867  0.0616
 4366W        W17780   7.485  18.285   1.114  0.3257 -0.1922  0.0334
 4367W        W17781  11.840   3.630   1.569 -0.1685 -0.0641  0.3034
 4368W        W17782   2.506   9.174  16.354  0.3474 -0.1036  0.0974
 4369W        W17783  10.578  12.156  14.668  0.2448  0.3487 -0.0689
 4370W        W17784  16.756   5.136  15.776 -0.1704 -0.0500 -0.3839
 4371W        W17785   5.020   5.410   0.391  0.2815  0.1352  0.1819
 4372W        W17786  16.717   0.978  15.861  0.4832  0.1192 -0.0796
 4373W        W17787   5.374   4.682   3.524 -0.1810  0.1253 -0.0030
 4374W        W17788  17.035   4.506  15.229 -0.2964  0.0591 -0.2836
 4375W        W17789   1.008  12.999  15.179 -0.1969 -0.0850 -0.0935
 4376W        W17790   2.383   5.193  12.807 -0.1501  0.0825 -0.0133
 4377W        W17791  17.299   2.312   3.081  0.3345  0.3053  0.0113
 4378W        W17792   1.506   0.482   4.435 -0.2459  0.0696 -0.1945
 4379W        W17793   1.372   1.021   5.564 -0.0168 -0.2874  0.0752
 4380W        W17794  16.285   1.803   0.082 -0.0070  0.0457 -0.3185
 4381W        W17795   8.604   5.289   4.191 -0.1249 -0.0569  0.1932
 4382W        W17796  18.107   9.633   1.859 -0.0482  0.0210  0.1099
 4383W        W17797   1.583  14.401   2.969  0.2246  0.2854 -0.3382
 4384W        W17798   1.918  13.893  15.612 -0.2283  0.1337 -0.0732
 4385W        W17799   4.913   0.960   2.901 -0.0002 -0.1635  0.1160
 4386W        W17800  13.010   2.155  11.776  0.2011 -0.0270 -0.5160
 4387W        W17801   6.879  17.536   5.962 -0.1382  0.3126 -0.4761
 4388W        W17802  11.866   0.826   0.314 -0.5560  0.0931  0.0126
 4389W        W17803  15.868  17.141   5.234 -0.2364  0.0179 -0.4334
 4390W        W17804  12.186  16.680   2.598  0.0444  0.1756 -0.1834
 4391W        W17805   7.044  17.390   0.790 -0.1737 -0.0288 -0.0573
 4392W        W17806   8.547   7.341   0.185 -0.2228 -0.0404 -0.0202
 4393W        W17807  16.030  17.144   3.689 -0.1084  0.1161  0.1379
 4394W        W17808   0.201   8.880  12.855  0.0438 -0.1485  0.0015
 4395W        W17809   9.651   9.496   4.060 -0.1108 -0.1455 -0.4287
 4396W        W17810   5.814  15.268  13.649 -0.2360  0.0127 -0.1760
 4397W        W17811  18.038  13.793   6.234 -0.0772 -0.0976  0.2207
 4398W        W17812   6.116  18.331  15.337 -0.0046 -0.3475 -0.0446
 4399W        W17813  13.490   0.603  14.554 -0.3477  0.0378  0.0457
 4400W        W17814  10.767   5.201   1.858 -0.0576  0.2302 -0.0483
 4401W        W17815  17.793  17.652  16.154 -0.1908 -0.1850 -0.0551
 4402W        W17816  12.990  10.155  13.265 -0.0669  0.1040  0.0927
 4403W        W17817  14.738   7.185  14.055 -0.0800  0.0401  0.2241
 4404W        W17818   8.508  16.514  15.861 -0.0139  0.0901 -0.0785
 4405W        W17819  10.765   3.480   3.971  0.0452  0.0804  0.0609
 4406W        W17820  10.105   7.382   6.001  0.1039 -0.1831  0.0632
 4407W        W17821   1.759  10.091  14.459 -0.1289  0.2219  0.1414
 4408W        W17822  17.119  13.887  14.828 -0.0019 -0.1091 -0.4002
 4409W        W17823   6.061  17.272  13.864  0.0163  0.0207 -0.0263
 4410W        W17824  16.370  13.101  14.758 -0.0370 -0.0861  0.1691
 4411W        W17825   0.778  14.455   3.380  0.0195  0.0809  0.2501
 4412W        W17826  14.255   8.519  14.532  0.5507 -0.2600 -0.2491
 4413W        W17827   1.487  14.046   5.936  0.1618  0.1895  0.0241
 4414W        W17828  16.062   5.695  16.014  0.1582  0.1513 -0.1810
 4415W        W17829  11.798  13.481   0.688 -0.1793  0.1950  0.0563
 4416W        W17830   6.729  15.650   3.048  0.0602  0.2203 -0.1187
 4417W        W17831   1.865  15.456  11.016 -0.0696 -0.3607 -0.0343
 4418W        W17832  14.270  12.395  14.227  0.2387  0.2892  0.2279
 4419W        W17833   9.197   2.897  14.543  0.1190  0.0452 -0.0930
 4420W        W17834  11.142  16.391   1.943 -0.0477 -0.4169 -0.2580
 4421W        W17835   2.719  17.599   5.045 -0.3341  0.0776 -0.2553
 4422W        W17836   3.381   2.236   4.290 -0.4545  0.1217 -0.3731
 4423W        W17837   0.781   9.498  11.026 -0.0262 -0.2000  0.0381
 4424W        W17838  11.244  16.469   0.996 -0.0669  0.1485 -0.3456
 4425W        W17839   2.322   8.617  16.392  0.1374 -0.0058  0.1870
 4426W        W17840   9.358  13.562   3.308  0.2009  0.2471 -0.1528
 4427W        W17841   8.400  13.166  14.468 -0.2482  0.2103  0.3336
 4428W        W17842  14.177   8.476  11.730  0.3358  0.2734 -0.1805
 4429W        W17843  15.136   8.062  13.105 -0.1420  0.2124  0.1777
 4430W        W17844  12.125  10.843  15.144  0.2286  0.1263 -0.0834
 4431W        W17845   9.700   7.660   2.965 -0.4058 -0.0066  0.1472
 4432W        W17846  16.238   9.568   9.450  0.2703  0.3100  0.3132
 4433W        W17847  14.505   6.271  10.464  0.1084 -0.1940 -0.1025
 4434W        W17848   0.378   2.319   1.553  0.2397 -0.0949 -0.0036
 4435W        W17849  17.048   6.647  14.730  0.0923  0.2055 -0.1460
 4436W        W17850  12.121  11.271  13.139  0.1334 -0.0133 -0.0540
 4437W        W17851  11.313  17.985   0.597 -0.2092  0.2904 -0.2861
 4438W        W17852   5.457  12.084   5.669  0.0604 -0.2404  0.1758
 4439W        W17853  13.995   6.424   1.913 -0.2398 -0.0650 -0.4094
 4440W        W17854  17.549  18.253   2.151  0.1730 -0.2414  0.2053
 4441W        W17855   2.358  10.796   3.547  0.1569  0.2055 -0.2905
 4442W        W17856   8.583   5.642   5.622 -0.2406  0.0036 -0.2679
 4443W        W17857   3.972  14.109  13.816 -0.0443  0.1651  0.1598
 4444W        W17858  14.253  16.289  16.013  0.0639 -0.1011 -0.0248
 4445W        W17859  10.216   6.148  12.075  0.0811 -0.0821 -0.2974
 4446W        W17860  14.911  16.744   6.166 -0.0836 -0.1211 -0.3352
 4447W        W17861   9.438  14.611   3.574 -0.2665 -0.0853  0.3724
 4448W        W17862   6.144  18.235  14.766  0.1933 -0.2216  0.1755
 4449W        W17863   1.074   2.019   4.006 -0.0620  0.0572 -0.0921
 4450W        W17864   9.606   1.327  14.826 -0.0040  0.1118  0.1109
 4451W        W17865  10.231  17.668  13.809  0.3660 -0.0812  0.4109
 4452W        W17866   7.539   5.253   4.495 -0.4072 -0.4624  0.0074
 4453W        W17867  13.797  17.680  10.594 -0.1520 -0.0464  0.2206
 4454W        W17868  10.796  10.059  11.678 -0.0641  0.2093  0.3111
 4455W        W17869  10.735   1.927   3.663  0.1691  0.2060  0.5041
 4456W        W17870   8.474  13.564   1.762  0.0435 -0.1813  0.2853
 4457W        W17871  17.901   7.577   5.273 -0.0090 -0.1264  0.0023
 4458W        W17872   0.679  16.429   4.407 -0.3362  0.2107 -0.0081
 4459W        W17873   0.468   6.283  14.571 -0.2714  0.1389 -0.2228
 4460W        W17874  12.058   7.969  13.528 -0.1092 -0.2416 -0.2739
 4461W        W17875  13.069   0.005  15.850 -0.0228  0.1641 -0.1757
 4462W        W17876  13.357  18.222   4.193 -0.0604  0.2310 -0.3218
 4463W        W17877  10.091  13.612  16.051  0.2302  0.0454 -0.1907
 4464W        W17878  11.723   0.642  13.803 -0.5736 -0.1621  0.0399
 4465W        W17879  16.121  15.886   4.134 -0.0149  0.3564  0.2577
 4466W        W17880   5.278   3.458  12.588  0.2236  0.0684  0.2191
 4467W        W17881  10.894  12.134   0.479 -0.2452 -0.1917 -0.0525
 4468W        W17882  12.947  10.860   4.390 -0.0117 -0.2496 -0.0211
 4469W        W17883   8.838   5.245  10.782 -0.0145  0.1664 -0.0794
 4470W        W17884  13.949   3.351   1.291  0.2055 -0.1373  0.1857
 4471W        W17885   8.437  10.831   3.867  0.1687  0.3957  0.0625
 4472W        W17886   8.161  16.657  16.160  0.2577  0.1939 -0.2559
 4473W        W17887  12.013  18.207   0.054 -0.1739 -0.1165 -0.3851
 4474W        W17888  11.266   7.890  16.036  0.1219 -0.0644 -0.1436
 4475W        W17889   9.333   9.021  15.647  0.2213 -0.0045 -0.2522
 4476W        W17890  11.809  13.078  15.228 -0.0221  0.2887  0.1935
 4477W        W17891  15.762   9.341   2.931 -0.1533 -0.0511 -0.3148
 4478W        W17892   6.465   0.822  10.812  0.1014  0.1267  0.1242
 4479W        W17893  13.896  12.062  15.443 -0.0464  0.2134  0.1212
 4480W        W17894   3.765   3.912   4.913  0.1188 -0.5072 -0.3818
 4481W        W17895  13.229   0.487  14.117  0.0098 -0.1893 -0.0833
 4482W        W17896   4.280  15.572   4.831 -0.1006  0.1668  0.0786
 4483W        W17897   0.029   5.798   5.799 -0.0606  0.1468  0.2550
 4484W        W17898   8.344  17.139   1.415 -0.0924 -0.1277 -0.2410
 4485W        W17899  16.265   9.074  10.456  0.1477  0.1774  0.0620
 4486W        W17900  17.380   0.203   3.701  0.0068 -0.1748  0.0216
 4487W        W17901  15.854  17.058  14.810 -0.0855  0.0099  0.0716
 4488W        W17902  10.733  14.039   2.454  0.0115 -0.0972  0.3150
 4489W        W17903  11.106   7.315  14.761 -0.1084 -0.0747 -0.0102
 4490W        W17904  16.113   5.892  16.466  0.1215  0.1587 -0.1021
 4491W        W17905  10.191  12.632   5.477  0.2277 -0.2437  0.0567
 4492W        W17906  16.037   8.566  14.155  0.1156 -0.1248  0.0650
 4493W        W17907  17.857  13.280   1.300 -0.1770  0.2825 -0.0122
 4494W        W17908   8.056   9.896  16.233 -0.2536 -0.2920  0.3087
 4495W        W17909   9.004   9.069   2.730 -0.5765 -0.2007 -0.0735
 4496W        W17910   4.319  12.008  14.104 -0.1187 -0.0817 -0.1072
 4497W        W17911   1.118   8.121  15.413 -0.3059  0.0949 -0.0009
 4498W        W17912   6.822  10.173   2.995 -0.1196 -0.2729 -0.0731
 4499W        W17913   9.805   6.477  15.474  0.0579  0.1429  0.1116
 4500W        W17914  18.373   4.459  16.128 -0.0243  0.0732 -0.4708
 4501W        W17915   8.378  11.274   3.607  0.1838  0.0732  0.0213
 4502W        W17916  14.181   0.317  10.475 -0.1586 -0.2544  0.3141
 4503W        W17917  17.764  13.354   3.477 -0.1185  0.0118  0.4262
 4504W        W17918   3.194   7.088   5.538  0.1110  0.0406 -0.1177
 4505W        W17919   6.551  16.834   4.571  0.2153 -0.0559 -0.1051
 4506W        W17920   1.308  11.563  13.317  0.0165  0.0380  0.1975
 4507W        W17921   2.913  13.149  15.163  0.3793  0.0350  0.1902
 4508W        W17922   9.886   7.006   3.965 -0.3040 -0.1428 -0.0501
 4509W        W17923  10.214   2.459   2.458  0.0506 -0.2928  0.1639
 4510W        W17924   1.515   7.688  11.296  0.1054 -0.1668  0.4312
 4511W        W17925  15.073   2.723  11.141  0.0574 -0.2839  0.2146
 4512W        W17926   3.854   7.613  15.188  0.0487 -0.1668  0.0671
 4513W        W17927   6.568   5.038   3.983  0.2590  0.3041 -0.1259
 4514W        W17928  12.021   3.433  12.554  0.2138 -0.3174  0.0030
 4515W        W17929   5.252  17.263  14.499  0.1823  0.2395  0.0460
 4516W        W17930   3.780   0.614  16.480  0.0480 -0.4094 -0.1663
 4517W        W17931   2.501   4.451  10.331  0.0472  0.0721  0.0722
 4518W        W17932   4.982  10.526   1.555  0.1311 -0.2354 -0.0747
 4519W        W17933   8.911  15.115   0.246  0.0230 -0.2638  0.1005
 4520W        W17934  16.835   7.754  11.303 -0.1476  0.0158  0.2336
 4521W        W17935  12.567   2.087   5.979  0.0415  0.2116  0.1300
 4522W        W17936   1.100   1.180  15.330  0.2053 -0.3950 -0.1435
 4523W        W17937   1.903  14.054   2.876 -0.0088 -0.0621 -0.0527
 4524W        W17938  13.236   4.778  16.271  0.2682 -0.1712 -0.0507
 4525W        W17939  13.761  13.928   5.145  0.0374 -0.0444  0.0818
 4526W        W17940   1.122   0.663   5.323 -0.2397  0.1451 -0.1653
 4527W        W17941  17.453   9.460  12.321  0.0320 -0.0662 -0.0852
 4528W        W17942   6.418   9.554   0.010  0.0331 -0.3346  0.1823
 4529W        W17943   3.932  11.220  15.408  0.1811  0.1544 -0.1751
 4530W        W17944   8.368   3.257   1.932  0.3396  0.2084  0.0472
 4531W        W17945   0.737   8.632   4.651 -0.0388  0.2262 -0.2664
 4532W        W17946   5.240   2.264   3.464  0.1756 -0.0323  0.0206
 4533W        W17947  14.628   2.211   2.580  0.4163  0.0716 -0.2494
 4534W        W17948   5.362   4.265   2.171  0.0113 -0.1439 -0.0261
 4535W        W17949   0.398   5.765  12.827 -0.0647  0.0691 -0.0039
 4536W        W17950   1.255  15.025   2.909  0.1949  0.2298  0.0562
 4537W        W17951   4.999  11.084  11.795 -0.1051  0.3731  0.1327
 4538W        W17952   1.877   8.225  12.054  0.0542 -0.0903  0.1645
 4539W        W17953   1.055   5.869   5.926 -0.0644 -0.2008  0.0406
 4540W        W17954  17.368  16.446   0.284 -0.0333  0.1355  0.4033
 4541W        W17955   0.816  12.469   1.768 -0.0737  0.0510 -0.0898
 4542W        W17956  12.031  15.294   1.445 -0.0927 -0.0921 -0.1218
 4543W        W17957   7.015  13.754  14.003  0.0739  0.3656  0.1516
 4544W        W17958   1.269   8.224  14.649 -0.2136  0.2045 -0.0894
 4545W        W17959  18.379   1.175   1.694  0.1902 -0.2827 -0.0199
 4546W        W17960   2.830   9.233   2.153  0.0106  0.2492 -0.0457
 4547W        W17961   7.804  17.459  16.365  0.0564 -0.0879 -0.0110
 4548W        W17962  14.074  12.482  15.613  0.0463  0.3171  0.4300
 4549W        W17963   1.863  11.729   1.252 -0.0521 -0.1364 -0.0643
 4550W        W17964   6.419   4.103  11.434  0.0039 -0.0579  0.2965
 4551W        W17965   0.151  16.354  15.030  0.3811 -0.0688 -0.0109
 4552W        W17966  17.314   7.918   2.296  0.0744 -0.2645 -0.2881
 4553W        W17967   0.368  17.962   2.467  0.2096 -0.4073  0.1257
 4554W        W17968  15.384  10.899  14.805 -0.0987 -0.3486  0.2974
 4555W        W17969   9.795  11.175   1.166  0.1352  0.0648  0.1288
 4556W        W17970   1.009   4.474  16.308  0.1035  0.0115 -0.1396
 4557W        W17971  15.080   1.410  13.499  0.0724  0.2632 -0.0821
 4558W        W17972  16.545   9.668   4.902  0.0237  0.2004  0.1194
 4559W        W17973  16.096   0.589   0.948  0.0064  0.0752 -0.1440
 4560W        W17974   2.366  14.577   6.198 -0.0915  0.0331 -0.1656
 4561W        W17975  13.899   2.714  10.848  0.2400  0.1006  0.0010
 4562W        W17976   0.973   7.437   5.128 -0.2301 -0.3039  0.2519
 4563W        W17977   6.923   6.599  13.123 -0.0069  0.0923  0.1081
 4564W        W17978   1.304   1.355  12.055  0.0040 -0.0465  0.2515
 4565W        W17979  10.529  17.365  14.683  0.2260  0.1563 -0.2254
 4566W        W17980  15.522  14.510   1.144 -0.0927  0.1212  0.1659
 4567W        W17981  10.352   0.627  15.634 -0.1063 -0.0651 -0.0405
 4568W        W17982  16.119  16.508   2.943 -0.2850 -0.2702 -0.0554
 4569W        W17983  17.092  15.733  16.093  0.0828  0.3209  0.4984
 4570W        W17984  13.633  14.767   3.224 -0.0479  0.0909  0.0983
 4571W        W17985   4.606   6.215  11.824 -0.1961  0.0021 -0.0049
 4572W        W17986   4.391   3.027  12.988 -0.2990  0.0626 -0.2340
 4573W        W17987  12.131   5.855  14.391  0.2804 -0.3896  0.0602
 4574W        W17988   4.088   8.194  16.370 -0.1622  0.0248  0.0249
 4575W        W17989   2.044   3.330  14.268 -0.0611  0.0211  0.1381
 4576W        W17990   6.121  15.782   2.655  0.0419 -0.1066  0.4310
 4577W        W17991  17.453   1.814   3.108 -0.0668 -0.1055 -0.0123
 4578W        W17992   2.583  17.379   2.619 -0.0049 -0.2167 -0.0281
 4579W        W17993  18.172   4.067  12.917 -0.0719 -0.3460 -0.1237
 4580W        W17994  12.319   3.612  12.945 -0.0320  0.1331  0.1433
 4581W        W17995   4.905   3.732  13.124 -0.1299 -0.1150  0.4641
 4582W        W17996  13.902   6.955  10.051  0.3732 -0.0674 -0.1106
 4583W        W17997   7.205  12.267  13.381  0.1098 -0.1992  0.2107
 4584W        W17998  11.603   9.895  11.494  0.1982 -0.0213 -0.0475
 4585W        W17999  17.000  17.677   5.599 -0.0128  0.2621 -0.0442
 4586W        W18000   5.612  12.104  16.509 -0.0104  0.2489  0.1587
 4587W        W18001   4.741  17.166   0.595 -0.1257 -0.0409 -0.2097
 4588W        W18002   5.437   7.507  10.672  0.0825  0.1100 -0.1398
 4589W        W18003  13.360  14.147  14.384  0.2061 -0.3093  0.1035
 4590W        W18004  15.360   0.020   3.362  0.3702 -0.2208  0.0504
 4591W        W18005  17.841   5.353   4.799 -0.1970  0.0325 -0.2755
 4592W        W18006   4.446  13.269  14.675 -0.1602  0.0079  0.1002
 4593W        W18007   1.853   6.442   2.202 -0.1548 -0.0450 -0.0581
 4594W        W18008  11.437   2.887   3.121 -0.1609  0.0483 -0.1009
 4595W        W18009   6.075  15.626   4.387  0.1235  0.0014  0.2183
 4596W        W18010  13.642   8.399   5.666  0.2678  0.1316 -0.0182
 4597W        W18011   5.332   0.837   5.368 -0.0707  0.2625  0.0005
 4598W        W18012  12.963   5.312  15.069 -0.0083  0.1744 -0.0787
 4599W        W18013  13.688   4.366   1.009  0.0673 -0.4004 -0.3002
 4600W        W18014  14.121   4.909   2.968 -0.2434  0.2886 -0.1112
 4601W        W18015  12.670   7.909  14.658  0.3873 -0.0267 -0.1888
 4602W        W18016  12.685  14.388   2.226 -0.1165 -0.0391  0.2649
 4603W        W18017   6.576   9.621  13.340 -0.2532  0.3748  0.1896
 4604W        W18018   0.555   5.036  13.916  0.2618  0.2211 -0.0407
 4605W        W18019   9.994  15.935  13.384  0.1692 -0.1496 -0.1662
 4606W        W18020  17.670  10.492   0.949 -0.0233  0.0358  0.0252
 4607W        W18021  13.057  11.173  12.453  0.0582  0.3535 -0.1246
 4608W        W18022   5.901   5.620  11.016  0.1110 -0.0334 -0.1071
 4609W        W18023  12.184   1.618  16.203  0.0891 -0.1626  0.1333
 4610W        W18024   7.078   0.864  14.628  0.0252  0.0527  0.1949
 4611W        W18025  13.269  10.855   0.426 -0.0866  0.2352 -0.0724
 4612W        W18026  12.937   0.268  14.877 -0.0428 -0.1119  0.3641
 4613W        W18027   8.283   6.077   5.656 -0.1513 -0.2482  0.0869
 4614W        W18028  12.620   2.186  11.408  0.1787  0.2392  0.2077
 4615W        W18029   1.614  17.652  13.950 -0.1093 -0.2203  0.0742
 4616W        W18030  18.071   3.748  15.562 -0.3019 -0.0200  0.0248
 4617W        W18031  12.455   9.044  13.167  0.2297  0.1606 -0.1498
 4618W        W18032  10.130  13.663   4.653 -0.1480 -0.1792  0.0814
 4619W        W18033   3.273   1.431  11.242  0.0058  0.1785 -0.3777
 4620W        W18034   2.962  16.459   0.076 -0.1790 -0.2405 -0.2632
 4621W        W18035   2.363   1.159   3.138  0.2021 -0.1829 -0.2139
 4622W        W18036   3.203  13.392  14.062  0.0194 -0.3712  0.0810
 4623W        W18037  17.787  16.511   5.373  0.1907  0.0837  0.2070
 4624W        W18038   7.541   7.342  13.960 -0.2361 -0.2323  0.0836
 4625W        W18039  17.972  15.578   6.665 -0.0962 -0.0079 -0.5546
 4626W        W18040  11.066  13.112   2.241  0.0639  0.0400 -0.0931
 4627W        W18041  11.703  17.598  10.940 -0.0506  0.0976 -0.1086
 4628W        W18042   9.942   5.070  14.272 -0.1007  0.2471  0.0520
 4629W        W18043   6.925  18.031  13.433 -0.0455  0.1164  0.1351
 4630W        W18044  16.789   1.647  13.444  0.4741  0.0381  0.3293
 4631W        W18045  15.108   4.557  10.958  0.0036 -0.3420 -0.2099
 4632W        W18046  14.582  10.649  15.153  0.0002 -0.1591  0.0653
 4633W        W18047   3.892  12.979   2.404  0.3060 -0.2422  0.0418
 4634W        W18048   7.552  10.810   0.571 -0.1541 -0.1519  0.1484
 4635W        W18049  16.815  17.271   0.346  0.0278  0.0689  0.3155
 4636W        W18050   6.827  14.148   2.928  0.0610 -0.1287  0.0295
 4637W        W18051   6.438  10.876  11.242 -0.0833 -0.0241 -0.3304
 4638W        W18052   4.193   7.838  12.783  0.0381  0.0277  0.0121
 4639W        W18053   1.355  17.741   1.419  0.0133 -0.1273  0.2106
 4640W        W18054   9.082  15.149  10.764 -0.2534 -0.1720  0.0988
 4641W        W18055  15.442   0.817  15.726  0.2942  0.1144  0.2675
 4642W        W18056   6.155   6.072  15.136 -0.0929 -0.1985 -0.1011
 4643W        W18057  17.145   4.535   0.549 -0.0616  0.4081 -0.0239
 4644W        W18058  11.704  10.649  15.434 -0.2513 -0.0634  0.0787
 4645W        W18059   1.495  11.901  11.454  0.0968 -0.1019 -0.1411
 4646W        W18060   1.420   1.101  15.721 -0.1483 -0.1701  0.2936
 4647W        W18061  13.540  13.301  12.782 -0.3448 -0.3359 -0.1112
 4648W        W18062  17.812  12.122  12.575  0.2089 -0.1800 -0.1039
 4649W        W18063   6.214  17.924  11.345 -0.2609 -0.1592 -0.2244
 4650W        W18064  15.783  13.147  12.370  0.1275 -0.0594 -0.0623
 4651W        W18065  16.873   2.729   5.314 -0.0239 -0.2030  0.0023
 4652W        W18066  10.034  12.652  12.629 -0.1802  0.0966 -0.0730
 4653W        W18067  15.066  15.827   5.430 -0.1019 -0.0987  0.0568
 4654W        W18068   7.079  12.817  14.608 -0.0906 -0.1776 -0.0580
 4655W        W18069  13.228  14.190  15.331  0.0239  0.0036  0.1791
 4656W        W18070   6.828   6.519  10.733 -0.3524 -0.0523 -0.1146
 4657W        W18071  15.824  14.245   6.736  0.2212 -0.2611 -0.0473
 4658W        W18072  17.120   1.573  12.410 -0.1189  0.1322  0.0874
 4659W        W18073  13.392   0.431   1.979  0.1354  0.1766 -0.0009
 4660W        W18074   7.407   0.031  16.254 -0.1117 -0.3258  0.1252
 4661W        W18075  15.685  13.111   1.449  0.1557  0.0983 -0.3746
 4662W        W18076   7.955   7.482  12.719  0.0445 -0.0110 -0.1924
 4663W        W18077  13.225   2.047   1.300  0.3153  0.0067  0.0995
 4664W        W18078   3.295  15.603   5.090 -0.4130 -0.0120  0.0682
 4665W        W18079   2.128   8.063  11.691  0.0518 -0.0719  0.0647
 4666W        W18080   8.094  14.671  12.667 -0.1831 -0.1218  0.0925
 4667W        W18081  15.579  13.782   1.592  0.1158 -0.3693 -0.0574
 4668W        W18082   0.949   2.524  10.584 -0.2537  0.0757  0.2605
 4669W        W18083  15.730  10.946  11.829  0.0904 -0.1156 -0.0439
 4670W        W18084   0.866   9.918  16.245  0.2003  0.0721 -0.2704
 4671W        W18085   5.500   7.585   3.826 -0.0091  0.1632 -0.0772
 4672W        W18086  18.264   0.617  14.584  0.0813 -0.0103  0.0842
 4673W        W18087  15.497  13.645  14.170  0.2771 -0.1072  0.2879
 4674W        W18088  11.425  17.755  14.983 -0.0683 -0.1143  0.2891
 4675W        W18089  15.259   2.008  15.370  0.2301 -0.0319 -0.1913
 4676W        W18090   8.239   4.780   3.944  0.2634 -0.2156 -0.2297
 4677W        W18091  11.290  18.099  10.116  0.1927  0.0966 -0.0546
 4678W        W18092   0.314   4.999   9.812 -0.0049 -0.2934  0.1944
 4679W        W18093  11.539  12.340   5.266 -0.3416  0.1578 -0.1862
 4680W        W18094  10.549   6.394  13.565 -0.0656 -0.0036 -0.2442
 4681W        W18095   1.855  16.612   0.775  0.1432  0.2447 -0.3506
 4682W        W18096   6.229   8.078   4.679  0.1045  0.1506 -0.2717
 4683W        W18097  16.812  15.295   1.818  0.0241  0.0458  0.0766
 4684W        W18098   4.303   8.438  15.490 -0.0927 -0.1980 -0.2526
 4685W        W18099   4.019   6.943  12.339 -0.0704  0.2494  0.0516
 4686W        W18100   3.930  16.907   2.660 -0.1034 -0.1783 -0.0380
 4687W        W18101  15.512  12.100   5.010 -0.4171  0.1193 -0.0263
 4688W        W18102  16.527  12.639  13.790 -0.3061 -0.0827 -0.0978
 4689W        W18103  11.187  10.052   5.161 -0.2130 -0.2184 -0.3583
 4690W        W18104   6.876  16.336   2.223 -0.0685  0.0100  0.0427
 4691W        W18105   7.771   2.504  11.783  0.2350  0.4231 -0.0400
 4692W        W18106   6.932  10.397  11.683  0.0984 -0.0509 -0.0450
 4693W        W18107   7.465   3.283   2.922  0.0276  0.2429 -0.2241
 4694W        W18108   4.197  11.094  14.408  0.2073 -0.2833 -0.3205
 4695W        W18109   1.256   2.261  13.673 -0.0359  0.1689 -0.1425
 4696W        W18110   7.847   6.278  11.027  0.1758  0.1628 -0.0885
 4697W        W18111  17.057  17.581   2.314  0.1506 -0.0051 -0.1380
 4698W        W18112  17.418   7.117   0.871  0.4599 -0.3187  0.0621
 4699W        W18113  16.608  16.424   2.365 -0.1251 -0.0826  0.0570
 4700W        W18114   6.989  13.288   6.222  0.1817  0.1583  0.0273
 4701W        W18115  12.302   5.175  12.276  0.3136 -0.1666 -0.0291
 4702W        W18116  10.241   2.383  11.290  0.0644 -0.0327  0.2705
 4703W        W18117   1.590   3.232  14.251 -0.1545 -0.2402 -0.0688
 4704W        W18118   9.000   6.985  13.024 -0.3076 -0.0699  0.0257
 4705W        W18119  14.044  13.709   4.252  0.0040 -0.0844 -0.2187
 4706W        W18120  16.021   4.950  11.649  0.1227  0.1751  0.5590
 4707W        W18121   2.684   7.100  15.103 -0.1716  0.1089 -0.2677
 4708W        W18122   1.522   7.164  10.174  0.3165  0.1268 -0.1575
 4709W        W18123   3.576  14.076  11.440  0.3833 -0.1619  0.1289
 4710W        W18124   5.683  16.481   2.630  0.1801  0.0474  0.2800
 4711W        W18125  11.202   7.478   1.412 -0.2292  0.0558  0.0671
 4712W        W18126  17.313   1.367   3.523  0.3326  0.3268 -0.0512
 4713W        W18127  11.856   5.551   5.575  0.0012 -0.0331 -0.1265
 4714W        W18128   8.209  14.487  16.267  0.0057 -0.2284  0.1011
 4715W        W18129  10.905   9.115   2.242  0.0580 -0.2504 -0.4072
 4716W        W18130   0.885   4.835  11.560 -0.1188 -0.0799  0.0851
 4717W        W18131  16.633   6.863   1.272  0.1700  0.0276  0.2181
 4718W        W18132   2.591   7.318  12.605  0.2248  0.0896  0.2967
 4719W        W18133  12.364   6.031   3.550  0.3087 -0.0128  0.1652
 4720W        W18134  16.097   1.832   5.939 -0.0600  0.2128  0.1286
 4721W        W18135  11.722   2.999  13.355  0.1296 -0.0237 -0.0237
 4722W        W18136   9.395  14.152   2.016  0.1346  0.0921  0.2744
 4723W        W18137   7.518   9.022  14.412 -0.1361 -0.4310 -0.3433
 4724W        W18138  10.847  13.909  14.267  0.2484 -0.0433  0.0960
 4725W        W18139  11.753  12.125  13.199 -0.2948  0.1565  0.0251
 4726W        W18140  10.945   6.049  11.395  0.0502 -0.1188 -0.0009
 4727W        W18141  13.100  17.257   5.643  0.0976  0.0559  0.2110
 4728W        W18142   4.521   9.182   1.704  0.0648 -0.0573  0.1484
 4729W        W18143  12.046   2.332   4.145 -0.0209  0.0348  0.0535
 4730W        W18144  11.761   6.373  16.495 -0.1211  0.2577  0.0425
 4731W        W18145   7.929   5.168   4.815 -0.2822 -0.0931 -0.1041
 4732W        W18146   7.908  11.170  12.406  0.0757 -0.4502 -0.2984
 4733W        W18147   8.987  16.501  15.567  0.1965 -0.1146  0.2040
 4734W        W18148  17.433  17.155   5.050  0.0915 -0.0932  0.1772
 4735W        W18149   0.474  14.802  15.493 -0.2394 -0.1875  0.1961
 4736W        W18150  11.153   3.669   4.986  0.2744  0.1041 -0.0650
 4737W        W18151  17.472   5.896   4.332  0.2929  0.0769 -0.3052
 4738W        W18152   2.508  13.650   3.589  0.0532  0.0515  0.0054
 4739W        W18153  16.671   4.324  11.979  0.2564  0.1159  0.2074
 4740W        W18154   2.209  12.261   3.694  0.1895 -0.3836 -0.1357
 4741W        W18155   7.083   0.094   2.221  0.0707 -0.2317 -0.0480
 4742W        W18156  10.885   5.029  15.164 -0.1936  0.3125 -0.0876
 4743W        W18157   6.084  11.841  15.220  0.2188  0.1424  0.0326
 4744W        W18158  17.500  17.311   2.351 -0.1023  0.3390  0.1479
 4745W        W18159  16.304  10.868  13.696 -0.1016 -0.3737  0.3292
 4746W        W18160  11.597   7.261   4.733  0.0423 -0.3123 -0.1729
 4747W        W18161  12.197  15.204  13.482  0.0418  0.2431 -0.0336
 4748W        W18162  13.289   9.735   4.914 -0.1652  0.1266 -0.0064
 4749W        W18163  14.286   2.688  12.554 -0.1042 -0.1829  0.1218
 4750W        W18164   5.197  14.764  13.271 -0.0619  0.2233 -0.1118
 4751W        W18165   1.567   0.283   0.554 -0.4405 -0.1865 -0.0976
 4752W        W18166   9.561  16.458   4.116 -0.0561 -0.0118 -0.1730
 4753W        W18167   1.857  13.787   5.688 -0.0245  0.2594  0.0949
 4754W        W18168  12.512  18.334  12.384 -0.1772  0.2412 -0.0546
 4755W        W18169   5.109   3.223   3.360  0.1852 -0.2645 -0.0507
 4756W        W18170   8.302   2.212  10.497  0.2830  0.0636 -0.0560
 4757W        W18171   2.927   5.428  14.110  0.2833 -0.2501 -0.0855
 4758W        W18172   4.933  16.106  16.310  0.2459 -0.1397 -0.0437
 4759W        W18173   1.101   8.782  16.298  0.0112 -0.2675 -0.2085
 4760W        W18174   3.458  12.440   3.614  0.2167 -0.2363 -0.2960
 4761W        W18175  11.120   9.511  12.590  0.1325  0.1345  0.0673
 4762W        W18176  11.977  11.211   4.646 -0.0895 -0.0645  0.1291
 4763W        W18177   3.868  16.342  10.805 -0.3436  0.0767 -0.0601
 4764W        W18178  12.931  13.226   2.289  0.2815 -0.2159  0.1187
 4765W        W18179   1.905  10.489   1.796  0.2780  0.0138 -0.2546
 4766W        W18180  10.733   5.594  11.406  0.1721 -0.1765 -0.1483
 4767W        W18181   5.949   8.701  12.626  0.0900  0.0575 -0.1453
 4768W        W18182  16.812   7.925  12.392 -0.1641  0.0845 -0.2115
 4769W        W18183   3.900   9.337   3.437  0.2028 -0.1931  0.0126
 4770W        W18184   5.864  15.246  16.177  0.0506 -0.0402 -0.3227
 4771W        W18185  14.766   4.031  14.360 -0.0619 -0.0889 -0.0578
 4772W        W18186  17.375  17.151  12.413  0.1073  0.3934  0.0872
 4773W        W18187  17.072  11.106   2.477  0.3044 -0.0853  0.0669
 4774W        W18188  10.188   7.856   5.419  0.0998 -0.1391 -0.0821
 4775W        W18189   1.210   5.742   4.067  0.1098 -0.0413 -0.0719
 4776W        W18190  16.891   5.105  14.099  0.1804  0.1621  0.1793
 4777W        W18191  15.574  11.869   2.735  0.1684 -0.0114  0.3145
 4778W        W18192   5.325  10.939   2.793 -0.2434  0.2286 -0.2702
 4779W        W18193   9.577  16.812   5.079  0.0520 -0.2215 -0.2797
 4780W        W18194   8.598   4.806  11.869  0.1431 -0.2197 -0.1644
 4781W        W18195  14.731   3.107   2.527  0.0476 -0.0220 -0.0529
 4782W        W18196   4.452   9.385  12.008 -0.1499  0.1392  0.1367
 4783W        W18197   8.568   4.893  16.178  0.1250  0.1967 -0.0314
 4784W        W18198   4.721  17.652   5.354 -0.0934  0.1559  0.2617
 4785W        W18199   9.953   8.082  12.154  0.0530 -0.0486  0.3122
 4786W        W18200   4.153   8.540  12.050 -0.0856  0.1625  0.2932
 4787W        W18201   0.080   3.229   1.473 -0.0655  0.0912 -0.1358
 4788W        W18202   4.328   6.457   4.144 -0.1973  0.3169 -0.0495
 4789W        W18203   8.881  16.629  14.050  0.0193  0.1680  0.0099
 4790W        W18204   1.876   5.061  10.976 -0.0916  0.1459  0.2433
 4791W        W18205  17.103  18.027   1.976 -0.0489  0.3453 -0.3436
 4792W        W18206   3.377   9.013   4.085  0.2686 -0.3389  0.1044
 4793W        W18207  15.382   3.980  14.390  0.2145 -0.0596 -0.0684
 4794W        W18208   7.349   7.421  10.834 -0.0524  0.1409  0.3612
 4795W        W18209   8.026  17.479   2.280  0.0023  0.1331  0.0894
 4796W        W18210   1.316   7.354   4.799  0.1487  0.0852 -0.1133
 4797W        W18211   8.748   3.926   0.943 -0.0146  0.0395 -0.3187
 4798W        W18212   0.920   9.776   1.998  0.0586 -0.1451 -0.0335
 4799W        W18213  17.195  10.645  10.909  0.0360 -0.1453 -0.0914
 4800W        W18214   5.966   6.694  13.382  0.2558  0.3635  0.3239
 4801W        W18215   5.784  10.490   6.192 -0.1882 -0.1359  0.1760
 4802W        W18216  12.314   6.425  14.365 -0.1805 -0.0307 -0.0081
 4803W        W18217   9.266  11.663   1.190  0.0630 -0.0539  0.0135
 4804W        W18218   0.957   0.438  16.391 -0.2706 -0.1900 -0.0499
 4805W        W18219  17.556  18.178   5.847  0.1234  0.2151  0.0264
 4806W        W18220   9.604   2.018   0.613  0.0074  0.3813  0.3105
 4807W        W18221  10.082   3.637  14.051 -0.2280  0.1115  0.0216
 4808W        W18222   1.897  15.747   1.374 -0.2140  0.1605  0.2583
 4809W        W18223   7.664   2.082  11.533  0.1583 -0.1787  0.0526
 4810W        W18224   6.138  13.375   6.000 -0.2288  0.1172  0.0934
 4811W        W18225   5.476   3.559   3.725 -0.1288  0.1264  0.0095
 4812W        W18226  10.252   3.230   0.243  0.2295  0.1987  0.2059
 4813W        W18227   0.138   4.483  14.738 -0.2399 -0.0648 -0.4723
 4814W        W18228   6.647   4.147   1.682  0.1797 -0.2284  0.0608
 4815W        W18229  12.050   9.272  13.324 -0.0115  0.0499  0.2709
 4816W        W18230  10.636   7.878  15.814  0.0248 -0.1626  0.1260
 4817W        W18231   4.326   2.654   3.722  0.2599  0.3123 -0.1110
 4818W        W18232   2.504  11.388   1.239  0.0120  0.3641  0.1126
 4819W        W18233  17.126  15.231  14.735 -0.0187  0.0777  0.2042
 4820W        W18234   6.589  14.649   3.323 -0.3938 -0.0191 -0.0562
 4821W        W18235  14.754   9.465   1.224 -0.0733  0.0445  0.2463
 4822W        W18236  13.554  11.932  16.471 -0.0638  0.0255  0.3272
 4823W        W18237  15.653  11.900  12.170  0.1064 -0.0919  0.0981
 4824W        W18238   0.209   6.466  11.572  0.1028 -0.1463  0.2416
 4825W        W18239  16.227  10.483  16.194 -0.1421 -0.0971 -0.0702
 4826W        W18240   0.930   9.351  10.599 -0.0979  0.0925  0.1096
 4827W        W18241   6.169  11.181  15.990 -0.1285  0.1827 -0.0815
 4828W        W18242  17.128   6.134   0.060 -0.1103 -0.0814  0.0427
 4829W        W18243  14.432  12.374   2.278  0.0403  0.0502 -0.2424
 4830W        W18244   1.062   0.541   3.294  0.0357 -0.1916 -0.2046
 4831W        W18245  10.716  10.358  12.965  0.1219  0.0568 -0.1157
 4832W        W18246  12.129   8.402  13.216 -0.0102 -0.3163 -0.1286
 4833W        W18247   5.852  14.002   4.437  0.0412 -0.1694  0.0687
 4834W        W18248   0.985   6.253   2.545 -0.0372  0.4132  0.3509
 4835W        W18249   1.589  14.089  12.741 -0.0426 -0.0746  0.0352
 4836W        W18250   5.608  13.045   1.304 -0.1498  0.2996  0.2080
 4837W        W18251  14.227   2.675   0.162  0.3148 -0.1648  0.1013
 4838W        W18252  12.547  13.282   4.759  0.0216 -0.0772  0.2535
 4839W        W18253   3.928   2.107  15.965 -0.2309  0.1666  0.1398
 4840W        W18254  18.345   2.995  12.559  0.0648 -0.2317 -0.1891
 4841W        W18255   2.197  12.085   2.707  0.0450 -0.0112  0.1154
 4842W        W18256   1.156  16.469   0.353  0.0505 -0.1113 -0.0843
 4843W        W18257   6.468   1.814  12.711 -0.2684  0.2157  0.2362
 4844W        W18258   7.111  10.321  15.627 -0.0384  0.1544 -0.1668
 4845W        W18259  14.949   8.082   3.740  0.1472  0.0771 -0.3052
 4846W        W18260  18.294  15.538  15.560  0.1149  0.2347 -0.0230
 4847W        W18261  15.521  11.610   0.769 -0.0066 -0.0863  0.3219
 4848W        W18262  15.797  15.344  14.600 -0.1588  0.1843 -0.1547
 4849W        W18263   3.582  10.321  14.377 -0.0349  0.2131  0.2920
 4850W        W18264   1.127   9.860   4.548  0.0017 -0.2945 -0.0193
 4851W        W18265  15.275   1.111  16.478  0.1938 -0.2086  0.0959
 4852W        W18266  10.728  16.182  14.536  0.2338 -0.6212 -0.2090
 4853W        W18267  17.791  10.813  13.427  0.0821  0.2342 -0.0068
 4854W        W18268  15.184   0.293  11.144 -0.0246  0.0187  0.0694
 4855W        W18269  10.569   0.872  11.629 -0.1268 -0.2890 -0.1398
 4856W        W18270   9.335   5.494  10.966  0.0989 -0.3910 -0.1739
 4857W        W18271   1.993  17.979  14.520 -0.0075 -0.0597  0.0605
 4858W        W18272  10.523  13.695  11.169  0.3169 -0.3072 -0.1943
 4859W        W18273  12.855   3.074   0.124  0.0847 -0.0200  0.0374
 4860W        W18274   2.471  13.386  13.110  0.1095  0.2466  0.1554
 4861W        W18275   9.816   5.944  15.409 -0.1601 -0.2093 -0.1312
 4862W        W18276   0.375  16.750  14.089 -0.2346  0.0672  0.0433
 4863W        W18277   2.352  14.248  13.387  0.0338  0.2246 -0.1364
 4864W        W18278  10.978   5.764  13.161  0.2628 -0.0758 -0.0661
 4865W        W18279  10.096   9.056   9.857  0.2187 -0.0207  0.2827
 4866W        W18280   9.016   1.860   4.152  0.1350 -0.1449  0.2396
 4867W        W18281   8.454  13.672  11.379  0.0383 -0.1404  0.1188
 4868W        W18282  12.869  16.958   0.876  0.2634 -0.0827  0.0026
 4869W        W18283   3.383  13.861  14.021  0.1060 -0.1976 -0.1381
 4870W        W18284  17.541  11.892  10.433  0.2670 -0.4057  0.3058
 4871W        W18285   0.494  12.443   2.574  0.0688 -0.0658 -0.2341
 4872W        W18286   2.414   1.389  15.219  0.0656  0.1201 -0.0749
 4873W        W18287   0.235   5.506   4.289  0.1795 -0.0189  0.0973
 4874W        W18288   1.539  10.568   4.761 -0.1113  0.0980 -0.1584
 4875W        W18289  16.919   8.219  11.344  0.0214  0.1740  0.0701
 4876W        W18290  15.769  13.385   4.133 -0.1570 -0.0868 -0.1582
 4877W        W18291  11.640  15.315  11.132  0.0554 -0.1563  0.3555
 4878W        W18292  13.796   6.005  10.636 -0.1656 -0.3108 -0.0386
 4879W        W18293   0.383  12.724   4.315 -0.3175 -0.1218  0.0060
 4880W        W18294  15.211   5.404  11.944  0.1372  0.2338  0.3031
 4881W        W18295   6.359   2.641   5.809  0.2495 -0.0078  0.1617
 4882W        W18296  14.980  11.580   3.258 -0.0511  0.1519  0.3540
 4883W        W18297   1.499  11.444  12.822 -0.3613  0.2670  0.2215
 4884W        W18298   4.559  10.731   4.441  0.1394  0.0452 -0.0185
 4885W        W18299   0.063  16.054  16.226 -0.3166 -0.0725 -0.0789
 4886W        W18300   5.079  15.172   1.955  0.1307  0.0427 -0.2790
 4887W        W18301   6.091  12.446  16.167 -0.1183 -0.2252 -0.1621
 4888W        W18302   7.400  14.561  10.732 -0.0882 -0.2029 -0.0859
 4889W        W18303   9.026   1.823   2.974 -0.2354 -0.1025 -0.0384
 4890W        W18304  10.772   2.253   2.202  0.2367  0.0720 -0.0331
 4891W        W18305  12.869   4.756   1.615  0.1014 -0.5198 -0.2617
 4892W        W18306  13.220   4.914   3.919 -0.2113  0.2541  0.1163
 4893W        W18307   4.625   1.636   0.523  0.1912 -0.5366  0.2297
 4894W        W18308   5.470  17.214   4.394 -0.0127 -0.2035 -0.0164
 4895W        W18309   2.345   1.727   2.715 -0.1190 -0.0708  0.0621
 4896W        W18310   4.615  10.152   0.348 -0.2005  0.1696 -0.0566
 4897W        W18311   8.538  18.277   5.207 -0.1199 -0.2849  0.0852
 4898W        W18312   4.340   7.928  14.686 -0.2724  0.0141  0.0923
 4899W        W18313   9.253   1.527  13.886  0.1054  0.0711 -0.2479
 4900W        W18314  16.751  13.373  10.419 -0.0114 -0.2455  0.1082
 4901W        W18315   7.587   3.258   1.149 -0.2435  0.2825  0.1015
 4902W        W18316   3.964   7.349   0.292 -0.2363 -0.0228  0.1848
 4903W        W18317  18.378  17.380  11.393  0.2618 -0.0332  0.3752
 4904W        W18318   1.955  10.700  16.472 -0.0771 -0.0574  0.0143
 4905W        W18319   0.536  13.337  11.164 -0.1526 -0.0826 -0.2493
 4906W        W18320   4.589   3.984  14.870 -0.0569  0.1756  0.0821
 4907W        W18321  11.871   1.541   1.840 -0.1868  0.1636  0.0574
 4908W        W18322   8.987   2.297  13.715 -0.0992 -0.1617 -0.0780
 4909W        W18323   7.785   4.051   0.562 -0.1525  0.0970  0.0279
 4910W        W18324   6.896  15.324  14.847 -0.0462  0.3563 -0.0399
 4911W        W18325   8.674  15.579   4.139  0.0418  0.0916  0.0806
 4912W        W18326   4.710  15.961  13.312 -0.4059  0.1680  0.0205
 4913W        W18327  13.726   1.116  11.311  0.0313  0.0105  0.0854
 4914W        W18328   3.203   9.286   0.117 -0.0110 -0.0751 -0.1212
 4915W        W18329  17.995   0.447  15.818 -0.2600  0.0709  0.0352
 4916W        W18330  15.490   2.394   6.422  0.0014 -0.1153 -0.0472
 4917W        W18331   5.746  14.868   0.906  0.5564 -0.1713  0.0704
 4918W        W18332  14.678   0.342   0.044  0.0563 -0.0547 -0.3113
 4919W        W18333  13.150   0.315   5.646  0.0459  0.0887 -0.0492
 4920W        W18334   6.258  12.920   2.432 -0.2862 -0.2181  0.0190
 4921W        W18335  15.136   4.795   3.308  0.3343 -0.0255 -0.2333
 4922W        W18336   1.499   0.806   3.201  0.1126  0.1240 -0.3267
 4923W        W18337   6.183  16.553  16.248 -0.0281  0.0238  0.3747
 4924W        W18338   6.877  10.942  11.390 -0.0639 -0.3355  0.0712
 4925W        W18339  18.370   4.288   5.335  0.0719  0.4021  0.2033
 4926W        W18340  14.785   1.400   3.158  0.2023  0.3383  0.1742
 4927W        W18341   7.466  14.102   1.726  0.1444  0.1369 -0.1422
 4928W        W18342   3.177   7.449  11.894  0.0532 -0.1803 -0.0961
 4929W        W18343  17.209  13.913   4.165 -0.1299 -0.0554  0.2090
 4930W        W18344  16.553  11.420   3.132 -0.0094  0.2689  0.0238
 4931W        W18345  14.255   4.233   0.172  0.0920  0.0180 -0.1367
 4932W        W18346  17.466   6.302  15.716 -0.0165  0.0125 -0.2760
 4933W        W18347  12.540  14.475   1.259 -0.1447 -0.1376 -0.0814
 4934W        W18348   5.136   1.314  13.309 -0.1986 -0.2001  0.0060
 4935W        W18349   3.832   3.518   5.182  0.0127 -0.1862  0.1372
 4936W        W18350   7.442  10.820   5.678 -0.0101 -0.0643 -0.0034
 4937W        W18351   9.301   7.685   0.610  0.1651  0.0654  0.0045
 4938W        W18352   5.095  11.626   2.252  0.0666  0.2312 -0.0063
 4939W        W18353   6.061   0.550   2.863  0.1613  0.0949  0.0938
 4940W        W18354  18.357  13.148   2.719  0.2014  0.2486  0.5733
 4941W        W18355   5.347  11.723  12.598 -0.1416 -0.0081  0.0555
 4942W        W18356  11.214   2.481  15.343 -0.1208  0.0250 -0.3157
 4943W        W18357   8.723   0.302  10.582  0.0710 -0.0713  0.1340
 4944W        W18358  14.817   7.018   5.345  0.1308 -0.1414  0.1870
 4945W        W18359   3.338   8.929  14.952  0.1945 -0.0645 -0.2185
 4946W        W18360   3.342   1.000   4.161 -0.0104 -0.1792 -0.1779
 4947W        W18361  17.598   3.241   2.851 -0.1859  0.0379 -0.4678
 4948W        W18362  17.486   5.157  12.679 -0.1979 -0.3150 -0.2436
 4949W        W18363   2.864   7.608  16.143 -0.1887  0.1926 -0.2207
 4950W        W18364  18.332  13.802   1.409 -0.0319  0.1235  0.0539
 4951W        W18365  16.078   8.233   2.872  0.0038  0.0765  0.2385
 4952W        W18366  18.290  11.674  12.020 -0.1492  0.0454 -0.0402
 4953W        W18367   0.716   4.104   1.476  0.1417 -0.1617  0.1645
 4954W        W18368  15.071   9.805  11.156 -0.0141 -0.1240  0.2446
 4955W        W18369  10.944  10.600  16.068 -0.0756  0.1295  0.0902
 4956W        W18370  12.171  12.065   3.324 -0.0008 -0.0269 -0.0037
 4957W        W18371  14.764   9.401  11.478  0.0839 -0.1842 -0.1254
 4958W        W18372  18.282   5.234   3.452  0.3701  0.0199  0.1662
 4959W        W18373   7.973   4.802   0.655 -0.1505 -0.1862 -0.1019
 4960W        W18374  16.652   5.024  11.161 -0.0393  0.3483 -0.0973
 4961W        W18375  10.712   5.470   0.315 -0.0130 -0.1854 -0.0404
 4962W        W18376  10.258   8.854  12.101  0.2027 -0.1196  0.0411
 4963W        W18377  15.337   0.040  14.745  0.1006 -0.1100  0.0474
 4964W        W18378   7.548   7.871  13.897  0.1340  0.2939 -0.0818
 4965W        W18379   1.933  13.329  15.718  0.0322 -0.0138 -0.1772
 4966W        W18380   1.203  12.851  13.486 -0.3742 -0.1381 -0.1502
 4967W        W18381   8.307   4.340  13.807  0.2810 -0.2207  0.1263
 4968W        W18382   6.896  15.339  16.185 -0.3159  0.0693  0.2039
 4969W        W18383   7.547   3.269   4.203 -0.1996  0.1356 -0.2842
 4970W        W18384   8.598  14.121   0.136 -0.0801  0.3645 -0.3054
 4971W        W18385   4.704   1.395  15.055  0.2199  0.2048  0.1423
 4972W        W18386  13.434   9.383  10.417  0.4215 -0.0912  0.2322
 4973W        W18387   3.916   1.254   1.740  0.0100 -0.1837  0.0338
 4974W        W18388   8.494   6.279  14.944 -0.1918 -0.2061  0.0649
 4975W        W18389  12.540   6.792   0.620  0.0972  0.0424  0.0202
 4976W        W18390  11.569   4.743   1.616  0.2205  0.0759 -0.1585
 4977W        W18391  16.045  16.343   5.040 -0.1737 -0.1921 -0.1875
 4978W        W18392  12.367   0.957  14.047 -0.0601  0.2509 -0.0684
 4979W        W18393   2.772   5.000  15.398 -0.2511 -0.2656  0.1537
 4980W        W18394   1.041  14.648  12.540  0.2313 -0.0354  0.1281
 4981W        W18395  10.369  16.185  11.492  0.1638  0.2229 -0.0453
 4982W        W18396  17.896   6.501   0.388 -0.0901  0.3177 -0.0088
 4983W        W18397   4.815   5.876   5.749  0.0451  0.1039  0.2135
 4984W        W18398   0.861   2.331   3.744 -0.1163 -0.2436 -0.0685
 4985W        W18399  17.764  17.397   1.799  0.2742  0.0763  0.3475
 4986W        W18400   6.053  11.836  11.051 -0.3192 -0.3119  0.0503
 4987W        W18401   7.701  17.193   4.940 -0.0245 -0.0242 -0.1811
 4988W        W18402   1.164  16.998   1.242  0.1387 -0.0089  0.2904
 4989W        W18403   6.254  13.042  13.233  0.0832 -0.0883 -0.0855
 4990W        W18404   2.502   2.281  11.270 -0.1503  0.1213  0.2957
 4991W        W18405  15.586   5.365   4.582  0.2725  0.0591  0.1924
 4992W        W18406   1.459   5.592  10.413 -0.2892 -0.1202  0.1669
 4993W        W18407  10.993  11.475   3.123 -0.1602 -0.0560  0.0245
 4994W        W18408   7.093   7.138   2.748  0.2820 -0.2235 -0.3876
 4995W        W18409   1.995   4.907  13.092 -0.0991  0.0920 -0.0653
 4996W        W18410   0.315  18.347  15.269  0.1825  0.0979  0.1383
 4997W        W18411   1.739   9.408   1.382  0.0853  0.0263  0.0026
 4998W        W18412  14.933   9.130   0.906  0.3421 -0.0399 -0.1767
 4999W        W18413   5.754  17.637  11.756  0.0042 -0.1525  0.0214
 5000W        W18414  15.235   1.312  10.801  0.1228  0.1920 -0.3454
 5001W        W18415   9.396   2.043  11.191  0.0892 -0.0109  0.4935
 5002W        W18416   6.994  10.010   5.851 -0.0309  0.0333 -0.0929
 5003W        W18417   6.336  16.009  13.501  0.0644 -0.1044  0.1008
 5004W        W18418  10.567   6.578   1.197  0.0700 -0.1378  0.0033
 5005W        W18419   3.746  12.011   0.029 -0.2819  0.1437  0.3070
 5006W        W18420   2.103   1.571  11.754  0.5843 -0.1104  0.1319
 5007W        W18421  16.415   8.823  10.863  0.1882  0.1276 -0.0857
 5008W        W18422   0.675   6.654  15.397 -0.0458 -0.0613  0.3683
 5009W        W18423  16.354   8.472   3.259  0.1976  0.0490 -0.1807
 5010W        W18424   8.012  10.180   0.140 -0.2050 -0.0914 -0.2317
 5011W        W18425   2.274  17.684   5.601 -0.2668 -0.2284  0.0248
 5012W        W18426   2.415   5.394   1.596  0.1288 -0.2768  0.1906
 5013W        W18427   1.337   6.419  12.518 -0.0866  0.1473 -0.0627
 5014W        W18428  16.082  14.633   3.152 -0.0683 -0.0504  0.0017
 5015W        W18429   5.978  16.022  15.862  0.2192  0.1420 -0.1572
 5016W        W18430  16.671   2.938  13.326  0.1146  0.1077 -0.1273
 5017W        W18431   8.690  16.502  13.555  0.0414 -0.0968  0.2598
 5018W        W18432  16.094   0.264  13.184  0.1275 -0.1872  0.0716
 5019W        W18433   1.684  18.104   3.270  0.0277 -0.0967  0.1369
 5020W        W18434   9.078  10.708  11.476  0.0389  0.0043  0.0658
 5021W        W18435  12.956  18.268  10.621  0.2705 -0.3842 -0.0009
 5022W        W18436  14.831  12.946   3.016 -0.2332 -0.0858  0.1742
 5023W        W18437   4.254   4.823   2.759 -0.3141 -0.3369 -0.3095
 5024W        W18438  17.334   9.592  11.008 -0.0005  0.0843 -0.0803
 5025W        W18439   0.008   5.647   0.526  0.0681  0.0697  0.1165
 5026W        W18440   3.288   4.507   5.615  0.2982 -0.1022  0.1383
 5027W        W18441   2.287   6.304  14.109 -0.1698  0.1729  0.0874
 5028W        W18442  11.738  14.594   5.107 -0.1067  0.1000 -0.0324
 5029W        W18443  11.758  17.237  12.553 -0.1600  0.1946 -0.3953
 5030W        W18444   0.893  16.528   5.978 -0.0269  0.3875  0.0663
 5031W        W18445  17.756   9.767   4.200 -0.1443 -0.1386 -0.1328
 5032W        W18446  14.269   9.686  14.162 -0.4325  0.2659  0.1572
 5033W        W18447  12.901   3.745  14.540 -0.3619  0.0786  0.2043
 5034W        W18448   3.908   1.385   0.244  0.2811  0.0930 -0.1141
 5035W        W18449  13.936   3.586  12.728 -0.1674  0.3820  0.0995
 5036W        W18450  10.403   8.744  12.865 -0.0313 -0.2965 -0.0361
 5037W        W18451  16.678   9.851  10.936  0.2894  0.0816 -0.1040
 5038W        W18452   0.194  13.158  16.337  0.0145 -0.3770  0.2302
 5039W        W18453  13.827   5.667   0.648 -0.0500 -0.0168 -0.0318
 5040W        W18454   9.842   4.777   1.144 -0.1630 -0.4630 -0.1170
 5041W        W18455   2.442  17.037  11.710 -0.4624  0.0743 -0.1105
 5042W        W18456  16.998  11.835  12.603  0.0884  0.0399 -0.3570
 5043W        W18457  16.542   8.690  16.333 -0.1330  0.1151 -0.2505
 5044W        W18458   9.722   7.943   4.161  0.2529 -0.0080  0.2186
 5045W        W18459   9.940   5.999   5.896 -0.4557  0.3493 -0.2440
 5046W        W18460   1.249  15.518   6.068  0.1352  0.1393 -0.3157
 5047W        W18461  15.686   5.707   3.073 -0.3733 -0.1400 -0.4766
 5048W        W18462   1.307   7.709  16.126 -0.3059  0.2807  0.4009
 5049W        W18463  11.070   4.691  10.314  0.4216  0.0486 -0.3107
 5050W        W18464   3.142   1.570   0.844 -0.0573 -0.1352  0.1890
 5051W        W18465  16.320   3.947  15.844  0.0561 -0.1582  0.1051
 5052W        W18466   4.291   0.425   2.573  0.0099  0.1598 -0.2712
 5053W        W18467  15.715   5.815  13.793 -0.1919  0.0321  0.2535
 5054W        W18468  15.992  18.138  14.390  0.0899 -0.3038 -0.0198
 5055W        W18469   7.469  12.868  13.312 -0.1634 -0.2038  0.3711
 5056W        W18470  11.905  17.638   0.123  0.0466 -0.2465 -0.0986
 5057W        W18471   3.818   9.122   0.703 -0.0456  0.1599 -0.0246
 5058W        W18472  11.861  10.920   1.830  0.0692  0.1279  0.0425
 5059W        W18473  16.903   5.325   5.269 -0.0142  0.3105 -0.3162
 5060W        W18474  12.918   8.585   0.340  0.1350 -0.0192 -0.2881
 5061W        W18475   2.800   8.773   3.964  0.0314  0.2580  0.1087
 5062W        W18476  18.269   8.815  16.102 -0.0033 -0.2506  0.0324
 5063W        W18477  11.550  12.384   4.365 -0.0166 -0.1442 -0.2731
 5064W        W18478   0.464  17.236  12.273  0.2724  0.4252 -0.1183
 5065W        W18479   6.042  11.849   1.788  0.2232  0.1632  0.1642
 5066W        W18480   9.337   5.865   0.022  0.1294  0.2590  0.1282
 5067W        W18481   2.866  13.384  12.733 -0.2701 -0.0064  0.1566
 5068W        W18482   2.808   8.530   0.092 -0.0617  0.1030 -0.2550
 5069W        W18483   0.767  16.870   3.994 -0.0037  0.1548  0.0506
 5070W        W18484  13.204   5.742  15.308 -0.0076  0.0655  0.3190
 5071W        W18485  11.587  14.533  12.047  0.1444 -0.4087  0.0366
 5072W        W18486   7.702   9.212  13.095 -0.2316 -0.0598  0.2026
 5073W        W18487   4.531   5.613   2.412  0.0432 -0.4590 -0.0204
 5074W        W18488   7.092   5.560   4.795  0.0346 -0.1532 -0.1299
 5075W        W18489   3.908   2.133   1.307 -0.3161 -0.0410  0.1157
 5076W        W18490   1.874   5.682  16.157 -0.0342  0.1649  0.0075
 5077W        W18491   4.851   8.239  12.271 -0.3514  0.1849 -0.2113
 5078W        W18492  17.707   7.162   4.375 -0.1994 -0.1252 -0.3153
 5079W        W18493  15.500  13.631   2.739  0.1557 -0.1173  0.1230
 5080W        W18494   6.421  16.219  15.856  0.1129  0.0317  0.2539
 5081W        W18495  12.702  16.121  16.314 -0.0397  0.0431  0.1465
 5082W        W18496  10.661   7.241   2.574 -0.0727 -0.0624 -0.1846
 5083W        W18497  14.184  14.547  11.881 -0.2171 -0.1455  0.0199
 5084W        W18498  10.626   0.874  10.661  0.0972  0.0879  0.1667
 5085W        W18499   6.743  13.255  11.723 -0.1372  0.0486  0.1441
 5086W        W18500   3.752   7.346   1.228  0.0000  0.1776 -0.0175
 5087W        W18501  18.202   5.054  12.994  0.1593 -0.1533 -0.1169
 5088W        W18502  13.850   0.150  12.719 -0.1297  0.2631 -0.2041
 5089W        W18503  12.089  16.210   2.438 -0.0116 -0.1319 -0.1489
 5090W        W18504  11.510  17.072   1.657  0.4646 -0.1015  0.1311
 5091W        W18505   5.488  12.479   4.168 -0.3203 -0.1263 -0.2866
 5092W        W18506  13.395   8.597   0.377 -0.1426 -0.1743  0.1346
 5093W        W18507   7.015  17.189   1.915  0.1981  0.0487  0.1742
 5094W        W18508   8.385   4.032   9.963 -0.0536  0.0900 -0.1586
 5095W        W18509   7.799   3.469  11.544  0.3517 -0.2678 -0.1246
 5096W        W18510   3.968  17.663   1.231  0.0144  0.2700  0.1960
 5097W        W18511   0.536  16.199  12.485  0.0634  0.2694 -0.0342
 5098W        W18512   6.954   1.057   4.737  0.0600 -0.1979 -0.0934
 5099W        W18513   9.630  11.638  10.582  0.3317  0.0814  0.1471
 5100W        W18514  15.602   1.599   5.839  0.0093 -0.1350 -0.0212
 5101W        W18515  18.027   8.378   2.533  0.1571 -0.2926  0.1055
 5102W        W18516   6.180   9.561   4.404 -0.1225 -0.0475  0.1998
 5103W        W18517   6.802  13.998  12.479 -0.1038  0.0223  0.2000
 5104W        W18518   3.785  13.360  15.269  0.1563 -0.2703 -0.2817
 5105W        W18519   7.088  12.153  15.387  0.1608  0.0382 -0.2460
 5106W        W18520   3.122   3.638  10.947  0.1220  0.0462  0.2565
 5107W        W18521   5.359  14.677   0.516  0.2161  0.0657  0.2110
 5108W        W18522  16.098  10.404   2.062 -0.1038  0.0896  0.0638
 5109W        W18523   6.557  11.109  16.310 -0.0956 -0.1223 -0.4035
 5110W        W18524  17.748   6.422   3.832  0.0476  0.0676  0.0804
 5111W        W18525   3.114   2.009  13.316 -0.1627 -0.0941  0.1280
 5112W        W18526   2.494   7.241   5.019 -0.6267 -0.1706  0.0024
 5113W        W18527   6.002  13.134  14.241 -0.0937  0.0976  0.0543
 5114W        W18528  15.491   7.533   0.587  0.0735  0.1786  0.2825
 5115W        W18529   5.232   6.733  13.942 -0.0373  0.0808  0.5229
 5116W        W18530   0.081  13.880   2.502 -0.2776  0.3701 -0.1407
 5117W        W18531  15.358  16.075  11.463  0.0659  0.0648  0.0534
 5118W        W18532  16.338   1.962  15.148  0.1120 -0.1142  0.2850
 5119W        W18533  13.793  12.938   2.510 -0.3168  0.0067 -0.4133
 5120W        W18534  14.501  18.318   6.052 -0.0901  0.2677 -0.2473
 5121W        W18535  12.697  16.449   5.419  0.3068  0.0216 -0.1465
 5122W        W18536   5.753  15.088   3.839  0.2288 -0.1262 -0.0250
 5123W        W18537   5.919  11.511   2.768 -0.0446  0.0366 -0.1324
 5124W        W18538  13.781   4.277   1.902  0.2170 -0.1424  0.1726
 5125W        W18539   6.105   1.792  14.694  0.0904  0.1351  0.1012
 5126W        W18540  16.087  10.324   0.136 -0.0792 -0.0357 -0.1584
 5127W        W18541   6.275   5.925  11.250 -0.1045  0.0088 -0.0538
 5128W        W18542  11.604   0.031   1.310  0.1296 -0.2102 -0.0086
 5129W        W18543  16.078  12.636   4.432  0.0423 -0.0131 -0.0655
 5130W        W18544  11.274   3.318  12.633 -0.0996  0.4968 -0.2743
 5131W        W18545   5.547   6.381  14.046  0.1228  0.0668 -0.1875
 5132W        W18546   4.445   4.532   3.372 -0.1294 -0.0099  0.1275
 5133W        W18547   7.397  13.350  13.265  0.0942  0.0272  0.2568
 5134W        W18548  13.234   7.227  11.732  0.1516 -0.3022 -0.0373
 5135W        W18549   6.479   8.567  11.821  0.2506  0.1316 -0.2064
 5136W        W18550  14.740   1.506   3.712 -0.1562 -0.0732  0.0637
 5137W        W18551   8.322   9.979   5.706 -0.0805  0.1718 -0.2160
 5138W        W18552  16.041   6.381  13.109  0.0790  0.0026  0.1075
 5139W        W18553   4.813   8.173  14.588 -0.2088 -0.0870  0.0510
 5140W        W18554   9.965   2.201  14.322  0.2769 -0.1409 -0.2187
 5141W        W18555  15.526   8.056  11.472 -0.2911 -0.2315  0.2099
 5142W        W18556  17.075   3.494   6.102  0.1609  0.1587  0.0744
 5143W        W18557  11.128   1.669   3.362  0.0955 -0.1298 -0.2078
 5144W        W18558   0.266   0.410  12.562 -0.1369  0.0542 -0.4355
 5145W        W18559   4.023  15.501  10.872  0.2135 -0.3023 -0.1787
 5146W        W18560   0.583  11.648   6.113 -0.0582  0.3674 -0.1643
 5147W        W18561  12.484   5.242  16.091  0.0342  0.1804 -0.0733
 5148W        W18562   7.983  12.655   2.566 -0.2736 -0.0567  0.1752
 5149W        W18563   3.391  16.128  15.078  0.2782 -0.1845  0.0418
 5150W        W18564   7.506   5.385   5.031 -0.3291 -0.1681 -0.0878
 5151W        W18565  11.535   9.540   3.007  0.3740 -0.0464  0.0716
 5152W        W18566  16.816   5.459   0.598 -0.0400  0.0774 -0.3455
 5153W        W18567  13.175   9.976  13.961  0.2707  0.1017 -0.0915
 5154W        W18568  10.189   5.435  15.458 -0.1339 -0.3422  0.2114
 5155W        W18569  13.185  11.120   1.890 -0.1340  0.3425  0.3505
 5156W        W18570  17.845   8.642   4.892 -0.1113  0.1080 -0.2086
 5157W        W18571  11.724  12.975   1.356  0.0316  0.1169  0.0621
 5158W        W18572  10.719   9.425  12.159  0.2567  0.0955  0.0233
 5159W        W18573  10.212  11.385   0.229 -0.0459  0.1259  0.1078
 5160W        W18574   1.371   5.180   4.782  0.0305 -0.2019  0.0799
 5161W        W18575  17.116  14.283  12.693  0.2726  0.0643 -0.0608
 5162W        W18576  14.596   5.887  10.863 -0.3109  0.2264 -0.1263
 5163W        W18577   3.309   3.239  12.763 -0.1941  0.1464 -0.2701
 5164W        W18578  10.806   7.952   2.064 -0.0748 -0.1200 -0.1477
 5165W        W18579   5.922   7.755   5.833  0.0314 -0.1203 -0.1327
 5166W        W18580   9.134  18.027   9.873 -0.1023  0.1664 -0.2350
 5167W        W18581  10.808  17.501   0.164 -0.0208  0.1315  0.1724
 5168W        W18582   1.889  11.272  11.967 -0.1338  0.0567  0.0225
 5169W        W18583  14.751  11.700   3.786  0.2122  0.0074  0.2304
 5170W        W18584  11.788   4.347   2.836 -0.1097 -0.1279  0.1157
 5171W        W18585   0.009   6.831  14.027  0.1447  0.3683 -0.0499
 5172W        W18586   4.030  17.577   2.963  0.0173 -0.2387 -0.1248
 5173W        W18587  12.773   4.391  13.352 -0.0659  0.1119 -0.0867
 5174W        W18588  12.132  12.591   1.441 -0.0734 -0.0229 -0.1958
 5175W        W18589   7.304   6.136   4.168  0.1258  0.1557  0.3595
 5176W        W18590  15.066  10.214  10.823 -0.2312  0.3859 -0.1913
 5177W        W18591   0.055   5.885   3.928 -0.0800 -0.1276 -0.0345
 5178W        W18592   8.802   0.328  15.747 -0.1291 -0.0969  0.0536
 5179W        W18593   9.923   5.045   1.880  0.2017  0.1466  0.1609
 5180W        W18594   2.043   0.035  15.497 -0.2643  0.2818 -0.0030
 5181W        W18595  14.013  11.154  13.462  0.1585  0.0089  0.3779
 5182W        W18596  15.696  11.252  13.022  0.0462 -0.2092 -0.0000
 5183W        W18597  17.330  15.516  15.124  0.0292 -0.0184 -0.0392
 5184W        W18598  17.972  17.478   5.578 -0.0472  0.1639 -0.2455
 5185W        W18599  16.648   8.827  14.809  0.1498 -0.0342 -0.1996
 5186W        W18600  12.754  14.001  11.300  0.1038  0.0157  0.1163
 5187W        W18601   7.625  16.394  11.956 -0.0663  0.0623  0.0475
 5188W        W18602   3.861  14.243  16.217  0.1482 -0.2320 -0.1662
 5189W        W18603   4.452  13.871   5.625  0.0119  0.1208 -0.3859
 5190W        W18604   0.370   1.708   4.574 -0.0766 -0.1764 -0.2657
 5191W        W18605   6.486   6.652   3.594  0.0816  0.1584  0.1446
 5192W        W18606  10.018   3.331   2.804 -0.2818  0.2294  0.0119
 5193W        W18607   3.657  13.232   2.745  0.0040  0.0911 -0.1040
 5194W        W18608  13.290   6.709   1.185  0.4203  0.0769 -0.1129
 5195W        W18609   4.593   2.673   2.842  0.0995  0.2603  0.3684
 5196W        W18610   1.332  14.320  14.593 -0.0094 -0.3722 -0.0287
 5197W        W18611   2.080  12.667  14.740  0.2173  0.1394 -0.0142
 5198W        W18612  11.733  14.651  13.267  0.1562  0.1344  0.0751
 5199W        W18613   2.020   0.285   5.317 -0.1087 -0.1370  0.0121
 5200W        W18614   6.418   9.164  14.275  0.1656  0.1524 -0.2052
 5201W        W18615  14.560  12.527   6.255 -0.0336  0.1024 -0.0441
 5202W        W18616  11.257  11.514  10.890 -0.1037  0.0389  0.1323
 5203W        W18617   5.763  11.328   2.140 -0.1951  0.1208 -0.3532
 5204W        W18618  18.180  15.667   5.693 -0.3107  0.1407  0.0723
 5205W        W18619   3.066   7.092   0.093 -0.1039 -0.1114  0.3837
 5206W        W18620  16.049   9.083   2.617  0.1374 -0.0515 -0.2735
 5207W        W18621  12.968   0.651   4.162 -0.0136  0.1174  0.2136
 5208W        W18622   0.057  16.134   4.718 -0.1768  0.0928 -0.0172
 5209W        W18623  16.767   0.008  14.715  0.0574 -0.0335  0.2760
 5210W        W18624   4.076   7.288  15.703 -0.1371  0.3111  0.0245
 5211W        W18625  10.022   9.915   2.217 -0.0687 -0.0937  0.0014
 5212W        W18626   3.263  12.732  11.278 -0.2273  0.2443 -0.1740
 5213W        W18627  12.110  13.035   3.883 -0.5510  0.0099  0.1462
 5214W        W18628  12.837   7.883   5.494  0.1591 -0.0103  0.1118
 5215W        W18629   5.896  10.716  10.878  0.0850  0.1923 -0.1341
 5216W        W18630  16.843   0.236   3.862 -0.3156 -0.1684 -0.0650
 5217W        W18631  17.530   3.369  13.616 -0.2620 -0.0298  0.0310
 5218W        W18632  13.294   6.576  13.702 -0.0442  0.0389 -0.0958
 5219W        W18633   0.978   3.746   5.782 -0.0239 -0.0977 -0.1959
 5220W        W18634  13.649  13.904   3.725  0.1656  0.0904 -0.1602
 5221W        W18635  13.439   0.024   6.480 -0.2698  0.1185  0.4818
 5222W        W18636   0.614   0.853  11.541  0.0139 -0.1086 -0.0261
 5223W        W18637   1.599  16.689   4.862  0.0979  0.2731 -0.3095
 5224W        W18638   0.358   9.537  16.223  0.0909 -0.2079  0.2659
 5225W        W18639   8.745   8.147   4.457  0.1249  0.0096 -0.1482
 5226W        W18640   4.584   2.130  13.475 -0.0715 -0.3425  0.1236
 5227W        W18641   3.001  14.125   3.200 -0.2990  0.2144 -0.3128
 5228W        W18642   4.770  13.090   3.991  0.0069 -0.0753 -0.0779
 5229W        W18643   2.660  10.255   0.787  0.1584 -0.2082  0.0947
 5230W        W18644   2.020  18.047   5.826  0.0361  0.2811 -0.0314
 5231W        W18645  18.256   1.469  11.015 -0.1543  0.1736 -0.1584
 5232W        W18646  17.555   7.668   0.616  0.0526 -0.0513 -0.0095
 5233W        W18647  12.471   7.931   5.795 -0.4347  0.0979  0.1041
 5234W        W18648  13.016  13.073  10.398  0.2016  0.2699  0.0753
 5235W        W18649   9.019   5.952   2.808  0.0686  0.2935  0.3693
 5236W        W18650   2.228   6.382   4.519 -0.1091  0.0763 -0.0742
 5237W        W18651   2.972   4.806  12.152  0.1599 -0.0280  0.1022
 5238W        W18652   2.825   6.106   1.081  0.3794  0.2006 -0.1059
 5239W        W18653   1.823   6.878  14.826  0.1706  0.0131  0.0791
 5240W        W18654  11.524  13.733  12.780  0.0614  0.2834 -0.0056
 5241W        W18655   6.819  10.171  10.555  0.1046  0.3561 -0.0004
 5242W        W18656  12.054  15.077  12.519 -0.0052  0.5530 -0.0905
 5243W        W18657  12.496  14.066  16.299 -0.2714  0.2672 -0.1225
 5244W        W18658  14.261  12.492   4.953  0.0182 -0.1224  0.2327
 5245W        W18659  13.382   6.646   0.532 -0.0252  0.0837  0.0236
 5246W        W18660  17.789   2.187   3.064 -0.2000 -0.2076  0.1317
 5247W        W18661  15.180  13.766  10.903  0.0547 -0.2574 -0.1665
 5248W        W18662  12.858  12.517   1.496  0.4440 -0.0233  0.1774
 5249W        W18663   9.636   7.948   2.427  0.2857  0.2163  0.3036
 5250W        W18664  18.359  17.237   2.279  0.2436 -0.0958  0.3334
 5251W        W18665  13.470   2.252   4.945  0.1016 -0.1057  0.4465
 5252W        W18666   2.448   1.235  15.773 -0.0500 -0.0583  0.0692
 5253W        W18667   3.883   6.556  11.099 -0.1084  0.2463 -0.2489
 5254W        W18668   8.415  16.204  13.828 -0.0035  0.3844 -0.0604
 5255W        W18669  14.498  16.554  15.689  0.0602 -0.1941 -0.2767
 5256W        W18670  16.093   8.146  12.788  0.1876 -0.0359 -0.1943
 5257W        W18671   1.217  15.374  10.703 -0.0281 -0.0799  0.1521
 5258W        W18672   8.509   9.034  15.687 -0.1881 -0.0739 -0.1922
 5259W        W18673  18.164  10.271  15.049  0.0839 -0.0117  0.4727
 5260W        W18674   0.342  10.434   3.142  0.1915 -0.4485  0.3031
 5261W        W18675   0.034   9.215   0.048  0.4832 -0.1026 -0.2338
 5262W        W18676   2.102  11.427  11.528  0.1318  0.2171  0.2397
 5263W        W18677   1.056  11.465   5.829  0.0140 -0.0170 -0.1806
 5264W        W18678  13.335   1.186   4.847  0.0615 -0.0281  0.0207
 5265W        W18679   7.775   8.705  15.074 -0.2671  0.2071  0.1165
 5266W        W18680  12.720   3.929   1.274  0.3830 -0.1006  0.0199
 5267W        W18681  10.910  17.247  15.306 -0.2585 -0.1252 -0.0699
 5268W        W18682  15.277   2.932  13.573 -0.0416  0.2498 -0.1294
 5269W        W18683  11.676  11.834   4.464  0.0303  0.2217 -0.2001
 5270W        W18684   3.172   5.760  12.156 -0.0929  0.2126  0.6114
 5271W        W18685  11.344  14.812   3.376  0.0641 -0.0205  0.2960
 5272W        W18686   8.997  18.313  15.484 -0.1490  0.2503  0.0650
 5273W        W18687   9.644  11.596  15.916 -0.1620  0.2384 -0.0789
 5274W        W18688   0.746   6.207  14.046 -0.0505  0.1428 -0.1101
 5275W        W18689  14.767   0.419  11.875  0.0458  0.0469 -0.0190
 5276W        W18690   7.863  16.997   2.896  0.0290  0.0096  0.1252
 5277W        W18691   0.327  16.031   1.563 -0.1477 -0.0638 -0.2943
 5278W        W18692   9.321   3.909   0.740  0.0354  0.0789 -0.0539
 5279W        W18693   9.434  10.251   4.845  0.1965  0.3710  0.1765
 5280W        W18694  10.973   8.005   2.900 -0.0283 -0.1118 -0.0555
 5281W        W18695   6.857  14.500  16.453 -0.0026 -0.0229 -0.3153
 5282W        W18696   8.880   9.522   3.620  0.1125  0.2346 -0.0487
 5283W        W18697   5.727   3.347  13.445  0.1751  0.1464 -0.2069
 5284W        W18698  17.034   1.617   0.831 -0.1896 -0.1483  0.1908
 5285W        W18699  10.106  12.317  16.284  0.1933  0.2559 -0.0386
 5286W        W18700   0.051   4.669  12.652 -0.0601  0.1097  0.2747
 5287W        W18701   0.555   3.489  14.107 -0.2702  0.0119 -0.3442
 5288W        W18702  16.452  14.006  14.089  0.2030 -0.0184  0.1572
 5289W        W18703  12.750  17.334  15.917 -0.0644 -0.1742  0.4647
 5290W        W18704   5.317   4.793   4.364 -0.3438  0.2495  0.1320
 5291W        W18705   6.822   9.611  10.914  0.4214 -0.1399  0.1430
 5292W        W18706  17.351   2.025  14.061  0.2893  0.3031  0.1370
 5293W        W18707  10.782   9.363   4.079  0.2196  0.1558  0.0119
 5294W        W18708   7.648  13.614  14.999  0.1248  0.0329  0.2919
 5295W        W18709  12.159  17.266   5.272 -0.2186  0.0086  0.4042
 5296W        W18710   9.430  11.180   5.839 -0.1750 -0.2219 -0.0900
 5297W        W18711   6.237  10.010   4.580  0.0676  0.4163 -0.0657
 5298W        W18712   4.057   2.237  14.736 -0.0289  0.0877 -0.2213
 5299W        W18713   1.104  17.514  13.375  0.0629 -0.2066 -0.2608
 5300W        W18714   7.163   9.074   3.022 -0.2632  0.0229  0.1456
 5301W        W18715  15.918   3.835   0.531  0.0647  0.1899  0.1713
 5302W        W18716  11.389   5.516  13.965 -0.2468  0.0600 -0.4659
 5303W        W18717  12.013  11.330  16.442 -0.0632  0.3055 -0.0590
 5304W        W18718   5.490   6.090  11.853 -0.0742  0.2502 -0.2016
 5305W        W18719   3.634   2.626   4.989  0.2012 -0.3133  0.0811
 5306W        W18720   5.690  12.571  12.194 -0.0651  0.1310 -0.1484
 5307W        W18721   9.921   0.453  14.059 -0.1150  0.2278  0.2052
 5308W        W18722  17.577   7.252  10.412 -0.3072 -0.0576 -0.1475
 5309W        W18723   3.443   0.562  14.854  0.1637 -0.0367  0.1174
 5310W        W18724   2.908  17.300  11.859 -0.0736 -0.1458  0.0877
 5311W        W18725  14.357   1.143  13.098  0.0506  0.3213 -0.2665
 5312W        W18726  14.928  10.860   4.499 -0.2846 -0.0881 -0.2195
 5313W        W18727  17.570  11.123   6.289  0.1641 -0.0271  0.0660
 5314W        W18728  13.140  15.722   6.593 -0.0910  0.0088 -0.0530
 5315W        W18729  11.326   5.699  16.056  0.0859  0.0664 -0.1768
 5316W        W18730   7.614  16.954  10.684  0.1061  0.3240  0.0032
 5317W        W18731   2.129   3.413   3.064 -0.2182 -0.2295 -0.1904
 5318W        W18732   0.923  14.911   1.126  0.0247  0.2159 -0.0799
 5319W        W18733   7.703  12.618  14.868  0.3705 -0.0199 -0.0839
 5320W        W18734  10.032   6.059   5.083 -0.4027 -0.0047 -0.1280
 5321W        W18735   5.399  16.569   5.699  0.1075 -0.0780 -0.0681
 5322W        W18736   8.440   6.870  13.788 -0.0084 -0.1667  0.1397
 5323W        W18737   8.719  12.997   3.591  0.1275  0.1043 -0.0967
 5324W        W18738   1.720  15.282  13.779 -0.3304  0.1879 -0.0432
 5325W        W18739   1.695  10.349  12.934  0.1183  0.1313 -0.0691
 5326W        W18740  10.357   9.187   1.577 -0.0068  0.0512 -0.2088
 5327W        W18741  11.466   4.779   3.535  0.3531  0.1014 -0.0050
 5328W        W18742   7.966   7.517  14.733  0.1299  0.0582  0.0199
 5329W        W18743  18.361  17.587   2.620  0.0161 -0.1841  0.1965
 5330W        W18744   9.878   3.886  15.402  0.2910 -0.3277  0.0864
 5331W        W18745   3.731  12.602   4.443 -0.0320  0.0793  0.1818
 5332W        W18746  16.800  11.253   4.650 -0.2870  0.0478  0.0802
 5333W        W18747  14.997   7.397   0.762  0.0917 -0.1252 -0.1447
 5334W        W18748  10.479   0.478  14.300  0.0837 -0.1363  0.0591
 5335W        W18749  10.878   1.109  12.646  0.3112  0.1616 -0.0484
 5336W        W18750  11.614   0.077  11.289  0.3776 -0.2013 -0.1573
 5337W        W18751  13.742   6.535  12.376  0.0182  0.0215 -0.1394
 5338W        W18752   9.713   6.162   6.297 -0.0130 -0.0551  0.1392
 5339W        W18753  13.146  16.842  12.305 -0.0250  0.2377  0.1329
 5340W        W18754   6.910   5.925  11.691  0.1554  0.0812  0.0109
 5341W        W18755  15.478   1.830   6.310 -0.0329  0.2270 -0.0929
 5342W        W18756   3.346  17.762   0.535  0.2129 -0.0098  0.0659
 5343W        W18757   0.944  12.045  11.261 -0.3045 -0.2840  0.1756
 5344W        W18758   2.115   9.927  15.875  0.1797  0.0038  0.1998
 5345W        W18759   9.823  13.447  12.048 -0.2961  0.1390 -0.2753
 5346W        W18760   0.762   1.650   4.201 -0.2924  0.0450 -0.2829
 5347W        W18761   9.195   6.416   3.563  0.0234 -0.0397  0.1989
 5348W        W18762  16.508  16.900  13.449 -0.2917 -0.2300  0.1659
 5349W        W18763  11.586   0.757  13.245 -0.1040 -0.4879  0.0271
 5350W        W18764   8.645  17.921  12.959  0.0244 -0.1369  0.3673
 5351W        W18765   8.114   6.798  13.349 -0.0206 -0.0152  0.2578
 5352W        W18766   2.654   2.659   3.428  0.1497  0.2145  0.1177
 5353W        W18767   1.007  14.736  15.240  0.0200  0.0938  0.1839
 5354W        W18768  17.126  17.614  13.809 -0.0390  0.1332 -0.0082
 5355W        W18769   7.674   8.181   4.119 -0.2272 -0.3167  0.2063
 5356W        W18770  14.654   5.966  13.785 -0.3257  0.2033  0.1680
 5357W        W18771  10.966  11.737  13.061  0.0010  0.1399  0.2019
 5358W        W18772   5.299  16.499   3.568 -0.0826 -0.2085  0.0561
 5359W        W18773  10.346   0.741  13.799  0.4836  0.3531  0.3877
 5360W        W18774   1.184   1.092   2.339 -0.1714 -0.1137  0.2392
 5361W        W18775   1.105   8.905   5.685  0.1307  0.0447  0.0455
 5362W        W18776   6.664  10.119  13.500  0.0614 -0.1837  0.0710
 5363W        W18777   5.525  11.861  13.990 -0.0969 -0.0308 -0.1222
 5364W        W18778  11.421   9.464  14.780  0.3966 -0.4803  0.0573
 5365W        W18779   6.924  13.644  10.240 -0.3945  0.2550 -0.0566
 5366W        W18780   9.827  13.510  12.577  0.2024  0.1050 -0.3007
 5367W        W18781   7.907   4.914   4.306 -0.1131  0.1842  0.3654
 5368W        W18782   1.383  15.230   6.425  0.3089  0.0206 -0.1930
 5369W        W18783   3.177  11.972   0.907 -0.1405  0.0522  0.0869
 5370W        W18784   4.986   0.448   2.792 -0.0439  0.1700 -0.0140
 5371W        W18785  14.176   9.445   0.248 -0.0159  0.1566  0.0212
 5372W        W18786  11.176   2.699  11.219  0.1376  0.0797  0.0438
 5373W        W18787  12.608  10.640   0.277 -0.1994  0.0363  0.0145
 5374W        W18788   0.039  11.484   5.059  0.1901  0.0064  0.0591
 5375W        W18789  14.382  14.027  13.321 -0.0007 -0.5591 -0.0243
 5376W        W18790   7.136  10.855   4.536  0.2343  0.4330 -0.1739
 5377W        W18791   4.411   9.003  11.698 -0.0464 -0.0330 -0.0823
 5378W        W18792  10.199   1.981  13.118  0.0479  0.2548 -0.1213
 5379W        W18793  16.708  11.667  11.381 -0.0804 -0.1341  0.0667
 5380W        W18794   1.156   6.243  16.365 -0.5108 -0.2683 -0.3249
 5381W        W18795   8.598   2.163  16.411 -0.0441  0.1120  0.1101
 5382W        W18796  17.245   0.232  11.454  0.2605  0.0332 -0.0032
 5383W        W18797  10.321   7.201   1.789 -0.0944  0.2277 -0.1028
 5384W        W18798   8.093  14.483   3.767 -0.1544  0.1314 -0.0860
 5385W        W18799   2.047  11.788  13.625  0.1305  0.2906 -0.2247
 5386W        W18800  16.888   0.941  14.432  0.3414 -0.2776 -0.1626
 5387W        W18801   8.732  11.627  11.540  0.0080  0.0781 -0.2447
 5388W        W18802  13.056  11.194  11.957  0.0570 -0.2671 -0.1284
 5389W        W18803   5.820   7.434  13.573  0.0218  0.0046  0.0983
 5390W        W18804  16.524   6.321  13.881 -0.2093 -0.0469 -0.2261
 5391W        W18805   0.962  17.985  13.220  0.1321 -0.1095  0.0058
 5392W        W18806  10.779   5.557  12.078  0.1511 -0.3158 -0.2629
 5393W        W18807   2.518  13.156  14.732 -0.1433 -0.2468 -0.1295
 5394W        W18808   0.548  11.724  11.439 -0.2973  0.2197 -0.0128
 5395W        W18809   9.448   8.996   2.450 -0.1412 -0.2621  0.0169
 5396W        W18810   8.790  15.395   1.763 -0.0978 -0.0142  0.1601
 5397W        W18811  11.798   1.917  12.109 -0.2753  0.2275 -0.0995
 5398W        W18812  12.152   8.892  16.285 -0.1446 -0.2149  0.1031
 5399W        W18813   3.096   6.528   0.793 -0.0741  0.1910  0.1014
 5400W        W18814   6.635   4.734   0.869 -0.0099  0.1692  0.0901
 5401W        W18815   6.132   0.991  12.449  0.4114  0.0527  0.1268
 5402W        W18816  13.570  11.365   4.267  0.0032  0.0603  0.0023
 5403W        W18817  11.156   3.805  15.950  0.0049 -0.0606 -0.0766
 5404W        W18818  12.162  16.130   3.045 -0.1538  0.1024  0.0714
 5405W        W18819  15.466  16.826  13.232 -0.2430 -0.7143  0.2398
 5406W        W18820   2.992   5.166  10.661  0.1766  0.0256 -0.2475
 5407W        W18821   9.463   0.387  10.015 -0.0741  0.1307 -0.2075
 5408W        W18822   7.368   0.812   2.043  0.3327 -0.3576  0.0276
 5409W        W18823  15.761  11.385   4.582 -0.0629  0.1792 -0.1570
 5410W        W18824  10.244  13.120  12.767  0.0876 -0.0419 -0.2013
 5411W        W18825  10.683   3.330   5.665 -0.1384  0.2661  0.0632
 5412W        W18826   2.851   3.693  13.665  0.1553  0.1160 -0.1002
 5413W        W18827  16.760  13.113  12.490 -0.0572 -0.2808 -0.0277
 5414W        W18828   3.339  13.634  16.275  0.1609 -0.0833 -0.1430
 5415W        W18829   5.600  17.599  12.904  0.3019 -0.0748  0.0126
 5416W        W18830   7.238   8.715   5.521 -0.0873  0.1387  0.0022
 5417W        W18831   8.903   3.774  12.862 -0.2415 -0.0924  0.0142
 5418W        W18832   3.470  11.026  12.825  0.1689  0.1175 -0.1480
 5419W        W18833  16.219   8.762  15.040  0.2605  0.3587 -0.1580
 5420W        W18834  16.540   1.388  10.483 -0.0258  0.1866  0.3178
 5421W        W18835  14.034  13.951  12.966  0.1202 -0.1920  0.0244
 5422W        W18836   6.550  12.675  14.923  0.1531  0.0214 -0.0272
 5423W        W18837   6.294   3.966   1.374 -0.1060 -0.1675 -0.1119
 5424W        W18838  15.586  18.176  13.156 -0.0285  0.0464 -0.0100
 5425W        W18839  15.638   6.672  11.485  0.1089  0.0497 -0.1002
 5426W        W18840  14.335   1.457  14.037 -0.0598 -0.2034  0.0527
 5427W        W18841   7.271  15.591   4.989 -0.1753  0.0645  0.1852
 5428W        W18842   0.116   1.674   1.755  0.2531  0.0440  0.0234
 5429W        W18843  13.565   8.497  13.084  0.3544 -0.3863 -0.1016
 5430W        W18844   8.499  18.375  15.488 -0.1151 -0.0918  0.0588
 5431W        W18845   3.053   7.445  12.980  0.0171 -0.1358 -0.3844
 5432W        W18846   8.096   5.805   9.936 -0.3431  0.0970 -0.0127
 5433W        W18847   8.545   1.469   2.182 -0.2324  0.2095  0.1446
 5434W        W18848   5.501   1.080  12.250  0.0986  0.1913  0.0408
 5435W        W18849   6.398  14.904   3.719  0.1801 -0.0874 -0.0458
 5436W        W18850   8.164   8.428   5.408 -0.1687 -0.2129  0.0814
 5437W        W18851   6.863   4.682   4.624 -0.1600  0.2634 -0.0664
 5438W        W18852  11.148  16.696   1.523 -0.3974 -0.0988  0.0115
 5439W        W18853  16.595  12.880  16.134 -0.0624  0.1626  0.2523
 5440W        W18854   1.491  13.754   0.117  0.0401  0.1161  0.2003
 5441W        W18855   8.589   2.897  14.754  0.3459 -0.3638 -0.2569
 5442W        W18856  15.374   3.397  15.842  0.2168 -0.0637 -0.1156
 5443W        W18857  13.241   0.199   2.388 -0.2556  0.0598 -0.2303
 5444W        W18858  12.234   1.079  12.361 -0.1690 -0.0013  0.1207
 5445W        W18859   9.916   3.087   5.685  0.1322 -0.4268 -0.1397
 5446W        W18860  12.454  15.404   0.246  0.0775  0.0387 -0.1334
 5447W        W18861   7.127   8.075  12.322 -0.0365  0.0726 -0.0096
 5448W        W18862   7.584   7.201   4.250  0.1350 -0.3004  0.0548
 5449W        W18863  17.053   4.735   0.025 -0.0228 -0.0866 -0.0407
 5450W        W18864   4.876  11.722   4.336  0.0849 -0.0073  0.1468
 5451W        W18865  14.392   9.787  15.977 -0.4586 -0.3837 -0.0151
 5452W        W18866   3.687  16.409   3.710 -0.0809  0.0559 -0.3824
 5453W        W18867  11.696  18.113   3.450  0.2079 -0.0288  0.0919
 5454W        W18868   8.781  13.440   3.854 -0.4647  0.2938  0.1732
 5455W        W18869  18.122   0.687   4.895 -0.0042 -0.2394  0.0727
 5456W        W18870  14.334  14.081  14.603  0.2101  0.3188  0.1068
 5457W        W18871  14.701   1.054   0.623  0.0554  0.0581  0.1439
 5458W        W18872   8.874   6.671   1.384  0.1877  0.0833  0.3689
 5459W        W18873  13.333   1.641   4.455  0.2351 -0.1741  0.2970
 5460W        W18874   4.884   9.155  11.857  0.2167  0.0755 -0.0580
 5461W        W18875  15.060   1.412  12.876 -0.0776 -0.0891 -0.1321
 5462W        W18876  12.695   6.967  16.241  0.0823  0.2941 -0.0125
 5463W        W18877   5.586   2.316   2.164  0.1541  0.0670 -0.0109
 5464W        W18878  11.324  16.871  11.332 -0.1798  0.1822  0.0370
 5465W        W18879   2.087   2.472   2.962  0.2993 -0.1060 -0.0706
 5466W        W18880   2.867  17.555   1.530 -0.0233  0.0211  0.0963
 5467W        W18881  11.076  13.233  14.615 -0.1645  0.4384 -0.2404
 5468W        W18882   4.007   9.083  15.235 -0.1472  0.1040  0.1293
 5469W        W18883   8.128  14.026  10.306  0.2618  0.1722 -0.0394
 5470W        W18884  10.708   1.879  11.599 -0.0785 -0.0223 -0.3280
 5471W        W18885   9.915  11.707  12.863  0.0473 -0.0353  0.0626
 5472W        W18886  17.431   1.620  14.805  0.1839  0.1523 -0.0765
 5473W        W18887  14.896  18.026  11.498 -0.2090  0.2219 -0.2922
 5474W        W18888   4.425  13.114   3.510 -0.0971  0.0877  0.5516
 5475W        W18889   3.021   3.455   5.369 -0.0997 -0.0950  0.0273
 5476W        W18890   3.046   9.149   1.705  0.0174 -0.0847 -0.0599
 5477W        W18891   9.539   3.030  13.186  0.1663  0.1178  0.0636
 5478W        W18892  14.942  14.836   5.093 -0.2349 -0.1407  0.1085
 5479W        W18893   8.670  15.743   2.119 -0.0250  0.3804 -0.3374
 5480W        W18894  12.060   1.154  11.503 -0.0066 -0.3488 -0.2127
 5481W        W18895   9.495  18.223   5.038 -0.3091 -0.0675 -0.0771
 5482W        W18896   7.144  18.025   1.414  0.2207 -0.0813  0.0149
 5483W        W18897  11.154   6.308   2.774 -0.1694 -0.0254  0.3459
 5484W        W18898  14.564   6.950  11.826  0.0703 -0.0879  0.2287
 5485W        W18899   9.801   6.885  16.022  0.0972 -0.0753  0.4238
 5486W        W18900  17.906  11.699  13.863 -0.2001 -0.4850 -0.1062
 5487W        W18901   7.409   9.240   2.616 -0.2900  0.0664  0.2606
 5488W        W18902   0.704  14.376  15.037  0.0464  0.2287 -0.0902
 5489W        W18903   1.611  12.205   1.870  0.0532  0.1985 -0.0324
 5490W        W18904  11.788  16.783  12.878  0.0574  0.0091 -0.1163
 5491W        W18905   5.275   5.749  12.776 -0.4377  0.0324  0.0717
 5492W        W18906   4.458   4.259   5.095  0.2553 -0.0625  0.0927
 5493W        W18907  17.638  10.389  12.146 -0.3930  0.2209 -0.2408
 5494W        W18908   6.753   3.810   1.233  0.2680  0.4002  0.0550
 5495W        W18909   4.729   4.105   1.889 -0.1218 -0.0336  0.1308
 5496W        W18910  13.255   7.208   0.465 -0.2362  0.0327 -0.1748
 5497W        W18911   6.668  12.919   2.761  0.1990  0.0019 -0.3180
 5498W        W18912  17.587  16.807  14.751 -0.0318 -0.0182  0.0716
 5499W        W18913  12.356  14.572  15.148 -0.0323  0.0151 -0.0252
 5500W        W18914   2.033   1.477  14.300 -0.3599  0.2268  0.0985
 5501W        W18915  12.906   1.329   3.796  0.1426  0.0250 -0.2044
 5502W        W18916  17.188   9.232  11.770 -0.3497 -0.2032 -0.0483
 5503W        W18917  14.641   4.575  11.157  0.3569 -0.1747 -0.1463
 5504W        W18918   7.260  14.571   1.146  0.1633 -0.0293 -0.0533
 5505W        W18919   7.724  12.098  13.571 -0.1351 -0.4755 -0.1827
 5506W        W18920   7.849   5.724   4.957 -0.0726 -0.1198  0.0643
 5507W        W18921  15.332   6.185   4.225 -0.2480 -0.0761 -0.0366
 5508W        W18922  17.268  15.969  11.382  0.1548 -0.1027  0.0849
 5509W        W18923   5.773  14.228  13.416 -0.2646  0.0916  0.2616
 5510W        W18924   0.855   4.931  14.371  0.2088  0.1211 -0.0581
 5511W        W18925   7.337  10.635   3.906 -0.2204  0.0975 -0.0383
 5512W        W18926  17.246  17.607  16.088 -0.0142 -0.2637 -0.0515
 5513W        W18927  14.114   0.379  16.333 -0.1113 -0.2753 -0.0182
 5514W        W18928   5.852  17.679   3.924  0.3084  0.0999  0.0405
 5515W        W18929  14.678  16.094   2.994 -0.0896 -0.1999 -0.1252
 5516W        W18930   5.722   9.648   4.679  0.2865  0.0384 -0.0421
 5517W        W18931  11.118  13.197  16.342 -0.0758  0.1926 -0.2898
 5518W        W18932  12.803   6.225  12.145 -0.0488 -0.1225 -0.1790
 5519W        W18933  12.416   9.846  10.571  0.1196  0.1525  0.0331
 5520W        W18934   8.341  10.338  12.167 -0.0174  0.1158  0.2642
 5521W        W18935   5.052  16.138   3.269  0.0735 -0.1457 -0.2118
 5522W        W18936   9.979  11.853   5.573 -0.1633  0.0853  0.0832
 5523W        W18937   5.873   0.582   1.338  0.1607  0.2248  0.0810
 5524W        W18938   3.372  10.510  14.816  0.0673 -0.1577  0.0674
 5525W        W18939   3.112  12.963   1.139  0.0001 -0.0458  0.0042
 5526W        W18940  16.496   6.532   5.149  0.2396  0.3217 -0.2051
 5527W        W18941   2.493  17.905  14.426  0.0539  0.3155 -0.4997
 5528W        W18942  14.691   3.771   3.312 -0.1838  0.1269  0.4114
 5529W        W18943   4.164  12.077   2.586 -0.4334 -0.0139 -0.2633
 5530W        W18944  10.741   8.104   3.858  0.0563 -0.0900 -0.0198
 5531W        W18945  15.713  13.957  11.482  0.2535 -0.0099  0.0119
 5532W        W18946  17.583  11.842   2.576  0.3925 -0.1006  0.2266
 5533W        W18947   0.567  14.027   0.985  0.1423 -0.0237 -0.2484
 5534W        W18948   7.561  13.545  11.150 -0.1297 -0.1118  0.0591
 5535W        W18949   8.788   4.231  14.768  0.0275  0.0808 -0.3061
 5536W        W18950   3.579   5.100   5.077  0.1442 -0.1667 -0.2247
 5537W        W18951  12.000   4.276   5.053 -0.4095 -0.2993  0.1897
 5538W        W18952  10.937  15.170   0.043 -0.2783 -0.1656 -0.1419
 5539W        W18953   8.209   3.365  14.770 -0.4875  0.0402 -0.0228
 5540W        W18954   4.880   2.386   0.841  0.0685  0.0443  0.1395
 5541W        W18955   8.117  15.481  11.587 -0.0251 -0.0559  0.2371
 5542W        W18956   7.405  11.989  12.385  0.2342 -0.0095 -0.0036
 5543W        W18957  15.659  14.212   3.055 -0.2932 -0.0755 -0.0079
 5544W        W18958   9.699   7.759  15.089  0.2945  0.2244 -0.0931
 5545W        W18959  10.920   6.506  15.288 -0.0105 -0.4727 -0.0688
 5546W        W18960   8.481   0.466  12.531  0.3682 -0.1229 -0.2409
 5547W        W18961   6.749   2.394  14.642 -0.0037 -0.1005 -0.1541
 5548W        W18962  14.587   4.772   3.242 -0.2070  0.1742 -0.2203
 5549W        W18963  17.138   4.726  15.816 -0.0165  0.2220  0.0990
 5550W        W18964   4.349  15.623  14.637 -0.0277  0.1043  0.1663
 5551W        W18965   3.100  10.327   2.590 -0.3475  0.0441 -0.2174
 5552W        W18966   2.131  14.558  12.501  0.0429  0.0236  0.1472
 5553W        W18967   1.907   3.944  11.723 -0.1605 -0.3322 -0.0140
 5554W        W18968  11.417   8.745   4.802  0.0294 -0.1082 -0.1150
 5555W        W18969   9.471   2.540  13.431 -0.1496 -0.1519 -0.2093
 5556W        W18970  14.161  14.073   3.453 -0.1995  0.1021  0.0687
 5557W        W18971   8.577   6.549  12.361  0.0672  0.0765  0.0357
 5558W        W18972  17.072   2.589  13.256  0.3000 -0.1977  0.1080
 5559W        W18973  16.943  12.637  13.418  0.3603  0.1581  0.3610
 5560W        W18974   8.424   3.145   5.516 -0.5124  0.4441 -0.0425
 5561W        W18975   1.616  15.994   5.374  0.0283  0.2500  0.1267
 5562W        W18976  18.338   3.506   1.835 -0.0561  0.2375 -0.2308
 5563W        W18977   1.714   1.769   1.565 -0.0802 -0.0929  0.0140
 5564W        W18978  12.249   1.607  15.718 -0.1707 -0.2419 -0.3485
 5565W        W18979  11.922  14.029   4.561 -0.3516 -0.2440  0.0755
 5566W        W18980   4.972  12.863   4.674  0.2400  0.1090 -0.3989
 5567W        W18981   6.239  10.829  13.662  0.3292 -0.3898 -0.1365
 5568W        W18982   5.286   5.783   0.129  0.1313 -0.3598  0.0294
 5569W        W18983   6.148   8.967   0.525 -0.0228 -0.1668 -0.0967
 5570W        W18984  14.529   8.296  15.954  0.0215  0.0370 -0.2215
 5571W        W18985  13.473  12.019   5.607  0.0028 -0.0757 -0.0678
 5572W        W18986   8.782   6.134   5.662 -0.2551 -0.0469 -0.0032
 5573W        W18987  13.447   2.509   1.315  0.1740  0.1808 -0.0069
 5574W        W18988  16.078   8.638   2.054 -0.0294 -0.0246 -0.0123
 5575W        W18989   0.034  10.426   1.429  0.1315 -0.0764  0.1049
 5576W        W18990   9.767  10.701   4.644  0.0993 -0.2709 -0.0982
 5577W        W18991   1.943   4.859  16.020  0.1862  0.0618  0.1434
 5578W        W18992   7.749  14.183  16.126  0.4989 -0.1855  0.0437
 5579W        W18993  13.373   9.094  13.489 -0.1512 -0.1025  0.4044
 5580W        W18994   1.592  11.609  13.797  0.4184 -0.0984  0.0139
 5581W        W18995   1.180  17.831  15.133 -0.0662  0.3204  0.1833
 5582W        W18996   7.249   6.166  12.230 -0.2257  0.2347 -0.0479
 5583W        W18997   2.043  11.446   5.781 -0.0427  0.2367 -0.6362
 5584W        W18998  12.455  17.136   4.159 -0.2949  0.2130 -0.1188
 5585W        W18999  12.170   1.787  13.838  0.0155 -0.1360  0.0838
 5586W        W19000   2.848  16.179  15.447 -0.1649 -0.3852 -0.0800
 5587W        W19001  16.560   6.163   3.294 -0.0380  0.3026  0.1982
 5588W        W19002  16.564  10.631  12.878  0.1454  0.0946 -0.0926
 5589W        W19003   9.748   3.639   0.877 -0.0858  0.0929 -0.0447
 5590W        W19004   3.469   9.673   3.390 -0.1741 -0.0327 -0.0414
 5591W        W19005   6.028   8.275   9.933  0.3292 -0.2442  0.0880
 5592W        W19006  18.367  16.558  13.154  0.0307 -0.0248 -0.1135
 5593W        W19007   1.979   0.057  13.123 -0.3107  0.0819 -0.1116
 5594W        W19008  14.144  15.249  16.294 -0.2500 -0.3167  0.2696
 5595W        W19009   7.318   0.837   2.974  0.1762 -0.2327 -0.0526
 5596W        W19010  17.061  11.477  12.311 -0.0986  0.0075  0.0481
 5597W        W19011   5.926  13.774   5.775 -0.1563 -0.1864  0.0287
 5598W        W19012   6.552   2.093   5.408  0.0412 -0.4551 -0.0967
 5599W        W19013   6.235   7.297   4.062  0.1426 -0.0012  0.1064
 5600W        W19014  16.635   1.900   1.006  0.2080 -0.1030  0.1049
 5601W        W19015   3.508  12.658  15.852  0.1002  0.1698  0.0560
 5602W        W19016   1.960  12.177   0.981  0.0452 -0.0429  0.0405
 5603W        W19017  13.702   0.509  10.736  0.3893  0.0421 -0.0402
 5604W        W19018   6.262  14.425  14.172 -0.0056 -0.0013  0.3347
 5605W        W19019   6.524   1.487  13.781  0.3807 -0.2550  0.1295
 5606W        W19020   4.661   4.783  12.557  0.3462  0.3277  0.1278
 5607W        W19021  16.676  14.125  12.392  0.1441  0.1309 -0.3331
 5608W        W19022  10.987   3.359  16.030  0.0904 -0.0823 -0.0649
 5609W        W19023  13.408   1.439   3.976 -0.1976 -0.0176 -0.1589
 5610W        W19024  14.443   7.639   3.102 -0.2967 -0.2124  0.0960
 5611W        W19025   1.058   9.764  10.278 -0.3980 -0.0370  0.1733
 5612W        W19026   1.821   8.851  11.999 -0.0061  0.2615 -0.1953
 5613W        W19027   9.264   1.634  15.968  0.0431 -0.0916  0.0051
 5614W        W19028  14.768  13.002   6.343 -0.0202  0.1347  0.1287
 5615W        W19029   7.010  13.762   3.249 -0.0233 -0.3253  0.3986
 5616W        W19030   3.191   6.471  15.503  0.1145  0.2583 -0.0284
 5617W        W19031  18.144   0.133   4.077 -0.0034  0.2116 -0.3032
 5618W        W19032  13.437   3.043  12.073  0.0473 -0.2508 -0.0872
 5619W        W19033   9.780   5.966   0.222 -0.1000  0.4098  0.0711
 5620W        W19034  17.858  15.951   2.110 -0.1279 -0.3083  0.2310
 5621W        W19035   8.868   6.817   3.385 -0.2220  0.0760 -0.0026
 5622W        W19036   4.287  12.894   3.115 -0.1465 -0.0256 -0.3100
 5623W        W19037   1.054   1.779  11.682  0.0527  0.1242 -0.0001
 5624W        W19038  15.825  18.345   3.177 -0.0432  0.0464  0.3138
 5625W        W19039   3.081  12.637  13.216  0.2248  0.2892  0.1561
 5626W        W19040  15.998   5.029  14.132 -0.1569  0.2464 -0.0659
 5627W        W19041   9.480  16.870  11.674 -0.0549  0.1055 -0.0424
 5628W        W19042   8.003   0.298  14.669 -0.0616  0.0488 -0.2626
 5629W        W19043  15.594   7.138  13.266 -0.2116  0.0225  0.0097
 5630W        W19044  11.027   3.092   0.728 -0.3187  0.0056 -0.2245
 5631W        W19045   9.794  16.389  10.848  0.0480 -0.0683  0.0737
 5632W        W19046   6.871   0.558   3.222 -0.3050  0.0791  0.1366
 5633W        W19047  14.475  16.848   1.048 -0.0515  0.1696 -0.0892
 5634W        W19048   5.714   1.102   5.515 -0.0440  0.0386 -0.4055
 5635W        W19049  14.674   9.189   5.594 -0.1690  0.0223  0.2428
 5636W        W19050   1.485  15.756   1.006  0.1861  0.2073 -0.0499
 5637W        W19051   7.824  11.137  10.730 -0.2878 -0.3035  0.0781
 5638W        W19052  13.096   1.524   1.647 -0.1123 -0.0756  0.1013
 5639W        W19053   1.217  15.095   0.152 -0.1020  0.1209 -0.2949
 5640W        W19054  17.078  18.379  14.336  0.0662 -0.0111  0.2491
 5641W        W19055   2.588  15.075   0.875 -0.0922 -0.0486  0.0123
 5642W        W19056  13.768  14.191   3.154  0.0514 -0.0370  0.0777
 5643W        W19057   2.012  15.388  14.168 -0.2040 -0.0353 -0.0052
 5644W        W19058  16.529   3.873  13.734  0.0474  0.2287 -0.2651
 5645W        W19059   4.066  12.205  13.478  0.3081 -0.0282  0.2029
 5646W        W19060  17.008  17.411   5.103 -0.0695 -0.1193  0.2900
 5647W        W19061  14.056  15.418  13.362 -0.0054 -0.2726 -0.2607
 5648W        W19062  13.454   9.125  10.859  0.1305  0.3414  0.2460
 5649W        W19063   5.028  17.030  14.095  0.0594 -0.1383  0.0681
 5650W        W19064  16.674  12.933   5.955  0.1753 -0.2149  0.0705
 5651W        W19065  17.516   4.929  11.840 -0.0321 -0.4214 -0.0260
 5652W        W19066   7.732  12.205  13.120 -0.1409 -0.0965 -0.2189
 5653W        W19067   5.888  16.898   1.727 -0.2485 -0.0605 -0.1953
 5654W        W19068  14.371   8.032   1.387 -0.0172  0.0619  0.1046
 5655W        W19069   8.714  12.210  14.057 -0.1030  0.2804  0.1292
 5656W        W19070   8.350   4.295   3.259  0.0707 -0.0741  0.0071
 5657W        W19071  10.679   4.293   1.917  0.0917  0.1628 -0.1379
 5658W        W19072  11.306  13.710   0.017  0.3041  0.0969 -0.4254
 5659W        W19073   3.928   0.365   4.409  0.1502  0.3229 -0.0600
 5660W        W19074   6.618   2.826  16.247 -0.0494  0.1622 -0.0346
 5661W        W19075   7.637  16.144  10.478 -0.0517  0.2096  0.0214
 5662W        W19076   7.602  13.585  12.822  0.1503 -0.2720 -0.0430
 5663W        W19077  14.954  12.344   2.272  0.0813  0.2255 -0.1281
 5664W        W19078  14.306   4.535  15.793 -0.1754 -0.1263 -0.1041
 5665W        W19079   9.377  17.116  12.838 -0.0539 -0.0799  0.3190
 5666W        W19080   9.248  12.093  14.809 -0.1968 -0.3775  0.2954
 5667W        W19081  11.112   1.655  14.182  0.0547 -0.0397 -0.1021
 5668W        W19082  17.315  10.965  12.093 -0.1710  0.2358 -0.0881
 5669W        W19083  16.385   0.647   5.191  0.2132 -0.0665  0.0634
 5670W        W19084  11.904   8.271  11.180 -0.2284  0.1620 -0.3940
 5671W        W19085   2.233   5.438   4.181 -0.4315 -0.0429 -0.2178
 5672W        W19086  17.820   6.337  13.704  0.3072  0.1668 -0.0625
 5673W        W19087   7.887  17.056  15.974  0.1415 -0.1409  0.2053
 5674W        W19088   6.304   5.109   0.217 -0.0258 -0.0115  0.0787
 5675W        W19089  11.160   6.931  16.108 -0.0415  0.1203  0.1913
 5676W        W19090   4.348   8.329  12.937 -0.1051  0.1796  0.0439
 5677W        W19091   0.959  13.270   6.687  0.1448  0.2630 -0.2208
 5678W        W19092  17.336  16.767   5.372  0.0342  0.1536 -0.3451
 5679W        W19093   9.166   6.722   2.577 -0.0192 -0.2106 -0.0724
 5680W        W19094   7.448   6.866   5.535  0.0848 -0.1700 -0.2824
 5681W        W19095  13.705   2.835   4.978  0.1696 -0.1958  0.0545
 5682W        W19096   0.367   6.763  14.966 -0.4685  0.1088  0.0728
 5683W        W19097   7.497   8.199  14.253  0.1680 -0.0121 -0.0936
 5684W        W19098   5.093   6.849  13.477  0.1037  0.0951  0.1522
 5685W        W19099  11.614  14.016  10.679 -0.1960 -0.0543  0.1217
 5686W        W19100  15.651  18.368   1.285  0.2801 -0.1690  0.1210
 5687W        W19101  17.176   5.667   6.054 -0.0833 -0.3597  0.1677
 5688W        W19102  16.094   6.213  12.562 -0.1647 -0.0468  0.1004
 5689W        W19103  10.247   1.880   3.531  0.1343 -0.2956 -0.0632
 5690W        W19104   7.332   6.291   2.466  0.2395 -0.2213 -0.2362
 5691W        W19105   2.650   2.228   3.106 -0.1222  0.3505  0.0213
 5692W        W19106  14.387   3.298   4.504 -0.2928 -0.0468  0.0013
 5693W        W19107  10.146   6.218   0.017  0.0764  0.0646 -0.0140
 5694W        W19108  16.337   4.040   1.708 -0.1448 -0.0540 -0.1598
 5695W        W19109   9.056   8.817   5.863  0.0630  0.3801 -0.3862
 5696W        W19110   9.493   7.550  11.074  0.1555  0.3295 -0.1086
 5697W        W19111   5.277   2.349  11.328  0.0210 -0.2349 -0.1238
 5698W        W19112  15.468  13.388   5.637  0.2638 -0.1191 -0.0800
 5699W        W19113  12.300  15.391  12.309  0.2225  0.2683 -0.1357
 5700W        W19114  17.306  16.259   1.225  0.1907 -0.0651  0.2612
 5701W        W19115  14.379   3.330   3.996  0.0195  0.0166  0.0196
 5702W        W19116   9.290   9.305  12.029 -0.1921 -0.1529 -0.0211
 5703W        W19117  17.864   5.607   0.816 -0.1317  0.2212 -0.0198
 5704W        W19118   0.129   5.151  15.571  0.0892  0.0586  0.1490
 5705W        W19119  10.133   6.621  10.222 -0.0591 -0.1218  0.3466
 5706W        W19120   9.173   8.865  12.928 -0.0122 -0.3426 -0.1411
 5707W        W19121  13.202   9.047  16.064  0.1284  0.1016 -0.2621
 5708W        W19122   0.927   5.748   3.610  0.1390  0.1081  0.1527
 5709W        W19123  15.903  12.318  11.903 -0.1433  0.2123  0.0647
 5710W        W19124  15.351  11.638   4.667 -0.2744  0.2158  0.2642
 5711W        W19125   2.901   0.843  14.326  0.0378  0.2416 -0.0563
 5712W        W19126   1.441   5.895  16.395 -0.2611 -0.1302 -0.0213
 5713W        W19127  12.650  13.687   0.539  0.2058 -0.2368 -0.0543
 5714W        W19128  16.979  16.828   2.984 -0.0556  0.2691 -0.2551
 5715W        W19129   3.106   5.682  12.691 -0.0427  0.0496 -0.2292
 5716W        W19130  16.707  12.817   3.804  0.2678  0.0928 -0.0782
 5717W        W19131  17.908  12.766   2.336  0.1592  0.1181 -0.3366
 5718W        W19132  12.566  17.237   5.651  0.0331  0.1489 -0.1324
 5719W        W19133  16.304  11.956  13.280 -0.2278 -0.4114  0.1506
 5720W        W19134  14.781   2.836   0.900 -0.1405  0.1073  0.1281
 5721W        W19135   3.872   0.584  15.227  0.2885 -0.1359 -0.0549
 5722W        W19136  15.526   3.831  14.853 -0.1551  0.1910  0.1160
 5723W        W19137  18.375  11.289  14.486  0.2110 -0.2955 -0.0074
 5724W        W19138  16.920   1.091   3.583 -0.1437  0.2766 -0.1605
 5725W        W19139  16.501  16.138   3.830  0.0773 -0.1627  0.1164
 5726W        W19140  11.475   4.508   0.158  0.0179  0.0566  0.1261
 5727W        W19141   3.697  11.966   2.156 -0.1480 -0.1361  0.3819
 5728W        W19142  14.609   1.720   1.747 -0.3495  0.1347 -0.2865
 5729W        W19143   8.822   0.197  13.359 -0.0690 -0.0304  0.1988
 5730W        W19144   8.953  13.921   0.560 -0.1840 -0.1096  0.0443
 5731W        W19145   8.370   5.330   2.856 -0.0456 -0.0819  0.1193
 5732W        W19146   1.775  16.450  12.160  0.0968  0.0272 -0.2883
 5733W        W19147   6.872   2.934   2.737  0.2351 -0.2225  0.0760
 5734W        W19148   4.397  18.234  16.363 -0.2418  0.2476 -0.0599
 5735W        W19149   0.098   4.948   2.972 -0.2169 -0.1306  0.1073
 5736W        W19150  18.262   6.230  14.079  0.0895  0.1348  0.0857
 5737W        W19151   9.996   3.717   3.572  0.0704 -0.0050  0.0739
 5738W        W19152  18.347   1.527   2.672  0.1918 -0.4191 -0.1613
 5739W        W19153   5.829   1.797  15.655  0.2833 -0.1394 -0.0848
 5740W        W19154   1.526   0.378  15.318  0.1097  0.0325 -0.0718
 5741W        W19155   9.438  10.973  13.297  0.1886  0.0742  0.1019
 5742W        W19156  15.416  17.033   4.983 -0.0827 -0.0694 -0.3493
 5743W        W19157   1.917  16.382  14.786  0.1215  0.2386  0.1589
 5744W        W19158   8.146   7.017   2.366 -0.1119 -0.3291  0.3572
 5745W        W19159   2.346   7.136   1.870  0.2130  0.1671 -0.2552
 5746W        W19160  17.830   1.404   0.123  0.2671 -0.0232  0.0741
 5747W        W19161  10.843  11.851  16.353 -0.0618  0.2481  0.2558
 5748W        W19162  12.156  14.124  14.412 -0.1736  0.2547 -0.0314
 5749W        W19163   4.809  13.275  13.097  0.0214  0.0058  0.2793
 5750W        W19164  17.976  14.416  11.041 -0.0120  0.2116 -0.2896
 5751W        W19165   4.785  11.987  15.522 -0.0990  0.0596  0.0911
 5752W        W19166   3.700   9.769  12.254  0.0494  0.0843  0.0652
 5753W        W19167   9.454   1.833   3.347  0.5658 -0.0959 -0.3281
 5754W        W19168   4.877   3.825  12.658 -0.2807  0.4302 -0.3018
 5755W        W19169   2.495   0.512   0.703  0.1940 -0.2453  0.3647
 5756W        W19170   7.094   9.521   4.727 -0.3242 -0.1289  0.1718
 5757W        W19171   1.822  15.390   0.826  0.1534 -0.2149 -0.0314
 5758W        W19172   1.559  11.057  12.451  0.0320  0.1858  0.2769
 5759W        W19173   2.814  17.655  15.666 -0.0488 -0.0742  0.2302
 5760W        W19174  14.686  14.735  12.437 -0.1181  0.0103 -0.1241
 5761W        W19175   7.487   7.367   5.903  0.0278 -0.0459  0.0944
 5762W        W19176   2.924   7.495   1.762  0.4108 -0.0830 -0.0971
 5763W        W19177   0.991   4.265   5.045 -0.1655  0.0054 -0.2034
 5764W        W19178  10.044   7.603  13.557  0.0478  0.2000  0.0712
 5765W        W19179  17.927  11.282  13.643  0.1783 -0.1292  0.3569
 5766W        W19180  16.834   8.757   1.183  0.3363 -0.2622 -0.0808
 5767W        W19181   6.885   6.575   3.938  0.6150  0.2605 -0.0825
 5768W        W19182  14.418   3.158  12.357  0.1248  0.1627 -0.0828
 5769W        W19183   3.993   8.713  12.822  0.4132 -0.1510 -0.0730
 5770W        W19184  15.314   9.860  13.273  0.1980 -0.0805  0.0687
 5771W        W19185   5.292   5.605   0.792 -0.1384  0.0083  0.0020
 5772W        W19186  13.831  14.115   1.473 -0.0533  0.1025 -0.3339
 5773W        W19187  15.003   1.874  12.717 -0.2833  0.0278  0.4825
 5774W        W19188  10.838   8.146  13.637  0.0903 -0.0627  0.0336
 5775W        W19189  17.690   4.775   5.741  0.1204  0.1409 -0.1766
 5776W        W19190  11.174   9.589   4.309  0.0154 -0.1688 -0.0420
 5777W        W19191   0.379   6.870   2.792 -0.2512 -0.0061 -0.0936
 5778W        W19192  13.684  17.844  16.451 -0.2607  0.1241  0.2130
 5779W        W19193  17.205   0.329  12.917  0.2435 -0.1287  0.2649
 5780W        W19194   4.591   8.685  10.183 -0.1270 -0.0240 -0.0362
 5781W        W19195  11.119  16.924   4.217 -0.2821  0.1557 -0.0675
 5782W        W19196  17.066  17.817   3.886 -0.2183  0.0343  0.0740
 5783W        W19197   3.981   6.806   3.933  0.1655 -0.1216 -0.1074
 5784W        W19198   6.586   7.763  10.387  0.4113 -0.0513  0.0094
 5785W        W19199  10.501  17.495  14.182  0.0039  0.0911  0.4369
 5786W        W19200  17.529   8.760  15.118  0.1024 -0.0474 -0.2253
 5787W        W19201  14.083   8.144   4.639  0.1612  0.1675  0.0023
 5788W        W19202   6.322  10.795   1.123 -0.1094  0.0219  0.0154
 5789W        W19203   8.236  12.388  16.361 -0.0919 -0.3728  0.1416
 5790W        W19204   1.096   0.169  15.571 -0.0682  0.2398 -0.1733
 5791W        W19205  10.274   0.589   2.636 -0.2187 -0.1233  0.0427
 5792W        W19206   7.186   0.484   6.339 -0.2469 -0.0393 -0.2953
 5793W        W19207   3.673   5.354  10.078  0.0198 -0.4196  0.0147
 5794W        W19208   1.167  12.462  13.774  0.0170 -0.0066  0.0226
 5795W        W19209   9.472  17.908  15.740  0.2045 -0.1734 -0.1292
 5796W        W19210  14.034  10.019  12.004 -0.0442  0.6728 -0.0069
 5797W        W19211  14.345  12.072  15.839  0.0570  0.0671 -0.2544
 5798W        W19212  12.848   3.244   0.722 -0.1062  0.0803 -0.0990
 5799W        W19213  16.602   5.803   4.358 -0.3862 -0.1781  0.3124
 5800W        W19214  18.126  15.431   4.250  0.0849  0.2288  0.0837
 5801W        W19215   5.434  12.857  11.719  0.0144 -0.1080  0.0496
 5802W        W19216   2.808  17.623   5.538  0.0531 -0.2391 -0.0884
 5803W        W19217   5.901  10.058  12.118 -0.0020 -0.0390 -0.1846
 5804W        W19218   9.698   2.022   4.830  0.1388  0.2363  0.1456
 5805W        W19219  16.919   7.278   9.729  0.1544  0.2181  0.2353
 5806W        W19220   3.231  15.821   2.092  0.2079 -0.0988 -0.1159
 5807W        W19221   4.274  11.253   4.401 -0.0488  0.0954 -0.1094
 5808W        W19222   4.290  16.472  12.379  0.0156 -0.1500  0.1283
 5809W        W19223   2.248  15.801  12.868 -0.5291 -0.0604  0.1606
 5810W        W19224   4.076  17.579  10.991 -0.3187  0.1767 -0.3792
 5811W        W19225  11.464   1.094   1.992 -0.1290  0.2769  0.1357
 5812W        W19226   9.734   7.514   0.198  0.1379 -0.2529 -0.0973
 5813W        W19227   6.103   2.302   5.620  0.1140  0.0957  0.3540
 5814W        W19228  10.898  10.111   1.346  0.1018  0.1030 -0.0430
 5815W        W19229  16.655  15.058  13.769 -0.0414 -0.1109 -0.1492
 5816W        W19230  14.391   8.839   2.312  0.0952  0.2808  0.1939
 5817W        W19231  10.355  13.535   3.896 -0.0361  0.0085 -0.0987
 5818W        W19232   7.804  12.603  11.159  0.1564 -0.3638 -0.0056
 5819W        W19233  15.719  17.222   7.039  0.0517 -0.1269 -0.0279
 5820W        W19234  13.158   1.608  13.009 -0.4032 -0.1427  0.0239
 5821W        W19235   1.198   6.211   5.518  0.2771 -0.1306  0.2055
 5822W        W19236   2.969   2.767  15.577 -0.1030  0.1198 -0.0324
 5823W        W19237   4.924  13.429   5.198  0.0010 -0.0457  0.0928
 5824W        W19238  13.548   0.133  13.907  0.0325  0.0476 -0.0745
 5825W        W19239  16.788  14.168   4.321  0.3626 -0.1720  0.0906
 5826W        W19240   3.295   0.203  12.006  0.2095 -0.0645 -0.1551
 5827W        W19241  13.863   2.166  15.906  0.1290  0.1437  0.0432
 5828W        W19242  12.618   5.550  14.730  0.4734  0.0345  0.0066
 5829W        W19243   9.889  12.913   3.299  0.1570  0.0005 -0.2297
 5830W        W19244  15.605   1.447   3.064 -0.0382  0.0634 -0.1189
 5831W        W19245   4.078   1.170   4.704 -0.1881 -0.1040 -0.0635
 5832W        W19246  16.329   7.197   0.158 -0.0050  0.1327  0.3030
 5833W        W19247   6.355  12.122   4.518 -0.2421 -0.0557  0.1061
 5834W        W19248  11.565   7.709  15.586  0.1847  0.0993  0.0038
 5835W        W19249   2.853  13.943  12.706  0.0120  0.0797  0.0508
 5836W        W19250  16.752   4.542   3.995 -0.0467 -0.0507  0.1597
 5837W        W19251  15.426   7.157   1.045  0.0624 -0.0330  0.1126
 5838W        W19252   1.914   1.868   6.304  0.1250 -0.1273  0.0647
 5839W        W19253   7.008  10.818   0.350 -0.0737 -0.1077 -0.0580
 5840W        W19254  13.751   5.015  14.468 -0.2797  0.2767 -0.0390
 5841W        W19255   6.425  16.539   2.218 -0.2578 -0.0709  0.1119
 5842W        W19256   3.830   4.534  10.480  0.0731  0.0803 -0.0731
 5843W        W19257  13.884  13.210  14.651 -0.0884  0.0007  0.0966
 5844W        W19258   2.861  16.466  14.980 -0.1432 -0.0767  0.1863
 5845W        W19259  10.539   1.432  12.396  0.3883 -0.1169 -0.0195
 5846W        W19260  16.509   2.621  15.073 -0.0939 -0.3172  0.0542
 5847W        W19261  15.651   8.747   2.344  0.0332  0.0895 -0.4550
 5848W        W19262  14.423  10.769  16.025 -0.2010 -0.0727 -0.1880
 5849W        W19263  16.007   5.162   1.283 -0.4163 -0.1711  0.1509
 5850W        W19264  11.425   2.437   2.605  0.3804 -0.1015  0.0791
 5851W        W19265  11.722   5.516   4.581 -0.1306 -0.0866  0.3663
 5852W        W19266  17.729  16.906  11.900  0.1494 -0.0688 -0.2810
 5853W        W19267  10.234   4.962  12.497  0.1599 -0.1934 -0.0814
 5854W        W19268  12.041   4.096  13.644 -0.0666  0.2054 -0.3331
 5855W        W19269  13.074   9.344   4.574 -0.0180 -0.0290 -0.0308
 5856W        W19270   2.446  12.099   0.782  0.0396  0.0349 -0.0281
 5857W        W19271   3.576   5.500  12.101 -0.0468  0.2641 -0.0130
 5858W        W19272   3.576  18.033  15.870  0.0007  0.2187 -0.0764
 5859W        W19273   4.245   8.073  13.369  0.3003  0.1971  0.0447
 5860W        W19274  16.916   0.777  13.520 -0.1907 -0.1033 -0.4778
 5861W        W19275   6.996  10.316  11.047  0.0710  0.0078  0.0045
 5862W        W19276   0.035   3.081  10.811 -0.2479  0.2517  0.1451
 5863W        W19277  17.564   8.835  10.678  0.1439  0.0142  0.0466
 5864W        W19278   3.067  17.822  12.550  0.1939  0.0598  0.0331
 5865W        W19279   8.784  13.225   4.365 -0.1508 -0.2952  0.0268
 5866W        W19280  12.808  11.544   0.549 -0.0339  0.1126  0.0848
 5867W        W19281   8.259   8.361  14.367  0.0184 -0.3606 -0.2366
 5868W        W19282   3.200  11.350   2.365 -0.3756  0.3814  0.2430
 5869W        W19283   8.404  13.973   2.730  0.1129 -0.2553 -0.1629
 5870W        W19284   7.050  17.308   4.093  0.2534 -0.2694 -0.0476
 5871W        W19285   7.836   5.235   0.918 -0.2390  0.1232 -0.1585
 5872W        W19286  10.491  17.878  15.843 -0.1737 -0.3498 -0.1302
 5873W        W19287   6.905   0.220  11.246 -0.2058 -0.0549 -0.1680
 5874W        W19288   6.109   5.486   5.306 -0.0297 -0.0462 -0.1414
 5875W        W19289   7.351  17.250  15.461  0.0400 -0.1592  0.2539
 5876W        W19290   4.263  17.687  16.430 -0.4788 -0.3341 -0.0436
 5877W        W19291  12.890   5.337   3.853  0.0948 -0.0634  0.0396
 5878W        W19292   8.375   1.954  11.552 -0.1424  0.1256  0.0210
 5879W        W19293   2.107  17.534   2.497 -0.1658  0.0726  0.1222
 5880W        W19294   6.328   0.897  10.337 -0.1359  0.1420 -0.1226
 5881W        W19295   3.065   7.055   4.461  0.0323 -0.0402 -0.0443
 5882W        W19296  10.717  13.660  14.693  0.1081  0.1937 -0.0441
 5883W        W19297   1.898  17.508   0.020 -0.1282  0.2022  0.1064
 5884W        W19298  15.002   8.785   5.373 -0.4891  0.0370 -0.4165
 5885W        W19299   1.616   9.681   4.682 -0.0494  0.2176 -0.0234
 5886W        W19300   7.915   8.734  12.417 -0.0865 -0.2116  0.3561
 5887W        W19301  10.168  16.932  12.165  0.1943  0.1110  0.0009
 5888W        W19302   4.852   7.943   0.575 -0.1156  0.2659 -0.2613
 5889W        W19303   4.508  11.759  12.207  0.0968 -0.0548  0.0086
 5890W        W19304   4.772   8.593  11.212 -0.1013 -0.0070  0.0900
 5891W        W19305  11.649  15.573  12.462 -0.0492 -0.2080 -0.0765
 5892W        W19306   1.082   1.827   5.287  0.0173  0.0222 -0.0170
 5893W        W19307   2.416   9.936   5.193 -0.0873  0.2185  0.2274
 5894W        W19308   7.353   8.455   0.079  0.3969 -0.4992 -0.1873
 5895W        W19309   9.630  11.811  12.455  0.0393  0.0764  0.3622
 5896W        W19310  13.387   4.273  12.578  0.0634 -0.1637 -0.0956
 5897W        W19311   9.935   5.719  13.023 -0.2632 -0.1514 -0.0022
 5898W        W19312   3.055  16.155   1.220  0.0916 -0.1319 -0.1616
 5899W        W19313  14.542   4.245  16.184 -0.3333 -0.2721  0.1793
 5900W        W19314   5.814  17.996   3.455  0.1811 -0.3494 -0.0306
 5901W        W19315   7.646   1.467  10.914  0.0528  0.2718  0.1889
 5902W        W19316   9.249  10.513  11.054 -0.1538 -0.0945 -0.0226
 5903W        W19317   8.983  13.820   1.996 -0.2955  0.1903  0.0031
 5904W        W19318   2.305   1.763  16.382 -0.0562  0.1292  0.1760
 5905W        W19319   3.684  10.474   3.792  0.1643 -0.2286 -0.1624
 5906W        W19320  13.307   3.860  14.886 -0.1018  0.1244 -0.0576
 5907W        W19321   5.729  17.109   0.472 -0.0555 -0.2422  0.0007
 5908W        W19322   1.317   6.519  14.197  0.0247 -0.2817  0.0559
 5909W        W19323  10.617  10.410   0.980 -0.0028 -0.0624 -0.1104
 5910W        W19324  16.782  11.968   2.319 -0.0487  0.1350  0.0724
 5911W        W19325  16.052   8.428   1.606 -0.2064  0.0671  0.2370
 5912W        W19326  17.942   4.197  16.446 -0.4714 -0.0137  0.1114
 5913W        W19327   2.128   9.841   1.559  0.1737  0.0482  0.1929
 5914W        W19328   9.044  15.102  11.291  0.1702  0.1997 -0.2771
 5915W        W19329   0.257   1.148   3.132  0.0150  0.1320 -0.1089
 5916W        W19330   1.981  11.411   2.110  0.4176 -0.0697  0.0278
 5917W        W19331   2.137   0.998   4.846  0.1592 -0.0782 -0.2054
 5918W        W19332  11.224   1.267   3.061 -0.1787 -0.0621 -0.0247
 5919W        W19333   8.794  14.860  16.103  0.3187 -0.0053  0.1628
 5920W        W19334   8.227   0.450  16.457 -0.0587 -0.2428 -0.1456
 5921W        W19335   3.832  14.036  14.326  0.2778  0.0020 -0.0295
 5922W        W19336   6.819   3.175   0.005 -0.1271  0.1692 -0.4363
 5923W        W19337  18.100   2.048  13.487 -0.0157 -0.0787 -0.0280
 5924W        W19338   1.194  16.636   4.178 -0.0634 -0.2130  0.0129
 5925W        W19339  10.246   1.883   1.252  0.1217 -0.3270  0.0777
 5926W        W19340   5.965   7.329   0.325  0.0378 -0.0729  0.1590
 5927W        W19341   6.598   8.822   4.397  0.0989 -0.2896  0.3626
 5928W        W19342   8.473   6.690   4.163 -0.2325  0.0925 -0.0299
 5929W        W19343   8.863  12.600  11.289 -0.1224 -0.1024 -0.0727
 5930W        W19344  12.076  13.180  12.240  0.1329  0.0133 -0.2373
 5931W        W19345  13.298   0.047  13.463  0.1483  0.1946 -0.2708
 5932W        W19346  17.371  13.164   0.338  0.0292 -0.1263  0.1986
 5933W        W19347   4.604   4.652   4.476 -0.0814  0.0718 -0.3789
 5934W        W19348  13.573  17.107  12.423  0.0463  0.1024 -0.0450
 5935W        W19349  17.785  11.157   4.560 -0.1572  0.0205  0.1142
 5936W        W19350  18.047   6.956   1.716 -0.0090 -0.0262 -0.2977
 5937W        W19351  15.042   2.527   6.239  0.0855  0.1376  0.0302
 5938W        W19352   7.546   1.279  10.421  0.4560  0.0255  0.2405
 5939W        W19353   6.957  14.361  13.332 -0.2081 -0.0991  0.2107
 5940W        W19354   2.491  13.522   2.475 -0.0515 -0.2422  0.2302
 5941W        W19355   7.037   0.439   2.728  0.2632 -0.0652 -0.2415
 5942W        W19356   9.525   5.231  11.358  0.0148  0.0550 -0.0205
 5943W        W19357   4.485   6.752   3.688 -0.1552 -0.3525 -0.2865
 5944W        W19358   4.836  14.062  16.342  0.4561 -0.2896 -0.1607
 5945W        W19359   7.414   3.489   4.658  0.1045 -0.1748 -0.2374
 5946W        W19360   9.577  12.917  13.999  0.2031  0.1270 -0.0720
 5947W        W19361  12.419   0.472   2.886 -0.0761 -0.1796  0.0357
 5948W        W19362   6.042   0.037  16.088  0.0064 -0.2046 -0.0000
 5949W        W19363  16.199  14.859  13.990  0.1425  0.1756  0.0942
 5950W        W19364  17.999  11.562  15.316 -0.0856 -0.2066  0.0019
 5951W        W19365  10.089  11.446  13.381  0.0642 -0.2146 -0.4265
 5952W        W19366  17.019   1.576  12.912  0.2443 -0.1267 -0.1023
 5953W        W19367  16.847  13.512  15.080 -0.0098 -0.2620  0.0551
 5954W        W19368   4.750  13.710  14.520 -0.0655  0.1456 -0.2861
 5955W        W19369  13.778   7.378   9.773 -0.1856 -0.0195 -0.1215
 5956W        W19370  12.839  16.487  14.956  0.2777 -0.0341  0.1940
 5957W        W19371   2.318  15.657   2.990 -0.2082  0.3124 -0.0415
 5958W        W19372  18.100  12.021  15.308 -0.0733 -0.1015  0.2628
 5959W        W19373   8.886  13.690   1.475 -0.0551  0.5348  0.2441
 5960W        W19374   7.828   2.642   3.423 -0.0895  0.2051 -0.2382
 5961W        W19375   0.498   1.959  11.542  0.0045 -0.0753 -0.0366
 5962W        W19376   4.323  15.808   3.881  0.1988 -0.2579  0.0040
 5963W        W19377  10.359  13.937   4.274  0.1175  0.2613  0.0506
 5964W        W19378  13.886  16.127  12.679 -0.2576 -0.3341  0.1667
 5965W        W19379  11.272   3.112  13.104 -0.1529 -0.2785 -0.1023
 5966W        W19380  15.943   2.581  10.594 -0.1244  0.3266 -0.0257
 5967W        W19381  14.735  17.194  11.555  0.3779 -0.0421 -0.1723
 5968W        W19382  16.997  14.725  13.889 -0.2124 -0.1278 -0.1770
 5969W        W19383   7.192   3.593  12.383  0.0414  0.1348 -0.2081
 5970W        W19384  11.894   4.538   5.477 -0.1311 -0.0890 -0.0961
 5971W        W19385  11.964  18.026   2.905 -0.0863  0.1521 -0.5518
 5972W        W19386  17.821   9.381   3.609 -0.0306 -0.0470  0.0698
 5973W        W19387   5.223   8.760  15.450 -0.1691  0.1468  0.0558
 5974W        W19388  10.562  12.257   1.084 -0.4482 -0.2902  0.1400
 5975W        W19389  15.270  17.737   6.056 -0.0974  0.1372  0.0669
 5976W        W19390  14.590  12.874   2.135  0.0731  0.3613 -0.1249
 5977W        W19391   0.824  10.820  15.775  0.0197  0.0054  0.1291
 5978W        W19392  10.023  15.646  13.796  0.0231 -0.1533 -0.0610
 5979W        W19393   1.275  11.879   2.634 -0.0021  0.0206 -0.0008
 5980W        W19394  16.401   3.023   3.205  0.3033 -0.0697 -0.2795
 5981W        W19395  13.213   3.123  10.145  0.0893  0.0587  0.0732
 5982W        W19396   9.668   7.892  13.828 -0.0160 -0.0236  0.2529
 5983W        W19397   0.698  14.141  13.276 -0.0632  0.2162 -0.0054
 5984W        W19398   7.901   4.373  15.775  0.0211 -0.4670  0.0310
 5985W        W19399  13.690  17.343  14.521 -0.1570  0.2235  0.2521
 5986W        W19400   1.555  16.454   5.416 -0.2772 -0.1025 -0.1102
 5987W        W19401  13.280  12.737   5.211  0.4581 -0.1032  0.4383
 5988W        W19402   0.675   2.433   6.012  0.1950 -0.0029 -0.2413
 5989W        W19403  10.183  17.143  13.724 -0.0408 -0.0752 -0.0639
 5990W        W19404   7.979   1.738  13.125 -0.3521  0.1137  0.3861
 5991W        W19405   7.932   0.048   0.071 -0.0455  0.1268  0.1330
 5992W        W19406   9.698   4.185  16.289 -0.2257  0.0274 -0.0153
 5993W        W19407   5.206  18.281   4.154 -0.2510  0.1328  0.0891
 5994W        W19408  15.292  10.855   0.192 -0.0971  0.1106  0.3075
 5995W        W19409   6.554   8.328   0.679  0.1316 -0.0570 -0.3082
 5996W        W19410  16.785   4.251   1.264 -0.1882 -0.0739 -0.0360
 5997W        W19411   5.733   6.864   1.171  0.1347  0.1285  0.0109
 5998W        W19412   7.171  14.984  14.534 -0.0864  0.3427  0.0020
 5999W        W19413  17.125  10.065  11.119 -0.4428 -0.2167 -0.0358
 6000W        W19414   2.883  13.110  13.152 -0.3450  0.0365 -0.0758
 6001W        W19415   1.119  11.963   9.881 -0.1096 -0.1585  0.1082
 6002W        W19416   8.794  11.282  10.528  0.1618 -0.0461  0.3950
 6003W        W19417  15.246  10.509   5.512  0.3257  0.0681  0.0598
 6004W        W19418  17.385  12.683   1.102  0.1160  0.2448 -0.0907
 6005W        W19419   1.494  17.404   0.375 -0.4721 -0.1654  0.1306
 6006W        W19420   6.608   7.904   0.463 -0.0492  0.1954 -0.1871
 6007W        W19421  16.603   2.045  11.738  0.1783 -0.0314 -0.0748
 6008W        W19422  12.188   4.492   5.944  0.1276 -0.0600  0.0281
 6009W        W19423   1.185   1.415   6.692 -0.0280 -0.2291 -0.1871
 6010W        W19424  12.803   8.943  12.116 -0.2007 -0.1535 -0.2101
 6011W        W19425   1.667   6.613  11.122  0.1231  0.1621  0.2223
 6012W        W19426  17.925   6.478  10.564  0.3375 -0.0593 -0.0244
 6013W        W19427  10.803   6.307   3.199 -0.0344  0.2404 -0.1574
 6014W        W19428   2.864   9.712   2.096  0.0050  0.0307 -0.0156
 6015W        W19429   3.548  13.925   0.119 -0.0150  0.1328 -0.0364
 6016W        W19430   0.806   0.504  15.882  0.0165  0.4617 -0.1488
 6017W        W19431  17.825  10.748   2.109  0.0526 -0.2406  0.1801
 6018W        W19432  10.853   2.487  16.300  0.0942  0.0889  0.4395
 6019W        W19433   3.061  13.783   1.224 -0.0146  0.1824  0.0783
 6020W        W19434  13.315  17.949   1.928  0.0611 -0.1005  0.2354
 6021W        W19435  15.664  11.251  14.453 -0.1134  0.4025 -0.0270
 6022W        W19436  16.165  12.951   5.230 -0.1976 -0.4723  0.0552
 6023W        W19437  15.317  10.762   4.872  0.0571  0.2901  0.1033
 6024W        W19438  11.670  11.117   5.595 -0.0696  0.0818 -0.1267
 6025W        W19439   5.276   1.355   4.281  0.1482  0.1482 -0.0512
 6026W        W19440   5.247   2.617   0.543  0.1497  0.1061 -0.1714
 6027W        W19441   9.498   6.872   1.720  0.1415 -0.0232  0.1131
 6028W        W19442  17.151   3.143   2.132 -0.0301 -0.1612 -0.1889
 6029W        W19443   3.265   5.073  11.465  0.0819 -0.0581 -0.0285
 6030W        W19444   1.568   5.432   2.900  0.0218  0.1125 -0.0090
 6031W        W19445   7.553   8.469  13.705 -0.0057 -0.2509 -0.0754
 6032W        W19446  16.056   8.154  11.856  0.0951 -0.1939 -0.1909
 6033W        W19447  18.100  12.850   1.909 -0.0889  0.2312  0.2101
 6034W        W19448   0.528   8.397   5.330  0.0274  0.0686 -0.0822
 6035W        W19449   6.907  11.217   3.124 -0.3450  0.0390  0.1040
 6036W        W19450  10.038  13.883  13.749 -0.3139 -0.1155  0.1163
 6037W        W19451  13.746  13.489  16.246 -0.0408 -0.1263 -0.1423
 6038W        W19452   3.663  14.415   0.850  0.1054  0.0713  0.0330
 6039W        W19453  12.812  15.243   0.883  0.1929  0.2683 -0.0114
 6040W        W19454   3.861  11.450   6.323 -0.0325 -0.2963 -0.2344
 6041W        W19455   6.786  13.446  13.636 -0.0119  0.2320  0.0171
 6042W        W19456  14.360  15.044  11.617  0.0939  0.1530  0.1484
 6043W        W19457  11.518   2.264   5.956 -0.3312  0.1048 -0.0973
 6044W        W19458   2.842   0.580  15.421 -0.0538 -0.1340  0.0199
 6045W        W19459   6.238   5.587   3.280  0.0818 -0.1982  0.0113
 6046W        W19460   7.698   3.342  10.103  0.2231  0.0387 -0.1789
 6047W        W19461   2.964  15.572  13.211 -0.0436  0.5906  0.1596
 6048W        W19462  12.058   5.502   3.568  0.0507 -0.0866  0.1178
 6049W        W19463  10.574  13.392   0.334 -0.1238  0.0820 -0.0202
 6050W        W19464   3.011   2.969   3.431 -0.0936 -0.1423  0.0337
 6051W        W19465  13.582  10.992   0.815  0.0676  0.0503  0.0542
 6052W        W19466   7.844  11.123  14.549 -0.0957  0.0573  0.2955
 6053W        W19467   3.665   3.563   2.615 -0.3066 -0.2316  0.1328
 6054W        W19468  18.013  17.340  11.740 -0.1055 -0.0034  0.2670
 6055W        W19469  17.663  14.544  12.794  0.3162 -0.1608  0.3478
 6056W        W19470  10.451  16.822   1.802 -0.4602 -0.0119 -0.1241
 6057W        W19471  15.197  15.962  10.948 -0.0270 -0.1044  0.0406
 6058W        W19472  12.981   5.676   0.427  0.3982 -0.0187 -0.0779
 6059W        W19473  14.803   5.528  15.639 -0.0910 -0.1748 -0.1214
 6060W        W19474   1.825   8.464   4.375 -0.2275 -0.0670  0.4106
 6061W        W19475   0.796  16.456   2.457 -0.2709 -0.1693 -0.2451
 6062W        W19476   3.981  15.528   0.271 -0.0238 -0.2285 -0.1577
 6063W        W19477   2.622  15.634   4.243  0.2595  0.0132 -0.0375
 6064W        W19478   4.572   7.454  12.725  0.2646 -0.2527 -0.0343
 6065W        W19479   0.635  12.945   4.729  0.1345 -0.0850  0.0244
 6066W        W19480   8.494  12.802  16.155  0.0655 -0.1348  0.0785
 6067W        W19481   2.591  11.317   5.848  0.2143 -0.1165 -0.1219
 6068W        W19482  10.925  12.876  16.029  0.1807 -0.0091 -0.0703
 6069W        W19483   2.621  12.538   1.995 -0.1099  0.0780  0.1589
 6070W        W19484  10.015   3.982   4.555 -0.0815 -0.0063 -0.0279
 6071W        W19485   3.441   6.220   4.278 -0.0468  0.4168  0.0120
 6072W        W19486   9.663  11.336  14.951 -0.0468  0.1795  0.0198
 6073W        W19487   3.286   3.426  12.257 -0.3871 -0.0465 -0.2817
 6074W        W19488   7.739   1.413   4.562  0.1085 -0.0894 -0.3064
 6075W        W19489   9.123   5.485   1.724 -0.1832  0.0492  0.1336
 6076W        W19490   0.187  12.059   2.310 -0.0700 -0.1047  0.0319
 6077W        W19491   7.325  16.709  11.157  0.3571 -0.0550 -0.2061
 6078W        W19492  15.774   0.995  16.160 -0.2845 -0.1706 -0.1166
 6079W        W19493  15.670  12.893   4.234  0.1454 -0.1820  0.1464
 6080W        W19494   2.201   2.563  15.473 -0.1403 -0.0587  0.0103
 6081W        W19495   8.641  16.333  12.095  0.1280  0.1782 -0.0603
 6082W        W19496  18.124  16.040  13.105  0.0480  0.0681  0.1388
 6083W        W19497   7.612  16.430  13.228 -0.0515 -0.0589 -0.0095
 6084W        W19498   4.577   4.140   4.580 -0.3158  0.1044  0.3063
 6085W        W19499  16.980  11.634  10.866  0.0708 -0.1125 -0.0652
 6086W        W19500   9.993   1.292   4.945  0.3075 -0.2490  0.3437
 6087W        W19501   7.734   8.776  16.207  0.0036  0.1708 -0.0476
 6088W        W19502   0.571  14.069  14.593  0.0377  0.3644  0.2199
 6089W        W19503   8.186  14.503   0.391 -0.3933 -0.2184  0.1764
 6090W        W19504  10.166  10.389  14.754  0.0504 -0.0226  0.0276
 6091W        W19505  10.881   4.048   4.475 -0.3002  0.1068 -0.1715
 6092W        W19506   2.966  17.191   5.187  0.0427 -0.0096 -0.3258
 6093W        W19507  14.334  14.868  14.198 -0.1764  0.1023 -0.1201
 6094W        W19508   9.586  16.956   4.194 -0.0229  0.2223  0.2220
 6095W        W19509   4.691  17.740  13.157 -0.0164 -0.0015 -0.2679
 6096W        W19510  16.566   5.797   1.001 -0.1402  0.0413  0.5952
 6097W        W19511   6.647   0.393   4.157 -0.1439  0.2274 -0.1605
 6098W        W19512   2.096   3.189   5.190 -0.2197 -0.0814 -0.0283
 6099W        W19513  13.548  12.809  14.778  0.0281 -0.2574 -0.1952
 6100W        W19514  17.987   1.011   3.873 -0.1072 -0.0201 -0.0011
 6101W        W19515   1.753   8.568   1.929  0.1966 -0.0509 -0.3390
 6102W        W19516   7.986   6.317  15.584 -0.0416  0.3330  0.1249
 6103W        W19517  12.229  15.889  12.991 -0.2155 -0.0711 -0.0175
 6104W        W19518   0.545  13.612  10.231 -0.2338  0.1301  0.0821
 6105W        W19519  18.268   8.037   3.821 -0.0193 -0.1357 -0.0228
 6106W        W19520   8.964   2.365  14.301  0.2942  0.1397 -0.3216
 6107W        W19521  10.098  13.028  14.801  0.2009 -0.1407  0.0245
 6108W        W19522  15.174  15.392  13.596 -0.0836 -0.0509 -0.0034
 6109W        W19523   8.650  15.613  13.556 -0.0536  0.0180 -0.2158
 6110W        W19524  12.200  12.375   1.002  0.2028  0.2554 -0.0630
 6111W        W19525  13.399  15.212   4.532 -0.2310  0.3091 -0.1582
 6112W        W19526   3.859   0.760   4.849  0.0140 -0.0411 -0.0506
 6113W        W19527  11.596  10.518   1.993 -0.3814  0.0382 -0.0037
 6114W        W19528   0.056   3.541   2.371 -0.0344 -0.0120 -0.2721
 6115W        W19529  17.272  12.570  13.070  0.0989  0.0207 -0.1095
 6116W        W19530  15.076   4.248  16.157 -0.2013  0.1611 -0.1990
 6117W        W19531   5.766   0.842  15.762  0.1532 -0.1308  0.3666
 6118W        W19532   9.957  18.337  12.590 -0.0109 -0.0709  0.0292
 6119W        W19533  10.672  14.216   0.148  0.1266 -0.0178 -0.0612
 6120W        W19534  14.708   2.636   2.743  0.0440  0.5533 -0.0057
 6121W        W19535   9.923  15.512   3.210  0.0674  0.1632  0.1654
 6122W        W19536   1.255   1.095   4.840 -0.1848  0.0507 -0.1042
 6123W        W19537   5.545  17.180  11.769 -0.0383 -0.3433  0.1879
 6124W        W19538  14.486  15.446   3.798  0.3001  0.1810  0.1017
 6125W        W19539   3.438   4.786   0.700 -0.2355  0.1180  0.2002
 6126W        W19540   9.823  14.274   0.416 -0.1221  0.1981 -0.3357
 6127W        W19541  10.709   5.724   3.115  0.3972  0.1022 -0.1726
 6128W        W19542   0.250  10.950   3.140  0.5272  0.3999 -0.1702
 6129W        W19543   3.458  14.392   1.861  0.1329  0.3680  0.3905
 6130W        W19544   6.810   1.758   5.080  0.2652 -0.0590  0.0758
 6131W        W19545  16.534   7.038  13.479 -0.1630 -0.0578 -0.5419
 6132W        W19546  11.425   4.684   4.029  0.1568 -0.0653  0.1176
 6133W        W19547  17.874   3.964   3.526 -0.0943 -0.2284 -0.0528
 6134W        W19548   6.493  16.392  10.791 -0.0761  0.3293  0.0571
 6135W        W19549  13.565  10.661  16.151 -0.0452  0.0474  0.0451
 6136W        W19550  15.898   8.142  15.185  0.0869  0.0276  0.0574
 6137W        W19551  10.835  11.267  10.966  0.0295 -0.0692  0.1255
 6138W        W19552  18.390  11.750   2.748  0.1557  0.1910  0.4030
 6139W        W19553  10.689  16.457  16.390 -0.2307 -0.2317 -0.2929
 6140W        W19554   9.868  14.446  15.006 -0.0173  0.2626  0.0516
 6141W        W19555  13.362   1.591  11.026 -0.1944  0.0617  0.2234
 6142W        W19556  13.615  15.362   0.521  0.3797  0.0131  0.3053
 6143W        W19557  17.464  11.116   2.218 -0.2820  0.2598  0.3590
 6144W        W19558   8.654   6.766   1.792  0.0560  0.1259  0.2053
 6145W        W19559  12.718  16.063  15.549 -0.0754 -0.3074 -0.0948
 6146W        W19560  16.583  12.768   0.602  0.1170  0.2432 -0.0431
 6147W        W19561  13.121  10.394  11.035 -0.0195 -0.2725 -0.0828
 6148W        W19562  13.877   7.164   4.816  0.1125  0.2224  0.0938
 6149W        W19563  10.616  10.402   2.232  0.2169  0.0934  0.2140
 6150W        W19564  13.152   4.115   5.772 -0.0968 -0.0057 -0.3566
 6151W        W19565   0.063   5.599   1.761 -0.0108 -0.3696 -0.0261
 6152W        W19566   3.934   6.421  12.925  0.0208 -0.1747 -0.0592
 6153W        W19567  11.469  17.452   4.466 -0.4340  0.0331 -0.1232
 6154W        W19568  15.419   5.211  16.465 -0.0949  0.1118  0.2487
 6155W        W19569  14.978   8.783  11.712 -0.1288 -0.0493  0.1312
 6156W        W19570   6.756  17.465  11.745 -0.0162  0.4633 -0.0974
 6157W        W19571   4.403   5.248  12.580  0.2229  0.1230  0.1776
 6158W        W19572   8.713   7.525  13.081  0.2325  0.2078  0.0622
 6159W        W19573  18.123  14.520   1.948  0.0753 -0.0595 -0.4821
 6160W        W19574   3.122  12.119   3.819 -0.1148  0.0621  0.1064
 6161W        W19575   4.487   7.249  13.155 -0.0541 -0.1068 -0.2102
 6162W        W19576   5.012   0.245   1.246 -0.0785 -0.1467  0.0043
 6163W        W19577   7.725   7.488  11.597 -0.1165 -0.2107  0.1448
 6164W        W19578  10.132  12.666   2.009 -0.0172 -0.1116  0.4541
 6165W        W19579   7.767   3.314  12.858 -0.2429  0.0443  0.2058
 6166W        W19580   8.049  16.662  15.647  0.1270  0.0867  0.1679
 6167W        W19581   5.925   6.888  15.797  0.0315 -0.4065  0.3266
 6168W        W19582   1.375  10.540  13.239 -0.1158 -0.1015  0.0917
 6169W        W19583   8.334   4.010   0.095  0.2127 -0.2503  0.0821
 6170W        W19584   9.112   5.035  13.122 -0.2789 -0.2978  0.2303
 6171W        W19585  11.105  13.524   4.991 -0.1591 -0.1960  0.3313
 6172W        W19586  18.101  10.744  16.404 -0.3194  0.0545 -0.0403
 6173W        W19587   8.787   1.961  10.679  0.3787  0.0198  0.0251
 6174W        W19588   3.056  12.439  10.813 -0.2051 -0.2698 -0.0550
 6175W        W19589  10.728   2.498  10.567  0.0903 -0.0113 -0.0671
 6176W        W19590  16.505  14.858   2.190 -0.0806  0.0660  0.1606
 6177W        W19591  17.055   1.944   2.801 -0.0830  0.1436  0.0772
 6178W        W19592   6.574   0.699  16.289  0.1243 -0.0587 -0.0838
 6179W        W19593  17.493   9.441  13.377  0.1001  0.3617 -0.0358
 6180W        W19594  12.151   8.339   5.801  0.0076 -0.0515  0.2625
 6181W        W19595  10.911  13.635  15.627  0.0297 -0.1140  0.0641
 6182W        W19596  17.636  18.126  16.022 -0.0110 -0.0227  0.1420
 6183W        W19597  13.184  11.133   5.311 -0.4675 -0.1908 -0.2539
 6184W        W19598   7.836   1.030  12.318  0.0111  0.0355 -0.1676
 6185W        W19599   8.114   0.744  14.483 -0.2549  0.0156 -0.1381
 6186W        W19600  13.576  17.381  10.896  0.0199  0.0518  0.1301
 6187W        W19601   4.938   8.349   0.295 -0.0254 -0.1600  0.0473
 6188W        W19602   9.373  15.606   3.091  0.1784  0.1200 -0.0594
 6189W        W19603   7.096   9.145   5.918  0.0663 -0.0099 -0.1213
 6190W        W19604   5.439   5.955  11.278  0.1699  0.1690  0.0033
 6191W        W19605  17.938  16.184   4.824 -0.0626 -0.1497  0.1355
 6192W        W19606  16.767  13.291   0.613 -0.0427  0.0446  0.1357
 6193W        W19607   1.014  13.582  14.271  0.1479  0.2873 -0.1271
 6194W        W19608  16.900  16.587   5.309  0.0882  0.2131 -0.1159
 6195W        W19609   0.282  10.646   3.706  0.2191 -0.0705  0.0597
 6196W        W19610  17.641   6.438  11.441  0.2495 -0.1934  0.1634
 6197W        W19611   0.137   0.058   0.950 -0.0503 -0.2072  0.0658
 6198W        W19612   1.367  17.273   7.347 -0.0653 -0.0947  0.1668
 6199W        W19613   8.586  11.897  11.960 -0.3213  0.1313 -0.0384
 6200W        W19614   2.200  13.189  14.333 -0.1356 -0.1860  0.2979
 6201W        W19615   9.645  10.218   5.454 -0.2076 -0.2719 -0.2045
 6202W        W19616  16.765   3.784   3.202 -0.0489  0.1881  0.0396
 6203W        W19617   1.861  15.358   0.286  0.1103  0.1251 -0.0952
 6204W        W19618   9.486  12.856  13.443  0.3887 -0.0303 -0.1476
 6205W        W19619  16.546  12.179   5.611 -0.0193  0.2918  0.1789
 6206W        W19620   1.847  17.721   0.578 -0.2591 -0.1402 -0.3909
 6207W        W19621   7.780  12.907   2.211 -0.0260  0.0567  0.1632
 6208W        W19622   3.619  13.216   3.244 -0.1582 -0.1604 -0.0205
 6209W        W19623   9.439   5.051   1.006  0.0189 -0.0866 -0.0363
 6210W        W19624  13.826  18.144  14.516  0.0742 -0.0921  0.0283
 6211W        W19625   6.386   8.803  12.268 -0.2617  0.1356  0.0927
 6212W        W19626   2.619   6.404   0.686  0.0221  0.0351 -0.0355
 6213W        W19627  12.163  18.065   3.362  0.1278 -0.2549 -0.0888
 6214W        W19628   5.060  11.529   3.129  0.1402  0.1763  0.0820
 6215W        W19629   5.708  15.526  12.379  0.4353  0.2434 -0.0857
 6216W        W19630  14.014   8.253  10.346 -0.2956 -0.0421 -0.2598
 6217W        W19631   0.470  12.993  11.547 -0.1324 -0.0959 -0.2855
 6218W        W19632  10.732  14.672  13.581 -0.2327 -0.3139 -0.2762
 6219W        W19633   6.794  10.679  16.323 -0.0487  0.0418  0.1342
 6220W        W19634  13.941  12.782  14.380  0.1816 -0.3113  0.0474
 6221W        W19635  14.782  11.738  13.138  0.1492  0.2774 -0.1523
 6222W        W19636  12.580  17.162  10.972 -0.0260  0.3693 -0.0732
 6223W        W19637  10.819   9.203   2.751  0.0797  0.1085 -0.0905
 6224W        W19638  18.213   8.844   1.094 -0.2009 -0.1189 -0.1381
 6225W        W19639  13.116   8.338  13.244  0.1268 -0.1129  0.1185
 6226W        W19640   8.604   1.560  16.238 -0.5278  0.0201 -0.0226
 6227W        W19641  17.544  13.535  12.638 -0.2868 -0.1466 -0.0942
 6228W        W19642   1.517  15.250  14.305  0.0261 -0.0366  0.1585
 6229W        W19643   2.492   2.590   1.457  0.0478 -0.2301 -0.3019
 6230W        W19644   7.130  10.440   4.860 -0.1868  0.2057 -0.0610
 6231W        W19645  17.714   9.491  16.024  0.0139  0.0658  0.0506
 6232W        W19646   9.120  16.556  13.267 -0.1811 -0.0802  0.3084
 6233W        W19647   8.555   7.051  13.213  0.1214 -0.3489  0.1005
 6234W        W19648   1.562  17.467  13.160 -0.2156 -0.0682  0.0560
 6235W        W19649  17.914   8.425   0.808 -0.1674 -0.1096 -0.1267
 6236W        W19650   9.773   8.696  10.791  0.0787  0.1086  0.1343
 6237W        W19651   5.392  17.360   3.868  0.0833  0.1439  0.1913
 6238W        W19652  16.341  17.343  14.966 -0.3720 -0.2042 -0.0002
 6239W        W19653   6.091  10.573   0.301  0.0391 -0.0198  0.1642
 6240W        W19654   3.583   3.616   3.857 -0.2078 -0.2307  0.2208
 6241W        W19655  16.114  12.861   0.473 -0.0034 -0.0433 -0.2309
 6242W        W19656  12.217   8.284   1.595  0.1576 -0.0621 -0.1684
 6243W        W19657   3.999  18.118   5.882 -0.3107 -0.2157  0.1031
 6244W        W19658   7.898   2.742  15.343 -0.0423  0.0663 -0.2489
 6245W        W19659   7.697   2.038  12.034 -0.1796  0.1885  0.2115
 6246W        W19660   6.051   5.122  10.887 -0.2215  0.1453  0.0874
 6247W        W19661   4.478   8.597  12.451 -0.0564  0.0036 -0.1965
 6248W        W19662   2.886   9.406  16.163 -0.0684  0.0655  0.0155
 6249W        W19663   5.872  18.066   2.383 -0.2015  0.3116  0.2065
 6250W        W19664  16.951   0.337  15.129  0.0936 -0.0571 -0.0265
 6251W        W19665  12.665  16.829  14.085 -0.0210 -0.2164 -0.2154
 6252W        W19666  11.706  10.803  16.237 -0.0440  0.1225 -0.0816
 6253W        W19667   9.570  11.086   2.124  0.0424 -0.2694  0.4081
 6254W        W19668   5.528  13.240  14.249 -0.0348  0.2907 -0.0544
 6255W        W19669  12.277  14.313   5.606  0.0411 -0.0873  0.0790
 6256W        W19670  15.956   1.639  14.855  0.0592 -0.2808 -0.1915
 6257W        W19671  11.468   6.897   5.395 -0.1243 -0.1410  0.1109
 6258W        W19672  13.998   9.073  15.296 -0.2361  0.0730 -0.0364
 6259W        W19673  17.118  17.649   3.318 -0.0500  0.3308  0.0981
 6260W        W19674  17.156   0.584   1.007  0.1568 -0.1220 -0.2716
 6261W        W19675   9.423   8.446   2.435 -0.1470  0.0157  0.3576
 6262W        W19676   0.580   7.570   2.682  0.0490  0.1310 -0.1097
 6263W        W19677  11.246  11.331  13.049 -0.3426  0.2764  0.0724
 6264W        W19678  14.502   7.885  15.608 -0.0090 -0.2224  0.3086
 6265W        W19679   9.747  13.593  10.965  0.0031  0.0506  0.1311
 6266W        W19680   1.427   2.819  13.513  0.2368  0.4118 -0.0899
 6267W        W19681  13.387  14.660  12.352  0.1521 -0.1522  0.6289
 6268W        W19682  16.567   4.502   0.238 -0.2056 -0.1184  0.0571
 6269W        W19683   9.880   2.923   0.075 -0.1104 -0.5004 -0.0591
 6270W        W19684  17.175   7.358  11.255 -0.1166  0.5221  0.0609
 6271W        W19685   8.559   7.000   1.003  0.3983  0.0358  0.1141
 6272W        W19686  10.354   1.932   5.444 -0.1240 -0.1731 -0.1201
 6273W        W19687  14.049   8.067  10.975  0.1487 -0.0507 -0.0647
 6274W        W19688  17.782  15.465  15.404  0.1223  0.0558  0.0869
 6275W        W19689  13.492  17.663  14.853 -0.1061 -0.0547 -0.0711
 6276W        W19690  12.435  16.718   4.520 -0.0872 -0.0731  0.3992
 6277W        W19691   9.613   7.244  13.653 -0.0995  0.0036  0.0393
 6278W        W19692   6.604   5.315  13.262 -0.2281 -0.0984 -0.3877
 6279W        W19693   0.330   7.256  14.916 -0.2102  0.1162  0.0587
 6280W        W19694   3.277   1.970   3.833 -0.2982  0.1822 -0.0493
 6281W        W19695   3.222   7.773  16.380 -0.1178 -0.1505  0.2678
 6282W        W19696  13.629  11.323   1.728  0.1829  0.0011  0.1202
 6283W        W19697   1.303   7.000   5.227  0.0669  0.0498  0.1225
 6284W        W19698   4.465   4.903   0.893 -0.1409 -0.0832 -0.1869
 6285W        W19699   7.242  10.001   4.024 -0.0927 -0.3208 -0.0802
 6286W        W19700  12.908   4.737   5.550  0.0488  0.1627 -0.1062
 6287W        W19701   9.263  11.128   0.859 -0.0275 -0.1988  0.0421
 6288W        W19702   5.169  15.570   1.178  0.3537  0.0395  0.0915
 6289W        W19703  14.727   4.101   0.342  0.2850 -0.1984 -0.3826
 6290W        W19704   2.497   3.344  10.987  0.0980 -0.1001  0.0442
 6291W        W19705   0.086   5.512  11.927 -0.1125  0.2788 -0.2835
 6292W        W19706   4.287   6.943  10.437  0.1256 -0.0083  0.1429
 6293W        W19707   8.030  17.276  13.229 -0.1830 -0.1177 -0.4250
 6294W        W19708   4.194   7.892   4.442  0.0711  0.5031  0.0640
 6295W        W19709  18.061   1.099   2.823  0.1349 -0.0505  0.2188
 6296W        W19710  12.595   7.518   0.782 -0.1758  0.1444  0.0045
 6297W        W19711   9.773  16.838  10.643  0.0573  0.1412 -0.1856
 6298W        W19712  16.256   6.441  11.313 -0.0434  0.0861 -0.0932
 6299W        W19713   4.517   8.948   0.844 -0.0363  0.2354 -0.1071
 6300W        W19714   7.631  17.970   4.898 -0.1545  0.2161 -0.0384
 6301W        W19715  10.666   1.586   4.128 -0.1194 -0.1465 -0.0789
 6302W        W19716   1.355   6.981  13.986  0.0492 -0.0653 -0.0382
 6303W        W19717   3.324  17.778   1.547  0.2195  0.1134 -0.0397
 6304W        W19718   2.348   3.944  12.598  0.0948 -0.1279 -0.1371
 6305W        W19719   6.646   5.151   2.026  0.1454 -0.0674  0.1456
 6306W        W19720  12.396   8.598   0.191  0.0533  0.0890  0.2348
 6307W        W19721  10.851   1.386  13.108 -0.0094 -0.6222  0.0831
 6308W        W19722   4.857  17.917  14.909 -0.0855 -0.0666 -0.0611
 6309W        W19723   1.244  17.543  14.700 -0.0710 -0.0997  0.1098
 6310W        W19724  17.401  13.755  12.169 -0.0430  0.0296 -0.0303
 6311W        W19725  10.729   4.582  11.712 -0.1040 -0.0909  0.5000
 6312W        W19726   4.434   5.747  11.977  0.0606  0.2350  0.0128
 6313W        W19727   7.644  16.809   3.738  0.1081 -0.2365  0.0759
 6314W        W19728  14.033   6.750   5.176  0.0360  0.2902  0.1571
 6315W        W19729  15.972  13.741   2.801  0.0969 -0.0337  0.1004
 6316W        W19730   4.607   6.034  14.475  0.1224 -0.0859  0.1913
 6317W        W19731  12.526   2.993  10.821  0.1541 -0.2090 -0.2499
 6318W        W19732  10.145  11.515  15.003  0.1391 -0.2165 -0.2435
 6319W        W19733  10.954  17.094  11.972 -0.0716  0.0796  0.1123
 6320W        W19734   8.269  15.673   5.713  0.2820  0.0900 -0.1471
 6321W        W19735  15.194   5.777   3.325  0.2689 -0.0857 -0.1487
 6322W        W19736   5.747   0.107   3.087  0.0042  0.0452 -0.1127
 6323W        W19737  16.563   5.431  16.136 -0.0262 -0.2479  0.1842
 6324W        W19738   5.281  14.477   4.098  0.1460  0.0587 -0.2014
 6325W        W19739   5.072  12.413   5.052  0.0375  0.4665 -0.2495
 6326W        W19740  14.769  10.280  11.751 -0.0423 -0.0333  0.1878
 6327W        W19741  16.729  13.422   1.347  0.1261  0.1477 -0.1549
 6328W        W19742   0.662   5.352   4.104 -0.0043 -0.1917  0.0839
 6329W        W19743   6.621   9.060  11.795  0.1932  0.2760 -0.3306
 6330W        W19744  10.868   2.417   3.538 -0.2819  0.0187 -0.0484
 6331W        W19745   6.904  11.445  14.698  0.2422  0.1175  0.0142
 6332W        W19746  11.848   1.432  12.066  0.1037 -0.3979 -0.0065
 6333W        W19747   4.472   1.460   1.263 -0.0008 -0.0064 -0.2910
 6334W        W19748   2.675  18.235  13.328 -0.1080  0.0326 -0.2910
 6335W        W19749   0.380   5.326   2.055  0.3050 -0.2103  0.0657
 6336W        W19750   3.041  18.347   1.850  0.3646  0.1998 -0.1606
 6337W        W19751   6.299   3.684   3.652  0.0424 -0.0886 -0.0633
 6338W        W19752  15.433  10.305   5.922  0.0164 -0.3053  0.0462
 6339W        W19753  16.701   4.810   1.864 -0.1564  0.2168  0.1886
 6340W        W19754   7.649  11.416   2.565  0.0817  0.0224  0.3440
 6341W        W19755   5.712   1.939   1.734  0.0207  0.3572  0.1621
 6342W        W19756   1.432  16.239   4.046  0.0745 -0.0174  0.0027
 6343W        W19757  13.921   0.964  10.887 -0.2473 -0.0773  0.1566
 6344W        W19758   3.168  17.211   5.718 -0.1980  0.1953  0.1562
 6345W        W19759  15.593   1.778   3.712 -0.0531  0.1024  0.1033
 6346W        W19760  12.495  13.339   5.556  0.1119  0.0009 -0.3366
 6347W        W19761  14.096   4.838  12.279 -0.0432  0.0022  0.0698
 6348W        W19762   6.016  16.827  12.804  0.0848 -0.1663 -0.0183
 6349W        W19763  11.315   6.198  10.901 -0.5537  0.4922  0.2070
 6350W        W19764   1.209   0.733  15.002 -0.1491 -0.0277 -0.1165
 6351W        W19765   2.238   7.957   4.431  0.0766  0.2660  0.0170
 6352W        W19766   7.880  14.308  12.223  0.0302 -0.1239 -0.0437
 6353W        W19767  10.250   8.895  16.397  0.1061  0.0521 -0.0713
 6354W        W19768  16.118  13.802   6.722  0.0020 -0.3033 -0.1423
 6355W        W19769  11.197  17.176   2.866  0.3623  0.5544  0.1176
 6356W        W19770  14.747  16.181  13.680  0.2129  0.0542  0.0731
 6357W        W19771   1.623  16.170   0.808 -0.0282 -0.2767 -0.2051
 6358W        W19772  14.122  13.689   1.429 -0.1249  0.1323 -0.3355
 6359W        W19773   4.629   3.362   5.140 -0.0885 -0.1320  0.2121
 6360W        W19774  13.693   2.326   2.070 -0.2187  0.0030 -0.1643
 6361W        W19775   0.480  11.246   0.176 -0.0130 -0.4831 -0.0031
 6362W        W19776  18.329   5.264   1.356  0.0544  0.0725 -0.0637
 6363W        W19777   7.400  13.655   1.263  0.0636 -0.4597  0.0553
 6364W        W19778   1.709  12.017  15.195  0.2815  0.1902  0.1972
 6365W        W19779  13.941   6.212  11.437  0.1047  0.1970 -0.1770
 6366W        W19780  12.998  15.181   1.784  0.0812  0.1020  0.1700
 6367W        W19781   4.000  13.226   0.070  0.2725 -0.1403  0.3188
 6368W        W19782   1.231  16.444  11.196  0.0698 -0.0048 -0.0645
 6369W        W19783   9.132  12.476   0.019 -0.1325  0.1075 -0.0993
 6370W        W19784  14.948  12.510  13.577  0.0605  0.1281  0.0674
 6371W        W19785  14.568   8.829   0.733  0.3333  0.3118  0.0551
 6372W        W19786  15.541   2.662  12.789 -0.0477 -0.1110  0.1132
 6373W        W19787   1.173   9.063  13.974 -0.0182  0.0874  0.3983
 6374W        W19788   5.057   3.933  11.721  0.0517  0.2019 -0.0929
 6375W        W19789  17.880   6.950   0.686 -0.4018 -0.1671  0.2377
 6376W        W19790   4.457   4.629   2.057 -0.2042 -0.0924  0.0350
 6377W        W19791   8.250  17.223  16.288 -0.0594  0.2209  0.0188
 6378W        W19792  12.926  14.880  13.847 -0.0900  0.3256  0.1174
 6379W        W19793   2.097  13.852   3.357  0.2101 -0.0079 -0.2789
 6380W        W19794   5.153  17.272  16.229  0.3022 -0.0534  0.0719
 6381W        W19795  16.793   4.532  11.148  0.1700  0.2520 -0.0830
 6382W        W19796  13.769   5.393   0.276 -0.0117  0.0728  0.3011
 6383W        W19797   6.951   3.114  15.017 -0.0072  0.1395 -0.0080
 6384W        W19798   0.490   3.305  10.589 -0.1386 -0.1136 -0.1232
 6385W        W19799   4.862  16.706   4.804 -0.0658  0.3298 -0.0045
 6386W        W19800  11.728  14.031   0.650 -0.0650 -0.1400  0.4487
 6387W        W19801   9.960   6.026  13.996  0.1494 -0.0241 -0.0591
 6388W        W19802   2.675  18.049   4.748 -0.3374  0.2568  0.1107
 6389W        W19803   6.005  14.674   2.716  0.2908  0.2364  0.1286
 6390W        W19804   6.074   3.368  13.876 -0.0669  0.0734 -0.0364
 6391W        W19805   1.278  18.195  13.870  0.0293 -0.3477 -0.0840
 6392W        W19806   8.392  11.616   4.900  0.1723  0.0439 -0.1216
 6393W        W19807   1.241   2.044   1.239 -0.1409 -0.0160 -0.0044
 6394W        W19808  11.937  15.348  10.548  0.0865  0.0205  0.0005
 6395W        W19809   9.116   8.488   1.681 -0.0208 -0.1980 -0.1188
 6396W        W19810  14.108   2.898  14.806 -0.1163 -0.0166  0.0317
 6397W        W19811  11.417   3.565  13.280  0.2492 -0.1010  0.2097
 6398W        W19812   8.077   5.645  16.386 -0.1992  0.2724  0.3362
 6399W        W19813   3.439  11.846  10.781  0.0722  0.0954 -0.1601
 6400W        W19814  10.170  11.988   4.228  0.2539 -0.0985 -0.2605
 6401W        W19815   8.793   9.412  12.169  0.2669  0.2146 -0.0799
 6402W        W19816   5.177   8.893   3.800 -0.1555 -0.2379  0.2818
 6403W        W19817  17.416   4.626   5.198  0.0069  0.1522 -0.2076
 6404W        W19818   9.932  10.772   1.990 -0.2274 -0.1914 -0.0145
 6405W        W19819  16.964  10.625  11.359  0.0268  0.2610  0.1785
 6406W        W19820  10.241  16.977  14.583 -0.0044 -0.2049 -0.2008
 6407W        W19821   8.365   4.945   1.578 -0.0719  0.1210 -0.1410
 6408W        W19822   7.910   1.974   2.426 -0.1200  0.2530 -0.1044
 6409W        W19823   4.727   2.264  13.973  0.1710 -0.0296  0.2041
 6410W        W19824  11.583   3.896   5.036  0.0282 -0.2248  0.1376
 6411W        W19825  13.116  11.942   2.263 -0.1672  0.0586  0.1577
 6412W        W19826   6.780   0.205  12.815  0.1991  0.3248  0.0225
 6413W        W19827   2.831   6.275   2.614  0.0992 -0.1210 -0.2198
 6414W        W19828  14.895  13.164   0.943  0.3662  0.0597 -0.3595
 6415W        W19829  16.124  10.402   4.893  0.2524 -0.2321 -0.1401
 6416W        W19830   7.911   5.060  10.294  0.1888  0.1790  0.1502
 6417W        W19831  16.525  17.101   2.130  0.0264 -0.0700  0.0026
 6418W        W19832  11.313   6.356  14.489  0.2288 -0.0016  0.0222
 6419W        W19833   0.176   0.729   4.651 -0.1243  0.2143 -0.0236
 6420W        W19834   2.356  10.977  12.844  0.2063 -0.1912 -0.0669
 6421W        W19835   6.283  16.841   3.654 -0.1455  0.1212  0.1694
 6422W        W19836  13.985   7.849   1.719  0.0615 -0.2600  0.2063
 6423W        W19837  11.047   3.293  15.489 -0.4347 -0.3313 -0.0765
 6424W        W19838  14.485   4.378   5.985  0.0983 -0.0888 -0.2915
 6425W        W19839   7.618   9.722   3.378  0.1855 -0.1516  0.3770
 6426W        W19840   5.398  17.721  14.367  0.2731  0.2229  0.1141
 6427W        W19841  11.141  18.381  11.040 -0.1917 -0.0976  0.0509
 6428W        W19842   0.749   4.356  10.111  0.1113  0.2604  0.0378
 6429W        W19843  14.475  14.199   2.007  0.1455 -0.1094  0.1051
 6430W        W19844  10.446  18.381  12.260  0.2167 -0.1531  0.2248
 6431W        W19845  13.767   1.938   4.428 -0.0916 -0.2124  0.2703
 6432W        W19846  11.900  13.759  15.708  0.0058  0.2010 -0.1414
 6433W        W19847  15.190   2.034   3.892 -0.0301 -0.1742 -0.1682
 6434W        W19848  17.416   2.856   5.293 -0.1490 -0.2705 -0.3678
 6435W        W19849  11.527   7.365  14.982  0.0186  0.0283 -0.1598
 6436W        W19850   8.437  16.613   4.962 -0.0217 -0.1996  0.1024
 6437W        W19851  16.683   9.458   3.191  0.1218  0.2261  0.0288
 6438W        W19852   5.412  12.490   4.677  0.1437  0.1593 -0.2501
 6439W        W19853  17.121  14.790  14.455  0.0442  0.1431 -0.0547
 6440W        W19854   3.430  18.089  11.729  0.1818 -0.0867  0.1979
 6441W        W19855  15.789   6.052  15.321 -0.0850  0.3229 -0.2050
 6442W        W19856  13.949  12.683   1.254 -0.0566 -0.1208  0.0635
 6443W        W19857   2.721  15.135  11.337  0.0112 -0.1582 -0.1557
 6444W        W19858   7.953  15.944   3.598  0.0016 -0.2570 -0.3030
 6445W        W19859   5.287   4.324  16.348 -0.2624 -0.2440  0.1246
 6446W        W19860  17.178   6.405  11.234  0.0860 -0.0248  0.2116
 6447W        W19861  13.476   4.257   3.188 -0.1785  0.0256 -0.1504
 6448W        W19862   9.827   1.954   1.670 -0.1834 -0.0910  0.0399
 6449W        W19863  16.568  11.389  13.507  0.0754  0.2223 -0.0164
 6450W        W19864  12.406  10.887   2.593  0.1185 -0.2810  0.1262
 6451W        W19865  14.995  16.199  15.810 -0.2974  0.2616 -0.0593
 6452W        W19866  16.223  18.059   5.300  0.1125 -0.1901  0.0681
 6453W        W19867   4.639   4.891  10.879  0.0057  0.1018  0.1776
 6454W        W19868  12.031  16.492  15.244  0.3006 -0.1994  0.0637
 6455W        W19869   2.644   8.875  10.469  0.0281 -0.4358 -0.0131
 6456W        W19870   1.885   0.087   4.461 -0.1830 -0.0793 -0.2320
 6457W        W19871   9.902   2.689   3.241  0.3562  0.0185 -0.0391
 6458W        W19872   3.816   8.392   0.314  0.2670 -0.2537 -0.0686
 6459W        W19873   3.727   5.691   2.779  0.0323  0.0291 -0.2185
 6460W        W19874   6.276   8.663   5.909  0.1097  0.1340 -0.0649
 6461W        W19875  16.701  16.054   1.316 -0.2029 -0.1366 -0.0981
 6462W        W19876   6.996  10.258  16.122  0.1893 -0.1320 -0.0081
 6463W        W19877  14.004   8.276  12.861  0.3880  0.1489  0.1346
 6464W        W19878  10.255   9.364   4.321 -0.0444  0.0504  0.0031
 6465W        W19879  15.581   3.679  14.058 -0.2422 -0.0177 -0.0051
 6466W        W19880   3.617   0.424   1.356  0.2689 -0.1438 -0.1951
 6467W        W19881  18.348   4.177   1.424 -0.2152 -0.0645  0.3287
 6468W        W19882  12.331   5.956   1.631  0.0563  0.0241 -0.2342
 6469W        W19883  12.015  13.139   5.311 -0.0450 -0.1698 -0.0700
 6470W        W19884  15.226  11.778   3.711  0.1801  0.1938 -0.1613
 6471W        W19885   2.844   8.089   4.600 -0.0099  0.0520  0.0369
 6472W        W19886  14.962   5.325  16.179  0.0807  0.1263 -0.0922
 6473W        W19887   9.708  15.691  10.358 -0.1366 -0.2932  0.3733
 6474W        W19888  18.294   4.218  15.410  0.0475  0.0732 -0.2177
 6475W        W19889  17.635  10.434   1.472  0.0799 -0.1209 -0.2587
 6476W        W19890  17.561  17.925   3.042  0.0959  0.0307  0.0589
 6477W        W19891   7.396   1.539   3.863  0.0998 -0.0501 -0.0191
 6478W        W19892  12.474   8.405   4.773  0.0999  0.1259  0.0896
 6479W        W19893   9.483   0.104   5.686 -0.0627 -0.3317  0.1514
 6480W        W19894   3.662   6.882  10.601  0.0294 -0.1823  0.0559
 6481W        W19895  11.926   8.526   3.900 -0.1227  0.4542  0.1382
 6482W        W19896   4.412   0.667   0.674  0.1892  0.0761 -0.1278
 6483W        W19897   5.264   2.353   0.050  0.0651  0.2133 -0.0987
 6484W        W19898   5.408   6.422  11.102 -0.1997 -0.0901  0.0496
 6485W        W19899   3.189   6.662  12.301  0.3689  0.1883 -0.1101
 6486W        W19900   0.419   2.379  13.149  0.3684  0.0167 -0.0919
 6487W        W19901  14.886   7.905   0.866 -0.0384 -0.0181 -0.1463
 6488W        W19902  17.115   8.777  14.708 -0.2085 -0.0092  0.2067
 6489W        W19903  14.235  12.279   1.173 -0.0462  0.0252  0.3549
 6490W        W19904   3.529   6.914   4.201 -0.1951 -0.0686 -0.3274
 6491W        W19905  11.995   6.133  15.270  0.2502  0.0763 -0.0183
 6492W        W19906   8.952   2.116   3.345  0.0791 -0.1454 -0.1615
 6493W        W19907  14.191   0.047  14.352 -0.0106 -0.2976 -0.1779
 6494W        W19908  15.579  15.281  10.594 -0.2500  0.0676  0.0282
 6495W        W19909   7.281   4.938  12.416  0.1702 -0.1169 -0.3578
 6496W        W19910  18.190  16.398  15.451 -0.2309 -0.1328  0.1939
 6497W        W19911  16.242  13.557  13.743  0.2465 -0.0381  0.0877
 6498W        W19912   6.870  11.261  15.399  0.1936  0.2025  0.1027
 6499W        W19913  13.025   7.326   9.998 -0.1886  0.1579 -0.2410
 6500W        W19914  17.272  17.229   5.533 -0.0909 -0.1908 -0.4054
 6501W        W19915   2.542   2.635   4.281  0.4728  0.1008 -0.0409
 6502W        W19916  12.408  12.235   1.645  0.0387 -0.0890 -0.3095
 6503W        W19917  18.147   7.209   4.950 -0.0154 -0.1766 -0.0524
 6504W        W19918   9.340   7.554   3.336 -0.2164 -0.0342  0.0357
 6505W        W19919  13.054   6.608  15.665  0.0674  0.2264 -0.1874
 6506W        W19920  14.748  14.645  13.896 -0.0299 -0.0571 -0.1304
 6507W        W19921  11.338   6.439   2.322  0.1034  0.0236 -0.2640
 6508W        W19922  17.921  16.218   1.123  0.1063 -0.0233 -0.1763
 6509W        W19923   8.458   9.604  12.843 -0.0407 -0.0121  0.0183
 6510W        W19924   2.693  13.829  14.017 -0.0420 -0.0397 -0.0367
 6511W        W19925  10.045   7.379   0.969 -0.3546 -0.0036 -0.2956
 6512W        W19926   0.262  10.165   0.137 -0.1889 -0.0410  0.0414
 6513W        W19927   3.359   1.597  13.414  0.0637 -0.3803 -0.0993
 6514W        W19928  17.027  11.524  10.349  0.0372 -0.1231 -0.0297
 6515W        W19929  17.871  16.938  13.400  0.2120  0.0721  0.2400
 6516W        W19930  15.232  11.568  13.617 -0.1903  0.0697 -0.1709
 6517W        W19931  12.694   6.852   2.724 -0.1578 -0.0855  0.3115
 6518W        W19932  10.602   9.660   2.643 -0.1321  0.1861  0.0565
 6519W        W19933   6.652  17.870  15.470  0.1530  0.0049 -0.2599
 6520W        W19934   9.580  13.968   5.332 -0.1686  0.1572 -0.0775
 6521W        W19935   0.926   8.532   2.441  0.3269 -0.2591 -0.3613
 6522W        W19936   2.721  18.271  11.203 -0.1659 -0.3038  0.1411
 6523W        W19937   7.083   1.387  14.526  0.1527 -0.3218  0.2959
 6524W        W19938   5.015  10.380   4.435  0.0617  0.1245  0.2325
 6525W        W19939  16.050   3.767  10.949  0.2938 -0.0209 -0.1721
 6526W        W19940   3.293  10.086   4.724  0.2399 -0.0645  0.1325
 6527W        W19941   6.925  15.061   6.399 -0.2100  0.1334  0.0682
 6528W        W19942  16.682  15.466   1.359  0.3373 -0.0748 -0.3042
 6529W        W19943  13.094   3.215   1.460 -0.2707  0.1708 -0.0648
 6530W        W19944   0.043   2.193   1.930  0.0397  0.0281 -0.2363
 6531W        W19945  16.551  17.474   1.508  0.0103  0.0434  0.3648
 6532W        W19946  14.944   4.428  12.766 -0.0778 -0.1506 -0.0939
 6533W        W19947  17.326   6.664  12.228 -0.3413 -0.1080  0.3378
 6534W        W19948  13.765   1.238   1.192 -0.0206 -0.2353  0.2582
 6535W        W19949   7.082   5.463  16.250 -0.0796  0.2912 -0.0842
 6536W        W19950   6.594   6.895  12.086 -0.3401  0.3743 -0.0874
 6537W        W19951   0.010  17.588   0.821 -0.1749  0.1396  0.3822
 6538W        W19952   6.059   5.785   5.698  0.1912 -0.0053 -0.1085
 6539W        W19953  11.605   5.960   4.863 -0.0380 -0.1538 -0.0728
 6540W        W19954   3.390   9.163  14.466  0.0418  0.0092 -0.0571
 6541W        W19955  17.413   0.191  12.442  0.0488  0.1668  0.0721
 6542W        W19956   1.231  14.649   2.597  0.0989 -0.1265 -0.0737
 6543W        W19957  15.792   8.104  14.392  0.0758 -0.2785  0.1419
 6544W        W19958   1.577  15.178   1.829 -0.0240 -0.0122  0.3012
 6545W        W19959   9.332   6.908   5.610  0.3734  0.0669  0.1832
 6546W        W19960  15.092   6.363   3.254  0.2362  0.0110 -0.0240
 6547W        W19961  15.287   8.809  13.486 -0.3297 -0.0562 -0.1179
 6548W        W19962  14.202   4.035  10.535 -0.2915 -0.1162  0.0941
 6549W        W19963  10.322  14.015  10.546 -0.1411  0.0455  0.1261
 6550W        W19964   9.317   0.629  12.150  0.0736  0.0935 -0.0310
 6551W        W19965  16.849   9.911   4.614 -0.1793  0.0650  0.0801
 6552W        W19966  11.810  17.980   0.549 -0.0435  0.2208 -0.0145
 6553W        W19967   4.009   2.160   1.780  0.0169  0.3162  0.0937
 6554W        W19968  17.658   1.402   3.917 -0.2015  0.0548  0.1438
 6555W        W19969   6.294   8.010  14.836 -0.0331 -0.1937  0.2864
 6556W        W19970   4.181  14.714   4.158  0.0537  0.4071 -0.2931
 6557W        W19971   0.888  15.758  12.771  0.2259  0.2165 -0.1927
 6558W        W19972   8.481  12.654   2.810 -0.0125 -0.1569 -0.2796
 6559W        W19973  11.627   9.579  14.334  0.0674  0.1355 -0.0230
 6560W        W19974   8.829   8.035  12.483  0.1486 -0.2342 -0.0409
 6561W        W19975  17.559  11.544   0.667  0.1245 -0.0057 -0.3557
 6562W        W19976   1.803   4.612  15.041  0.0025 -0.1978  0.1089
 6563W        W19977  14.371  12.090   5.763  0.0441  0.0522 -0.0563
 6564W        W19978   7.268  14.129  16.483 -0.1286  0.1140  0.1997
 6565W        W19979  15.660   0.648   4.008 -0.1150  0.0504 -0.3744
 6566W        W19980  10.848  18.082   5.421 -0.2828 -0.0608  0.2945
 6567W        W19981  14.227   8.026   0.922  0.1088  0.1530  0.0530
 6568W        W19982  11.662   5.477  15.075  0.1465 -0.2067 -0.2368
 6569W        W19983   7.500   0.933  12.730  0.4518  0.2416  0.0370
 6570W        W19984  10.074  11.682  11.535  0.3983 -0.0678  0.2854
 6571W        W19985  15.334   4.313  14.775 -0.1775  0.1507  0.1287
 6572W        W19986   3.988  14.074   4.743 -0.0885 -0.2411  0.0832
 6573W        W19987  16.010   3.846   2.073 -0.0299 -0.0322  0.1748
 6574W        W19988   7.014   2.221   2.707  0.1726 -0.0229 -0.2342
 6575W        W19989  17.466   0.627  13.668 -0.3348  0.1230 -0.3578
 6576W        W19990  12.588   0.905   3.888  0.0753 -0.1815 -0.1100
 6577W        W19991  14.342  16.261  13.388 -0.0303 -0.2273  0.1720
 6578W        W19992   6.023   8.237  15.826  0.0811  0.1399  0.1368
 6579W        W19993   3.117  14.872   2.640 -0.1639 -0.2611  0.1643
 6580W        W19994   7.406  11.489   6.303  0.1315 -0.1483 -0.0925
 6581W        W19995  10.541  13.746  13.851  0.1693 -0.1985 -0.0963
 6582W        W19996   2.094   0.766   5.405 -0.1539  0.0082  0.3050
 6583W        W19997  10.695   3.773   2.259  0.0814 -0.1041  0.0643
 6584W        W19998   7.271   1.946  14.663  0.0426 -0.2771  0.1708
 6585W        W19999  10.443   5.414  15.879  0.2889  0.1241 -0.2905
 6586W        W20000  12.216  11.906   1.288 -0.2532  0.1946 -0.0461
 6587W        W20001   4.050   2.356   5.587  0.0224 -0.0095 -0.1702
 6588W        W20002  18.324   5.891   2.874 -0.1061  0.0805 -0.1043
 6589W        W20003   4.733   5.527  15.894 -0.2002 -0.0998 -0.2300
 6590W        W20004   1.968  13.812   4.724  0.3119 -0.0046  0.0782
 6591W        W20005   4.883  12.497   0.667  0.3143 -0.2803  0.0417
 6592W        W20006  16.824  12.212  12.857  0.2196 -0.1713  0.2878
 6593W        W20007  16.744   1.222   4.478 -0.3164  0.1282 -0.2721
 6594W        W20008   6.773   6.643  11.685  0.0672  0.0190  0.0929
 6595W        W20009   9.467  17.385   9.692  0.0910  0.0189  0.3627
 6596W        W20010  12.592  11.662   5.768  0.1512 -0.0947  0.0889
 6597W        W20011  13.742  16.381  14.493  0.0045 -0.0351  0.1342
 6598W        W20012   2.832  16.499   4.920 -0.0805 -0.2525  0.2134
 6599W        W20013  10.265   7.374  14.517  0.0086  0.0162 -0.1206
 6600W        W20014   9.068   1.573  13.350 -0.0046 -0.1533  0.0730
 6601W        W20015  14.883   4.809   0.922 -0.2436 -0.1346  0.2061
 6602W        W20016   8.332   2.940   2.330 -0.1787  0.0932 -0.0930
 6603W        W20017   1.202  12.059  11.832  0.3029  0.1329 -0.0629
 6604W        W20018   5.570  17.002  12.880 -0.0532 -0.0120  0.0113
 6605W        W20019   1.313  11.734   3.996 -0.0723  0.1097  0.2046
 6606W        W20020  14.412   7.107   1.346 -0.1421  0.0560  0.1426
 6607W        W20021   4.338  15.010   6.869  0.0268 -0.0272  0.1338
 6608W        W20022   4.369  13.102   1.525 -0.2714  0.2989  0.0197
 6609W        W20023  17.348   2.669   2.167 -0.0218  0.2923  0.1800
 6610W        W20024   4.692  18.083   4.057 -0.4844  0.0720 -0.0643
 6611W        W20025   1.444   6.853   6.291 -0.0116  0.0848  0.2658
 6612W        W20026   1.536   6.076  15.056  0.3259  0.2816 -0.1098
 6613W        W20027   3.598  13.208  16.190 -0.0675  0.1326 -0.1893
 6614W        W20028  13.705   4.984  12.650  0.2683  0.2096  0.1992
 6615W        W20029  14.421   0.247   3.257  0.2575  0.2881 -0.1323
 6616W        W20030  10.747   4.160  15.951 -0.1179  0.1776 -0.3281
 6617W        W20031   6.753   5.640  12.064 -0.0469  0.0343  0.1317
 6618W        W20032   2.651  12.222  13.049 -0.1669 -0.4608  0.0188
 6619W        W20033  16.227   4.130   1.155 -0.2066 -0.0890 -0.0710
 6620W        W20034   4.922  14.447   4.562  0.0177  0.1959 -0.1050
 6621W        W20035  16.197  17.363  12.541  0.2031  0.2942 -0.1832
 6622W        W20036   4.334   6.760   3.011 -0.0978  0.0070  0.0593
 6623W        W20037   0.300  15.167  16.280  0.0788  0.0364  0.0099
 6624W        W20038  13.102   0.795   0.969 -0.0674  0.0422 -0.1578
 6625W        W20039  13.412   3.257   4.822 -0.2295 -0.1591  0.0447
 6626W        W20040   9.084  14.448  12.860 -0.0763 -0.2053 -0.0361
 6627W        W20041  10.722   9.469   1.872  0.0071 -0.0380 -0.2082
 6628W        W20042  11.899   1.345   2.860  0.2983 -0.4641 -0.0363
 6629W        W20043  16.984  14.264  13.577  0.4006  0.0185 -0.3519
 6630W        W20044   0.539  10.995  13.480 -0.1765  0.0552 -0.0503
 6631W        W20045  14.697  16.572   2.890  0.1304 -0.2959 -0.0986
 6632W        W20046  13.501  10.237  15.292  0.1293  0.0785 -0.0979
 6633W        W20047   3.768  15.838   0.899 -0.2991  0.2468 -0.2908
 6634W        W20048   5.779   6.365   5.056 -0.0098 -0.1667 -0.0354
 6635W        W20049   2.871   0.817   5.686 -0.1104  0.2320  0.0151
 6636W        W20050   7.130  14.330  11.162  0.0619 -0.0543 -0.0020
 6637W        W20051  14.718   2.523  10.862  0.2455 -0.3064 -0.0707
 6638W        W20052   2.363  18.109   5.212  0.1658  0.1561 -0.1369
 6639W        W20053   3.922   3.038   5.012 -0.2330 -0.0926 -0.3160
 6640W        W20054   6.273  12.928   5.661  0.3374 -0.3015 -0.1074
 6641W        W20055  15.873  16.913  11.356  0.2128 -0.0874 -0.1201
 6642W        W20056   7.800  17.482  11.355  0.2334  0.0346 -0.0653
 6643W        W20057   8.532  16.886  13.880  0.1541 -0.1932 -0.1197
 6644W        W20058   6.452   6.787   4.046 -0.0808  0.3128 -0.2704
 6645W        W20059   4.592  10.015  12.240 -0.1390 -0.2942  0.1152
 6646W        W20060   1.901   1.002   0.110  0.1995  0.0873  0.0735
 6647W        W20061   0.107   3.439   1.016 -0.1799  0.1398 -0.0559
 6648W        W20062  18.166   1.974  14.840  0.1162  0.0231  0.1105
 6649W        W20063   0.938  12.895  11.258 -0.1184 -0.0037 -0.0522
 6650W        W20064   5.479  12.298  10.724  0.0458  0.0039  0.1743
 6651W        W20065   6.497   7.480  13.822  0.0403  0.0860  0.1891
 6652W        W20066   6.541   8.389   6.223  0.0838 -0.1002  0.0116
 6653W        W20067  15.343   7.416   0.040  0.0388 -0.0993  0.3411
 6654W        W20068  11.502  13.918  11.469 -0.2258 -0.2285  0.3225
 6655W        W20069  16.424  16.719  15.836 -0.0746  0.1067  0.2936
 6656W        W20070   2.716  10.041  14.158 -0.3286  0.0859 -0.0782
 6657W        W20071   7.582   0.382   1.176  0.1775 -0.3142  0.1060
 6658W        W20072   1.720   4.844   1.174  0.0593 -0.1690  0.1328
 6659W        W20073   3.060   1.995   3.196 -0.1920 -0.1897  0.4263
 6660W        W20074   5.124   4.810   4.966  0.2223 -0.0763 -0.2447
 6661W        W20075   9.306   0.874  13.025 -0.1523 -0.1480  0.1778
 6662W        W20076  12.200   6.609  15.306  0.1396  0.1310 -0.1543
 6663W        W20077  15.135  15.242   2.590 -0.3691 -0.1024 -0.1982
 6664W        W20078   6.054  12.026  14.659  0.1183  0.2455 -0.1124
 6665W        W20079  12.551   0.399  15.221  0.2783 -0.1479 -0.0982
 6666W        W20080  15.111  10.704   1.821 -0.2762 -0.2110  0.2466
 6667W        W20081  13.148   7.938  15.359  0.2246 -0.0167  0.1995
 6668W        W20082  17.103   3.232  15.696  0.0262 -0.1714 -0.0006
 6669W        W20083   3.112   0.883  15.772  0.1212  0.1201  0.3125
 6670W        W20084  16.976   7.436   2.528 -0.0649 -0.2343  0.0303
 6671W        W20085   2.918   9.564  13.759  0.0217 -0.2946  0.6078
 6672W        W20086   1.076   5.825  12.027  0.0348  0.0581 -0.2425
 6673W        W20087   4.120  14.259  10.819 -0.0380 -0.1244  0.0922
 6674W        W20088   4.327   6.851   0.931 -0.0874  0.1151 -0.1135
 6675W        W20089   7.386   8.505  16.034  0.3038  0.0264  0.5288
 6676W        W20090  17.275   4.160  15.553 -0.1547  0.0948 -0.0006
 6677W        W20091   8.226  10.895  16.293  0.3150 -0.0272  0.1852
 6678W        W20092  12.217  11.730  11.051  0.3191  0.0868 -0.0748
 6679W        W20093   1.760  14.388  11.373 -0.0503  0.0108 -0.0046
 6680W        W20094   3.049  16.710  12.822  0.0544 -0.3603 -0.3045
 6681W        W20095   4.083   8.455  13.752  0.0153 -0.0892 -0.2647
 6682W        W20096   6.025   6.287  13.780 -0.2687 -0.2232  0.0353
 6683W        W20097  16.534   8.516   2.815  0.0277 -0.0687  0.2199
 6684W        W20098   4.843   2.107  16.314 -0.2068 -0.0953  0.1306
 6685W        W20099  14.355   3.376   5.430  0.0342  0.0248 -0.0270
 6686W        W20100   0.655  15.352   2.163 -0.5628  0.2030 -0.0982
 6687W        W20101  11.415  11.643  10.396 -0.2125  0.1901  0.2493
 6688W        W20102   3.852  15.478  16.075  0.0030 -0.0501  0.0426
 6689W        W20103  15.873  13.875   5.562 -0.0263 -0.2656  0.5444
 6690W        W20104   8.768   6.436  11.060 -0.0310  0.0993 -0.1140
 6691W        W20105   8.185  15.260  12.719  0.1027 -0.0140 -0.0366
 6692W        W20106  17.819  13.145  14.159  0.0598  0.0794  0.0282
 6693W        W20107  17.502   4.323   3.646  0.0837 -0.1318  0.0481
 6694W        W20108   1.207  15.261   4.347 -0.3149 -0.2155 -0.4268
 6695W        W20109  12.254  11.128  16.039  0.3599  0.1589  0.0176
 6696W        W20110  11.924   7.850  12.073  0.0388  0.0347 -0.0295
 6697W        W20111  13.868  11.533   4.758  0.0209 -0.0680 -0.1580
 6698W        W20112  17.058   5.030   0.451  0.0425 -0.1700 -0.0947
 6699W        W20113   4.377   8.542  11.514 -0.1864  0.0650 -0.0897
 6700W        W20114  15.885   0.341   2.538  0.0816 -0.0078  0.0736
 6701W        W20115   3.072   4.591  11.059 -0.0139 -0.1584 -0.1209
 6702W        W20116   6.326  10.471  10.345 -0.1111 -0.0742  0.0498
 6703W        W20117  14.602  13.391   4.917  0.1301  0.1253 -0.1969
 6704W        W20118  15.922   2.455   0.701 -0.1162  0.2185 -0.2124
 6705W        W20119   2.641  15.813  11.957 -0.1029 -0.0187 -0.0677
 6706W        W20120  15.642  16.996   6.559 -0.2603  0.0658 -0.1731
 6707W        W20121   9.996  15.312  13.267 -0.0052 -0.1838 -0.3972
 6708W        W20122  18.367  17.766   4.790 -0.0800  0.1743  0.0290
 6709W        W20123  18.332  11.017   0.240  0.2232  0.4039 -0.1143
 6710W        W20124   4.188  17.137  15.697 -0.5148 -0.1790  0.1302
 6711W        W20125   1.183   5.277   4.341  0.1030  0.0058 -0.0713
 6712W        W20126  15.447  13.335   1.908  0.0073  0.0732 -0.0432
 6713W        W20127   1.960   9.682   1.023 -0.0777  0.1741 -0.1269
 6714W        W20128  14.550  18.061   4.044  0.0618  0.0980 -0.2011
 6715W        W20129  12.927   7.696  15.767  0.0756  0.0592  0.0008
 6716W        W20130  16.864  12.813  11.701 -0.0620 -0.3454 -0.3236
 6717W        W20131   2.151  13.962  15.036 -0.1106 -0.1824  0.3182
 6718W        W20132  15.137   7.645   3.598  0.1854 -0.3331 -0.1281
 6719W        W20133  17.194   5.268  14.910  0.2155 -0.2158 -0.1691
 6720W        W20134  17.153   0.746  12.198  0.0430 -0.5267 -0.1996
 6721W        W20135   9.672   3.872   5.064 -0.0348 -0.1191  0.1335
 6722W        W20136  17.350   9.143   3.689 -0.2044  0.0925 -0.1768
 6723W        W20137   2.449  13.907  12.989 -0.1570  0.2069 -0.0659
 6724W        W20138   6.363   2.968   0.209  0.2469 -0.1662  0.0361
 6725W        W20139  12.747   0.456  15.772  0.2120 -0.1263 -0.0612
 6726W        W20140  16.842  10.017   0.331  0.0136  0.0998  0.0446
 6727W        W20141  11.831   4.014  15.008 -0.0322  0.1137  0.2298
 6728W        W20142  12.439   1.430   4.551  0.2203 -0.3150 -0.1753
 6729W        W20143   0.863  12.599   6.185 -0.2927 -0.0185  0.1535
 6730W        W20144  17.860   5.145   1.094  0.0988  0.2183 -0.1257
 6731W        W20145   1.595  10.119   2.408  0.0229 -0.0404 -0.0040
 6732W        W20146   9.223   3.478   2.175  0.0814 -0.0510 -0.0805
 6733W        W20147  18.368   5.089  12.182  0.2413  0.1502 -0.2540
 6734W        W20148  17.371   4.660   3.227 -0.1075 -0.2045 -0.0267
 6735W        W20149   5.425  14.650   3.649 -0.1216  0.0966  0.1039
 6736W        W20150  14.619  13.317  16.123  0.1212 -0.1375 -0.4429
 6737W        W20151   9.344   8.031   0.986 -0.1276 -0.1062 -0.1125
 6738W        W20152   8.463   9.686   4.877 -0.1312 -0.1821  0.0254
 6739W        W20153  17.918   6.637   9.652 -0.4905  0.0651  0.1948
 6740W        W20154   0.602   7.242   2.272 -0.0396 -0.0202 -0.1251
 6741W        W20155  12.838   5.132  12.439 -0.1171 -0.0857 -0.4486
 6742W        W20156  16.574   6.650   2.787  0.0106 -0.0292  0.0459
 6743W        W20157   8.690   3.881  13.399  0.3430  0.1490 -0.1868
 6744W        W20158  13.392   2.237   6.499 -0.2022  0.1276 -0.3195
 6745W        W20159  15.082   1.583   0.074 -0.0748 -0.1082 -0.1474
 6746W        W20160  10.894   7.342  11.763 -0.2034 -0.1954 -0.2187
 6747W        W20161  15.562   0.586  13.373 -0.3389 -0.1181  0.2949
 6748W        W20162   2.542  12.689  16.399 -0.1331 -0.1918 -0.1624
 6749W        W20163  16.572  16.993   3.890 -0.3784 -0.0995 -0.4949
 6750W        W20164   5.369   1.945  16.277  0.0697 -0.0845  0.2219
 6751W        W20165   2.114  18.093   0.401  0.4857  0.0661  0.0011
 6752W        W20166   1.617  17.149  15.287 -0.0531 -0.0699 -0.0332
 6753W        W20167  15.993   2.793  11.864 -0.0003  0.1683 -0.0166
 6754W        W20168  17.637   4.819  13.069 -0.3837 -0.1945 -0.1115
 6755W        W20169  17.606   4.251  12.203 -0.2856 -0.0780  0.0397
 6756W        W20170  15.590  12.392   4.557  0.1723 -0.3481  0.3716
 6757W        W20171   9.423   5.821  13.610  0.0276 -0.2231  0.1338
 6758W        W20172   4.173   9.493  15.645 -0.0880 -0.0159  0.0925
 6759W        W20173   4.964  17.644   2.370 -0.4877 -0.2596  0.2364
 6760W        W20174   0.559  16.188   5.437  0.0359 -0.1759  0.1654
 6761W        W20175   9.356   6.141  12.545 -0.3267  0.4240  0.2409
 6762W        W20176   3.435  14.594  13.386  0.1313  0.0542 -0.5781
 6763W        W20177   3.953  18.309  13.857 -0.2244 -0.1645  0.1113
 6764W        W20178  14.111   7.407   0.436  0.2278  0.3074 -0.0788
 6765W        W20179   6.575  18.108  15.050  0.2268  0.0969 -0.2300
 6766W        W20180   7.799   8.784   5.131 -0.0527 -0.0560  0.1026
 6767W        W20181   0.103   7.812  12.438  0.1203 -0.3843  0.0208
 6768W        W20182   0.204   2.182  13.610 -0.2164  0.0089 -0.3365
 6769W        W20183  15.342  15.380   0.208  0.1534  0.3040 -0.0646
 6770W        W20184   5.218  10.596   3.156 -0.1210 -0.1119  0.0987
 6771W        W20185   7.970   4.725   3.529 -0.2748  0.0367  0.1736
 6772W        W20186  17.557  14.152   1.287  0.0672  0.0600  0.0845
 6773W        W20187   2.679  17.408  14.291 -0.2121  0.0375 -0.0798
 6774W        W20188  16.532   1.917  15.763 -0.1315 -0.4960 -0.2023
 6775W        W20189  16.366   4.754   5.531  0.1013 -0.2010 -0.0418
 6776W        W20190   7.447   3.510  15.619 -0.2319  0.3024  0.2548
 6777W        W20191   8.180  11.013  15.360  0.3381  0.1300 -0.2619
 6778W        W20192   2.671   1.313   0.766  0.3282 -0.1829 -0.0582
 6779W        W20193   4.564  11.301  12.012  0.1166  0.3278  0.0466
 6780W        W20194  10.226  12.169  13.766  0.2217 -0.0726 -0.2006
 6781W        W20195   6.346   3.693  15.596  0.1517 -0.2354  0.0156
 6782W        W20196  12.412   0.623   0.351 -0.0856 -0.0817  0.4839
 6783W        W20197   4.407  14.071   6.262 -0.0527  0.1649  0.0435
 6784W        W20198   3.709  12.196  13.926  0.0564  0.1683 -0.1771
 6785W        W20199  14.904   2.042  16.426 -0.1021 -0.3187  0.0330
 6786W        W20200   4.162   7.160  15.213 -0.1860  0.2789  0.1613
 6787W        W20201   3.537   7.621   0.888 -0.0388 -0.3085  0.1017
 6788W        W20202   8.172  18.252   0.440  0.0615  0.0093  0.0336
 6789W        W20203   3.925   9.490   4.928 -0.0952  0.0248 -0.0190
 6790W        W20204  13.356   7.714  11.913  0.0807  0.0851  0.1502
 6791W        W20205  13.123  17.090   6.590  0.1697 -0.0930 -0.1363
 6792W        W20206   1.420  14.745  11.527  0.1058 -0.6610 -0.2437
 6793W        W20207  12.498   0.844  13.039 -0.3992 -0.0262 -0.2788
 6794W        W20208   3.298   4.833  14.858 -0.0133 -0.0383 -0.0988
 6795W        W20209   6.568   5.817  13.388 -0.1017  0.0285 -0.0237
 6796W        W20210  12.093  11.255   2.262  0.0485  0.0797  0.2103
 6797W        W20211  12.171   5.107   2.560  0.0144  0.0146  0.1443
 6798W        W20212   1.719  13.965   2.083 -0.1910  0.3940  0.0065
 6799W        W20213   4.121   9.979   1.806  0.2287 -0.0661  0.1967
 6800W        W20214   1.691  11.862   4.334  0.3004  0.1428 -0.0017
 6801W        W20215  15.657   3.176  11.876 -0.2351  0.1670 -0.1411
 6802W        W20216  17.595  14.470   2.833  0.0984 -0.0694  0.2046
 6803W        W20217   4.062  10.591   0.565 -0.1363 -0.3895  0.2174
 6804W        W20218   1.331  15.557  12.557 -0.0097  0.0322  0.0907
 6805W        W20219  13.651  12.499   5.499 -0.1156 -0.1297  0.3062
 6806W        W20220   8.397  15.114   0.157  0.1905  0.0962 -0.1628
 6807W        W20221   8.341   5.163  15.047  0.0020 -0.0895 -0.0956
 6808W        W20222   7.790   2.829   6.230 -0.0028 -0.2853 -0.2531
 6809W        W20223  12.067   2.797   1.537 -0.1176  0.1940 -0.0379
 6810W        W20224   3.188  16.593  13.397 -0.0596  0.0806  0.2973
 6811W        W20225  15.785  10.170  10.544  0.0789  0.2350  0.1836
 6812W        W20226  11.711  13.960  14.559 -0.0552 -0.0153  0.1290
 6813W        W20227  13.970   0.871  11.712 -0.2244  0.1676  0.2482
 6814W        W20228   9.570  15.023  10.451  0.0043  0.0444 -0.1765
 6815W        W20229  15.401  16.579  11.850  0.1918 -0.0182  0.1158
 6816W        W20230   9.863   2.311  15.989 -0.2774  0.2819 -0.3077
 6817W        W20231   1.858   2.964   1.258  0.3832 -0.0053 -0.0813
 6818W        W20232   4.974  16.213   5.143  0.3519  0.0106 -0.1561
 6819W        W20233  11.597   8.208  13.804 -0.2859  0.1100 -0.1652
 6820W        W20234  14.471  18.020  11.168  0.1560  0.1882  0.0256
 6821W        W20235   4.580   7.836  13.092 -0.0917 -0.3844 -0.2592
 6822W        W20236   6.817   7.739  11.632 -0.0200  0.1259 -0.0241
 6823W        W20237  17.206   4.093  13.257  0.0368  0.3839  0.1800
 6824W        W20238  11.436   7.282   6.226 -0.0326 -0.1059  0.0043
 6825W        W20239  13.011   4.598  12.299  0.2922 -0.0057 -0.2506
 6826W        W20240   5.788   0.060   1.800 -0.0282 -0.0105 -0.0668
 6827W        W20241   1.310  10.567   1.074 -0.0512 -0.2065 -0.1326
 6828W        W20242   5.612   5.330  10.746  0.1597  0.2446  0.0146
 6829W        W20243  15.687  16.698  12.781 -0.1589  0.2855  0.3156
 6830W        W20244  11.714   0.956  11.891 -0.2060  0.1479 -0.0513
 6831W        W20245   1.641   3.968   1.842  0.2000 -0.2131  0.4037
 6832W        W20246  17.525   3.711  13.284 -0.2455 -0.2846  0.0054
 6833W        W20247  11.980   8.445  13.690 -0.0578  0.0886 -0.0536
 6834W        W20248  16.752  10.053   3.718  0.0302 -0.3952 -0.1085
 6835W        W20249   8.357  11.637   0.955  0.3826  0.1053  0.3455
 6836W        W20250   4.635  15.198   5.478  0.0164 -0.1450 -0.2728
 6837W        W20251  13.812   7.599  13.018 -0.3150 -0.0588 -0.1849
 6838W        W20252  16.970  12.402  15.953 -0.3836  0.2500 -0.3762
 6839W        W20253   7.343   5.832  12.686  0.0443  0.0273 -0.2664
 6840W        W20254  11.590   0.626   1.141 -0.1696  0.0035 -0.1347
 6841W        W20255  17.500  14.947   0.862 -0.0378 -0.3052 -0.0163
 6842W        W20256  15.433   7.363   1.480  0.2632 -0.0518 -0.0405
 6843W        W20257  14.953   4.601   6.078  0.1670  0.3689 -0.0270
 6844W        W20258  10.265  14.109  11.992 -0.3717 -0.1340 -0.0942
 6845W        W20259   7.178   0.163   0.286  0.0065  0.2031  0.2012
 6846W        W20260   7.821   1.057   2.023  0.0045 -0.3830 -0.0510
 6847W        W20261   4.219   2.088  13.848 -0.0840 -0.1232 -0.1355
 6848W        W20262   4.526  13.919   2.821  0.1634  0.2563  0.2826
 6849W        W20263  14.505  15.310  13.128 -0.1162  0.0250  0.0371
 6850W        W20264   9.230  13.476  11.133  0.1034  0.1374 -0.0802
 6851W        W20265   2.265  10.343   3.783 -0.0142  0.1940 -0.1305
 6852W        W20266   5.802   5.891  10.577 -0.2730 -0.2106 -0.0102
 6853W        W20267   1.240   2.142  15.170  0.0869 -0.1767  0.0236
 6854W        W20268   8.343   8.870   1.453  0.1083  0.0256 -0.3086
 6855W        W20269   0.403  16.649   2.702  0.0710  0.1980 -0.0725
 6856W        W20270  10.644   8.613  16.359 -0.0452 -0.1388 -0.1795
 6857W        W20271  15.838  13.109  11.123  0.4956 -0.1696  0.1312
 6858W        W20272   9.833   7.386  14.169  0.1281  0.4399 -0.1399
 6859W        W20273  10.012  14.298   5.489  0.2262  0.0507 -0.1170
 6860W        W20274   3.520   7.448   4.407 -0.3114 -0.2849  0.1443
 6861W        W20275  17.521  15.374   6.850  0.1747 -0.3248  0.0420
 6862W        W20276  17.954  16.077   4.329 -0.1870  0.1168 -0.0026
 6863W        W20277  15.468  18.160   0.009  0.1061  0.0030 -0.1240
 6864W        W20278   9.344  15.795   4.838 -0.0564 -0.0858  0.0051
 6865W        W20279   6.018  16.654   1.300  0.0558 -0.0192  0.2234
 6866W        W20280  17.272  13.508   3.273  0.3151 -0.0403 -0.4818
 6867W        W20281  13.507  10.634  15.665 -0.0676 -0.2900  0.0714
 6868W        W20282   0.238   5.589  14.524 -0.0406  0.1666 -0.3264
 6869W        W20283   3.291   3.760  13.311  0.1443 -0.1811  0.0170
 6870W        W20284   7.508  12.175   0.887 -0.0170 -0.0779 -0.1491
 6871W        W20285  15.689  15.893  14.051  0.1057 -0.1168 -0.3903
 6872W        W20286  14.568   9.908  15.470 -0.2096  0.0908  0.1593
 6873W        W20287  13.711   9.299  11.726  0.0028 -0.1114 -0.0080
 6874W        W20288   7.839  16.311  16.354  0.0688  0.2007  0.2166
 6875W        W20289   7.344  13.413   3.078  0.1117 -0.1854  0.2593
 6876W        W20290   0.607  10.098   4.457  0.1455 -0.0348  0.0058
 6877W        W20291   4.983   6.577   2.300  0.1191  0.2446  0.2337
 6878W        W20292   1.627  16.508  14.348 -0.2066 -0.3180  0.0051
 6879W        W20293  10.931   8.698  15.212  0.1042  0.0353  0.1730
 6880W        W20294  12.964   9.429  16.332 -0.0749 -0.0758  0.1284
 6881W        W20295   2.913  13.703  12.211 -0.3050  0.0216  0.2031
 6882W        W20296   5.282   8.371  13.150 -0.3272 -0.2230 -0.3942
 6883W        W20297   0.876  12.490   2.289 -0.3649  0.3177 -0.2586
 6884W        W20298   3.638  15.602   4.140 -0.0952  0.0201 -0.1257
 6885W        W20299  15.065  11.625  14.156  0.1406 -0.2389  0.0023
 6886W        W20300  11.824   2.944  15.877 -0.2844  0.0368  0.0034
 6887W        W20301   6.485   9.086   0.154  0.0691  0.0908  0.0174
 6888W        W20302   7.296  11.963   3.390  0.1491  0.1302  0.0447
 6889W        W20303   8.783  10.050   4.058 -0.1209 -0.1269  0.1909
 6890W        W20304   5.753   8.238  11.916  0.1384  0.0190 -0.4006
 6891W        W20305  17.532  12.635   2.013  0.2465 -0.0462 -0.0908
 6892W        W20306  10.476   7.400   5.541  0.2057  0.1542 -0.1935
 6893W        W20307  14.523   1.348  13.533  0.3261  0.3272 -0.0195
 6894W        W20308   7.998   8.520   0.810 -0.2068 -0.1152  0.0412
 6895W        W20309   1.653   4.107  13.556  0.2305 -0.1404  0.1020
 6896W        W20310   8.888   0.796   2.707  0.1580  0.2423 -0.2300
 6897W        W20311  16.114  18.177  12.922 -0.1592 -0.1273 -0.2578
 6898W        W20312   3.437   4.518  15.264  0.0671  0.2427 -0.1364
 6899W        W20313   4.497  14.530  15.094 -0.2293 -0.2826  0.2831
 6900W        W20314   5.470   1.654   0.247  0.3522 -0.1017 -0.0230
 6901W        W20315  12.813   5.262   4.725 -0.1176  0.1184  0.1966
 6902W        W20316  14.125   2.932  13.285 -0.3815 -0.0201  0.1664
 6903W        W20317  12.493   6.239  12.522  0.0873  0.0129  0.1579
 6904W        W20318   0.378  11.515  13.429  0.0226 -0.0187 -0.0006
 6905W        W20319   8.316  18.270  14.543  0.1848 -0.2085 -0.4123
 6906W        W20320   2.773  11.685  16.507 -0.0099  0.1170 -0.2340
 6907W        W20321   8.460   7.218  16.161 -0.0087 -0.0906 -0.0620
 6908W        W20322   2.137  10.641  13.141  0.2927  0.2681 -0.0581
 6909W        W20323  13.615   8.789   2.256  0.0797  0.0255  0.1954
 6910W        W20324   2.233  11.095  13.328  0.2671 -0.1248 -0.0808
 6911W        W20325   6.477   6.685   4.620 -0.1441 -0.5004 -0.3754
 6912W        W20326  10.440   4.921  13.048 -0.3249  0.0394 -0.1103
 6913W        W20327  17.480  16.859  13.039 -0.0948 -0.0849 -0.0549
 6914W        W20328   1.695   3.692  15.695 -0.2689  0.1073  0.1173
 6915W        W20329  15.750   4.146  11.555 -0.1333  0.2126  0.0210
 6916W        W20330  11.204  18.376   4.034 -0.2664 -0.4372 -0.1424
 6917W        W20331  16.370   0.800  14.472 -0.0200 -0.0234 -0.2263
 6918W        W20332   0.827   2.143  15.402  0.2621  0.0242 -0.1842
 6919W        W20333   4.916   1.014   1.959  0.1415  0.0224  0.1610
 6920W        W20334  16.504  11.405  12.414  0.1801 -0.0984 -0.4558
 6921W        W20335   0.290  15.610  15.965 -0.1262 -0.1810  0.1788
 6922W        W20336   5.059   8.305   3.825 -0.1797 -0.0258  0.0019
 6923W        W20337  17.150  16.682   0.703 -0.0034 -0.2802  0.0236
 6924W        W20338  15.148  16.254   4.240 -0.1374  0.0810 -0.1982
 6925W        W20339   4.492  11.096   4.818 -0.0385 -0.4066 -0.0130
 6926W        W20340   7.484   2.443  13.701 -0.1049 -0.1966 -0.0727
 6927W        W20341   5.382  17.872  13.347 -0.3657 -0.0436 -0.0580
 6928W        W20342   5.800   0.591  11.362  0.0180 -0.2241  0.3560
 6929W        W20343  16.563  15.977   2.843 -0.0842  0.2866  0.0556
 6930W        W20344  12.728  17.158   2.498 -0.0882 -0.0655  0.1254
 6931W        W20345  14.224   8.952   5.689 -0.0623  0.2474 -0.0135
 6932W        W20346   5.570   7.089  13.303  0.1249 -0.1837 -0.1283
 6933W        W20347  17.454  10.415  11.304  0.0266  0.0486  0.2960
 6934W        W20348  15.275   2.515   1.854 -0.2019 -0.1048  0.2347
 6935W        W20349  15.000  10.562  12.135 -0.2977 -0.2757  0.4281
 6936W        W20350   0.190  12.752   3.765  0.0266 -0.0337 -0.4175
 6937W        W20351   7.015   1.200  10.704  0.2233 -0.0497 -0.3230
 6938W        W20352   0.257  17.591  15.742  0.0509 -0.0885 -0.0378
 6939W        W20353  10.328  13.482  14.264 -0.0876  0.1612  0.0402
 6940W        W20354  11.348   1.058  14.631  0.2474 -0.1775  0.0873
 6941W        W20355  12.798   8.540  12.458 -0.0275  0.0597  0.4250
 6942W        W20356  14.680   8.377   1.648 -0.2185 -0.0608  0.0184
 6943W        W20357  12.423   8.454  14.022  0.0336 -0.4864  0.2180
 6944W        W20358  14.476  14.540  11.348 -0.2320 -0.0954 -0.1501
 6945W        W20359  15.102  14.529   5.498  0.0193  0.2039 -0.0400
 6946W        W20360   0.403   4.192   0.711 -0.0904  0.0206  0.1046
 6947W        W20361   2.041   4.438  13.380 -0.1368 -0.2394 -0.0951
 6948W        W20362   4.770  17.385  12.777 -0.0542 -0.0455  0.0676
 6949W        W20363   8.807   0.594   0.669  0.0979  0.0975  0.0052
 6950W        W20364  16.780   2.156   5.987 -0.0190 -0.1239  0.0041
 6951W        W20365  10.051  13.044  12.295  0.1679 -0.0948 -0.5091
 6952W        W20366   6.431   2.874  11.742  0.0768  0.1986  0.1313
 6953W        W20367  13.523  17.460   0.181  0.3798  0.1002 -0.1749
 6954W        W20368  11.097   5.681  11.747  0.1555 -0.0384  0.3214
 6955W        W20369   2.565   0.435   1.815 -0.0018 -0.2223 -0.2647
 6956W        W20370  17.455   2.953  15.290 -0.0534 -0.1884 -0.2724
 6957W        W20371  16.809  11.067  14.596  0.1950 -0.1660  0.1860
 6958W        W20372   9.110   9.912   6.182 -0.3025 -0.3475  0.3232
 6959W        W20373  14.919  10.873  12.879  0.4135 -0.1278 -0.0406
 6960W        W20374  10.645  18.268  15.263  0.0421 -0.1028 -0.0713
 6961W        W20375   0.406   9.069   0.358  0.0773 -0.0473  0.3137
 6962W        W20376   1.049   6.596   4.329 -0.0819  0.0739  0.4515
 6963W        W20377  17.381   1.501   4.414  0.1049  0.1508  0.0264
 6964W        W20378   3.449   3.996   2.883 -0.0712 -0.3743 -0.0491
 6965W        W20379  14.284  14.140   4.384 -0.2591 -0.0527  0.3296
 6966W        W20380   8.947  10.453   4.373 -0.2548  0.0018  0.1595
 6967W        W20381  14.639   2.284  12.559  0.0543 -0.1193 -0.1212
 6968W        W20382   3.225  16.966  13.751 -0.2140  0.1574 -0.0774
 6969W        W20383  16.042   1.851  13.526 -0.1086 -0.1707  0.1059
 6970W        W20384  13.950   1.463   0.683 -0.0328 -0.1405  0.3495
 6971W        W20385  14.023  17.788   5.098  0.3377 -0.2154  0.1618
 6972W        W20386  17.450   6.115   2.050  0.1322  0.0740  0.2212
 6973W        W20387  14.446   9.223  15.515  0.1011 -0.1905 -0.2915
 6974W        W20388  14.925  15.774   4.895 -0.2587 -0.0097 -0.0745
 6975W        W20389  10.367  12.596   0.167  0.0804 -0.0152  0.0993
 6976W        W20390  18.341   1.390   5.496 -0.4926 -0.0587 -0.1643
 6977W        W20391   8.855   9.972   5.064 -0.1421  0.0398 -0.0022
 6978W        W20392  10.733   3.225  13.804  0.0580  0.1443  0.1314
 6979W        W20393   6.794  16.152   3.594 -0.1655  0.1061  0.1811
 6980W        W20394  17.903  11.155  15.608 -0.0352 -0.2450  0.1302
 6981W        W20395   6.566   7.991  14.112 -0.0646  0.3168 -0.3318
 6982W        W20396  11.143   9.311   5.334 -0.0532  0.0740  0.0938
 6983W        W20397  17.961  15.820  10.733 -0.2555  0.2365 -0.0810
 6984W        W20398  11.632  13.051   1.837  0.4256  0.2738 -0.1184
 6985W        W20399   8.036  16.253  12.888 -0.0317 -0.0959 -0.1594
 6986W        W20400   7.814  13.014  15.176  0.1099 -0.0937 -0.0644
 6987W        W20401  11.776   3.752  15.484 -0.1074  0.0487  0.0079
 6988W        W20402  15.200  13.214  16.268  0.0415 -0.0163 -0.3290
 6989W        W20403  17.934   1.531   1.082  0.0684 -0.0053  0.0856
 6990W        W20404  12.857   1.492   3.025 -0.1548 -0.5259  0.3232
 6991W        W20405  15.222   1.600   3.388  0.0227 -0.1096 -0.2173
 6992W        W20406   7.841  17.855   1.974 -0.1271 -0.1667  0.1339
 6993W        W20407   4.204   1.885   1.012 -0.0057 -0.0507 -0.0439
 6994W        W20408   7.163   7.481  16.407  0.0616  0.0476  0.3490
 6995W        W20409  14.995   8.351  16.309 -0.2265 -0.1553  0.4326
 6996W        W20410   4.069  14.238   5.543 -0.1736  0.1071  0.0423
 6997W        W20411   7.327  13.732  10.471 -0.0510 -0.4245 -0.0213
 6998W        W20412   3.838  17.065   4.528 -0.1977 -0.0231  0.0703
 6999W        W20413   6.800   8.698   5.724 -0.1836 -0.2325  0.1101
 7000W        W20414  18.173   8.328  15.843 -0.0397  0.2187 -0.1104
 7001W        W20415  16.543   6.381  12.301 -0.0942 -0.2630 -0.0147
 7002W        W20416   0.416   0.368   5.128  0.1454 -0.0871  0.0873
 7003W        W20417  15.437  15.537  12.676  0.2051  0.0165  0.2667
 7004W        W20418  13.840   1.660   3.172 -0.1108  0.2240  0.1134
 7005W        W20419  14.983   4.935  11.900  0.0429  0.1496 -0.0661
 7006W        W20420   7.018   6.057  14.902 -0.2912 -0.1685 -0.1819
 7007W        W20421  17.404  18.144  12.718  0.3410 -0.2928  0.0028
 7008W        W20422  14.791  10.925   5.805 -0.0141  0.0106  0.0030
 7009W        W20423   0.273  13.752  14.105  0.2053  0.0202 -0.2014
 7010W        W20424  11.708   3.363  12.946  0.1600 -0.1182 -0.3416
 7011W        W20425   9.468   1.680   2.463 -0.1078  0.2979 -0.0614
 7012W        W20426   5.305   3.979   2.876  0.3552  0.3577  0.0881
 7013W        W20427  13.719  12.179   1.258 -0.0887 -0.1615  0.2406
 7014W        W20428   4.412   6.213  10.912  0.1734 -0.0619  0.3553
 7015W        W20429   0.691   5.860  10.302  0.3163 -0.0565  0.1385
 7016W        W20430   8.027  17.035  14.318  0.0091 -0.1145 -0.1725
 7017W        W20431  11.571   4.425  15.113 -0.0226 -0.0601  0.0215
 7018W        W20432  10.835  17.871   4.785  0.1944  0.0725  0.1942
 7019W        W20433   8.112   8.746  14.665 -0.3859  0.4119 -0.0551
 7020W        W20434  13.802   2.604  12.352 -0.2066 -0.2016 -0.4328
 7021W        W20435  16.692   4.090   4.765 -0.0056 -0.1687  0.1487
 7022W        W20436  14.102   4.259   1.336 -0.0445 -0.0017  0.0829
 7023W        W20437   9.976   8.808  12.616  0.0276 -0.2156 -0.1295
 7024W        W20438   9.572  13.932  11.328  0.1170  0.0690  0.2074
 7025W        W20439   9.379   3.843  15.392  0.2293 -0.0690  0.2075
 7026W        W20440   1.063  11.817   1.091 -0.2049  0.2394  0.1894
 7027W        W20441   3.604  18.265   2.014  0.0318  0.0434 -0.0456
 7028W        W20442   3.894  11.655  15.090 -0.0434  0.1937  0.0700
 7029W        W20443   5.399   1.984  10.646  0.0739 -0.1335  0.1295
 7030W        W20444  14.089   6.187  10.231 -0.0907  0.0635  0.0689
 7031W        W20445  16.320   8.408  14.522 -0.2744 -0.1115  0.0325
 7032W        W20446   7.390  15.074   1.199  0.1729 -0.0059  0.0834
 7033W        W20447  14.463   0.829   1.520 -0.0431 -0.1289  0.1054
 7034W        W20448  13.563   1.072   5.577 -0.5075 -0.2485 -0.2123
 7035W        W20449   0.871  12.427   5.463  0.0050  0.0196 -0.0704
 7036W        W20450   4.402  15.622  11.410 -0.1664  0.0577 -0.0785
 7037W        W20451  14.044   4.397   2.365  0.0053 -0.0088  0.2787
 7038W        W20452  13.596  13.673  15.815  0.0795  0.0301 -0.1774
 7039W        W20453  16.383   4.739  12.076 -0.0325 -0.1117  0.1887
 7040W        W20454   2.223   8.841   0.932 -0.0188  0.3600  0.1131
 7041W        W20455   8.663   2.655   2.661 -0.0696  0.1214 -0.2154
 7042W        W20456  13.359  15.112  12.033 -0.0542  0.2651  0.1534
 7043W        W20457  14.623   1.035  10.947  0.0041 -0.1916  0.1493
 7044W        W20458   6.169  11.327  11.119  0.4134 -0.0298  0.1125
 7045W        W20459   2.418  13.329   1.802 -0.0060  0.0014  0.0176
 7046W        W20460   8.124   6.367   3.085 -0.1085  0.4373  0.2297
 7047W        W20461   9.077  14.659  11.528  0.0785 -0.1524 -0.0317
 7048W        W20462   9.201  10.748   3.417 -0.0711  0.0282  0.1481
 7049W        W20463  17.897   9.303   3.137  0.0744  0.2164 -0.0794
 7050W        W20464   9.472  16.300  11.794  0.0225  0.2183  0.0466
 7051W        W20465   7.148   4.833   1.788  0.1522 -0.2678 -0.0439
 7052W        W20466   2.687   0.897  16.045  0.2586  0.2105  0.0984
 7053W        W20467   2.760  10.558  13.920  0.1613  0.2828  0.3711
 7054W        W20468  10.426   0.617   0.036  0.2157  0.0567  0.3209
 7055W        W20469   7.079  13.172   2.663 -0.2028  0.0385 -0.2366
 7056W        W20470   2.346  16.251  12.007  0.0279  0.1563  0.2307
 7057W        W20471   2.635  12.197  10.651  0.3116  0.1341  0.2637
 7058W        W20472   7.867  15.151   4.507  0.1186 -0.0311  0.0477
 7059W        W20473   0.143   9.345   4.457 -0.0133 -0.1725  0.2153
 7060W        W20474  11.227  10.375  13.163 -0.0085 -0.1263  0.1870
 7061W        W20475   3.827   2.848   0.997 -0.1805 -0.3426  0.0115
 7062W        W20476  11.659  12.351   0.255  0.1425 -0.0136 -0.0844
 7063W        W20477   3.558  15.805  12.343 -0.1657  0.0236  0.1387
 7064W        W20478  10.216  10.291   1.808  0.0620  0.0903  0.1192
 7065W        W20479   9.851   6.989   0.364  0.1403 -0.1559 -0.0693
 7066W        W20480  13.999  11.279  11.226  0.1768  0.0613 -0.3190
 7067W        W20481   3.217  10.738  13.167 -0.1216 -0.0410  0.0298
 7068W        W20482   3.078  16.055  10.960 -0.4032  0.2201  0.1880
 7069W        W20483  15.031   9.561  13.013  0.0803 -0.0925  0.0712
 7070W        W20484   0.782  17.569  14.877  0.1089  0.0113  0.3387
 7071W        W20485   7.728   1.725  16.459 -0.4880 -0.0426 -0.1873
 7072W        W20486   6.697   0.044   1.489  0.0177 -0.0855 -0.1294
 7073W        W20487  15.241  14.141  16.253  0.0803 -0.1992 -0.1070
 7074W        W20488   3.028   5.360  15.035 -0.2520  0.1035  0.0559
 7075W        W20489  16.191   6.525  14.408 -0.1530  0.3879 -0.1321
 7076W        W20490   2.289  16.350   6.388 -0.1069  0.0639 -0.1640
 7077W        W20491  14.151  10.699  14.445 -0.1932  0.1680 -0.5612
 7078W        W20492  15.126  15.864  12.905  0.0549 -0.0529  0.1806
 7079W        W20493  12.886   3.450   3.259 -0.0730 -0.0149  0.0392
 7080W        W20494   3.137   1.717   2.340  0.1718 -0.1421 -0.2625
 7081W        W20495   1.335  14.550  15.525 -0.1991  0.0254 -0.2597
 7082W        W20496  15.886   3.384  13.043  0.0638 -0.0053 -0.1218
 7083W        W20497   8.522  13.005   3.150 -0.3441  0.1981 -0.1512
 7084W        W20498   1.387  18.092   5.124  0.0982  0.2673 -0.0681
 7085W        W20499  14.502  11.497  11.669 -0.2491 -0.3789  0.1509
 7086W        W20500  12.772  13.650  16.051 -0.2299 -0.0803 -0.0842
 7087W        W20501  15.788   0.405  11.763 -0.1853  0.0151 -0.2558
 7088W        W20502  14.204  17.423  13.433  0.0208  0.2447 -0.2080
 7089W        W20503  12.888   2.362   6.292  0.3907 -0.0074  0.3384
 7090W        W20504   9.313  14.761   1.097  0.2867 -0.4346 -0.1813
 7091W        W20505   8.191   6.802  14.232 -0.1529  0.1634 -0.2078
 7092W        W20506   5.617  16.333  15.695  0.2185  0.0356 -0.0818
 7093W        W20507  11.134  12.129   3.358 -0.0225  0.0147  0.1234
 7094W        W20508  10.420  15.796   2.373  0.0038 -0.0873 -0.0401
 7095W        W20509   3.292   2.738  11.030  0.0259 -0.2546  0.1020
 7096W        W20510   4.439  14.809   3.769 -0.0503 -0.1241  0.1617
 7097W        W20511   9.909   3.892  11.734  0.0027  0.2878 -0.0326
 7098W        W20512   9.874  11.757  16.386  0.2299  0.1323  0.2864
 7099W        W20513   9.215  12.134   4.789 -0.0814 -0.0214  0.0524
 7100W        W20514   2.877  17.639  13.116 -0.0013  0.0732 -0.3208
 7101W        W20515  10.113  12.768   1.494  0.0410 -0.0908  0.0114
 7102W        W20516  10.780  14.612  15.923  0.0814  0.0026  0.3193
 7103W        W20517  16.869  14.246  14.035 -0.1472 -0.3523  0.2008
 7104W        W20518   6.267  14.065  13.263 -0.3621 -0.3648 -0.1053
 7105W        W20519   3.255   2.658   2.630 -0.2052  0.1435  0.0112
 7106W        W20520  16.210  16.194   2.607 -0.4221 -0.2935  0.1533
 7107W        W20521  17.872   9.082  16.322  0.0889 -0.0504 -0.0337
 7108W        W20522  12.363  17.671  10.751 -0.1184  0.1310  0.1173
 7109W        W20523  13.016   6.432  12.565 -0.1344 -0.2883 -0.0076
 7110W        W20524  18.106   3.487  15.124  0.1454  0.2618 -0.1823
 7111W        W20525  15.604  10.315  15.007 -0.0135 -0.2821  0.0407
 7112W        W20526   4.165  10.762  15.235  0.2214  0.4073  0.0634
 7113W        W20527   4.765  15.717   4.928 -0.0590 -0.0008 -0.1728
 7114W        W20528   0.084   9.889  10.550 -0.1667  0.4931 -0.2180
 7115W        W20529  13.870   0.601   4.426 -0.1997 -0.0512  0.0174
 7116W        W20530   4.511  15.654   5.303 -0.0633 -0.0340 -0.0588
 7117W        W20531   1.764   2.313   3.285 -0.0685 -0.1115 -0.0004
 7118W        W20532   3.183   4.587   1.472 -0.0671  0.5146 -0.1664
 7119W        W20533   6.997   3.751  10.548 -0.1953  0.3344 -0.0558
 7120W        W20534  11.947   3.563   5.843  0.1695 -0.1314 -0.1369
 7121W        W20535   7.591  12.867   4.912 -0.0555  0.0009 -0.1877
 7122W        W20536   0.988  12.025  14.948  0.0773 -0.2765  0.0227
 7123W        W20537   2.817   1.294   3.232  0.0629  0.1221 -0.0055
 7124W        W20538  17.516   7.055  13.233 -0.0523  0.1025  0.2205
 7125W        W20539   4.831   5.961  10.544  0.1892 -0.0316 -0.0541
 7126W        W20540   4.733   2.421   4.005 -0.0663 -0.1055  0.1899
 7127W        W20541  10.876   6.816  12.700  0.1025  0.0727 -0.0789
 7128W        W20542  15.839  10.827   0.215  0.2936 -0.0963  0.1132
 7129W        W20543   5.905   7.691   2.210  0.1053  0.0413 -0.2319
 7130W        W20544   9.052  15.039  12.980  0.0204  0.1606 -0.1538
 7131W        W20545   9.606  14.374  16.238  0.2650 -0.0623 -0.2229
 7132W        W20546   1.262   5.804   0.344  0.2246 -0.1301 -0.3342
 7133W        W20547  14.424  10.623   5.427 -0.2474 -0.3703  0.0405
 7134W        W20548   6.996  11.177  12.574  0.1138 -0.0250 -0.1309
 7135W        W20549   8.282   4.993  11.506 -0.0775  0.1383  0.0283
 7136W        W20550  12.334  16.712  12.773 -0.0364 -0.1233  0.1979
 7137W        W20551  11.084  13.226   6.125  0.3561  0.1241  0.0086
 7138W        W20552  13.775   7.496  12.111 -0.1759  0.0151 -0.0673
 7139W        W20553   6.934   2.601   4.728  0.1088 -0.0587  0.0849
 7140W        W20554   2.500   2.200   6.250 -0.1425  0.3727 -0.0135
 7141W        W20555   5.901   5.536   1.747 -0.1012  0.2980  0.0332
 7142W        W20556   7.089  16.242  11.192 -0.1503  0.0948 -0.0643
 7143W        W20557  12.350   0.750   2.462  0.0981 -0.4437  0.1362
 7144W        W20558   6.452  11.635   3.717 -0.2843 -0.0351  0.1151
 7145W        W20559   1.395   0.546  16.045  0.0373 -0.3276  0.2268
 7146W        W20560   9.048   5.271  14.586 -0.3394 -0.1429  0.0927
 7147W        W20561  13.941   9.343   4.011  0.1615 -0.0449 -0.0609
 7148W        W20562  16.019  15.189  13.158 -0.1442 -0.0145  0.2966
 7149W        W20563   3.592   5.544  16.300  0.1828  0.1283  0.1028
 7150W        W20564  14.586   7.743   4.913 -0.2570  0.2165  0.1283
 7151W        W20565  17.650   8.308   2.150  0.0152 -0.0016  0.2200
 7152W        W20566  12.388  14.020  11.623 -0.1445  0.0446 -0.3400
 7153W        W20567   2.553   8.094   3.654  0.0456 -0.0824 -0.0414
 7154W        W20568   3.069  15.976  10.444  0.2018  0.1199  0.0776
 7155W        W20569  15.044  15.381   7.091  0.2047  0.0034 -0.1886
 7156W        W20570   3.587   1.563   6.310  0.0871 -0.2709 -0.0578
 7157W        W20571  13.452  15.394   6.826  0.2404  0.0088  0.0128
 7158W        W20572   2.173  14.112   0.806  0.2166 -0.2025  0.1851
 7159W        W20573  16.472  15.667  13.037  0.2501  0.3217 -0.0743
 7160W        W20574  10.016  14.094  11.548 -0.2899  0.5381  0.1105
 7161W        W20575  12.682   8.996   5.466  0.0224 -0.2352  0.2917
 7162W        W20576   1.811   8.713   1.333 -0.0979 -0.2145 -0.0909
 7163W        W20577   7.913   4.038   5.313 -0.3133  0.3552 -0.0289
 7164W        W20578   4.024  17.622  14.791  0.0215 -0.1666  0.0720
 7165W        W20579   2.024  11.139  14.617  0.1098 -0.1661 -0.1572
 7166W        W20580  15.745  15.307  16.399  0.0891 -0.1187  0.0141
 7167W        W20581   3.234   1.044  10.935 -0.2316  0.2697  0.3221
 7168W        W20582   4.577   6.248   0.245  0.1301 -0.0603 -0.3876
 7169W        W20583   6.479   7.763  15.387  0.0677  0.4346  0.1196
 7170W        W20584  13.813   6.838   9.581 -0.0049  0.1105  0.1892
 7171W        W20585   1.890  16.355   4.549 -0.1310 -0.2365  0.2717
 7172W        W20586  17.285  18.248  11.124 -0.0704  0.1057 -0.0633
 7173W        W20587  15.951   5.596   0.452  0.0025 -0.2092 -0.1137
 7174W        W20588   8.312  11.899  10.674 -0.0766 -0.1232  0.0123
 7175W        W20589   7.156   3.910   3.818 -0.1156 -0.3222 -0.3668
 7176W        W20590   8.088  10.051   4.560  0.1560 -0.3021 -0.1080
 7177W        W20591  11.854   1.145   2.353  0.0498 -0.2998 -0.1148
 7178W        W20592  18.140  16.591   4.597  0.1259  0.1544  0.0095
 7179W        W20593   7.920   6.135  11.954 -0.1425  0.3757  0.0698
 7180W        W20594  13.068  13.559   1.475 -0.1590 -0.1207  0.0567
 7181W        W20595   3.821   2.135   0.820 -0.3404  0.0816  0.0852
 7182W        W20596   4.873   9.270  13.769  0.3247 -0.2392 -0.3239
 7183W        W20597   8.103  10.756  14.354 -0.1675  0.3211  0.1740
 7184W        W20598  16.809   2.474   3.756 -0.0663 -0.0724 -0.4996
 7185W        W20599  14.567  14.297   6.870 -0.0874 -0.0105  0.0706
 7186W        W20600   8.331   3.690   2.357 -0.0009  0.0149 -0.1976
 7187W        W20601   4.323  12.300   0.986 -0.0136 -0.2811  0.0616
 7188W        W20602  17.164  13.872   2.905  0.2215 -0.2432 -0.0326
 7189W        W20603  18.013  14.102  11.477  0.0492  0.1393 -0.0467
 7190W        W20604  11.481  11.079  15.442 -0.0145 -0.2663  0.2177
 7191W        W20605   7.665   7.592  16.361 -0.1379  0.3552 -0.1413
 7192W        W20606  10.581  12.332  15.324 -0.0631 -0.1277  0.0439
 7193W        W20607  16.406   2.481  12.092  0.1193  0.0048  0.0188
 7194W        W20608  16.032   3.033  10.377 -0.3040  0.0534  0.3292
 7195W        W20609   0.113  12.796  14.851 -0.2663 -0.1066 -0.1135
 7196W        W20610   7.703   5.088  12.867  0.0810 -0.4949 -0.1261
 7197W        W20611   9.912  10.595   1.428  0.3852  0.0174 -0.1247
 7198W        W20612  17.755  14.528   1.626  0.1575 -0.0575  0.2303
 7199W        W20613   0.366  15.194   2.483 -0.0039 -0.3784 -0.0800
 7200W        W20614  17.806   4.226  15.465  0.2169  0.0970  0.0826
 7201W        W20615  18.306   2.789   4.203 -0.0885 -0.2024  0.3576
 7202W        W20616   5.324  14.040  11.150  0.0618  0.2078  0.0942
 7203W        W20617   0.366   6.385   4.605 -0.2934  0.0941 -0.0100
 7204W        W20618  18.287  16.618  14.002 -0.0496  0.2450 -0.1459
 7205W        W20619   5.731   6.006  14.865  0.1469  0.0602  0.1259
 7206W        W20620   5.469  13.178  15.251  0.0302  0.1003  0.2227
 7207W        W20621   5.285   7.675   2.971 -0.3250 -0.1369  0.3736
 7208W        W20622  14.566   8.992   6.089  0.0785 -0.3368  0.0316
 7209W        W20623  16.612   7.607  10.182 -0.1551 -0.0626  0.0613
 7210W        W20624   8.460   0.897   5.153 -0.0078 -0.0523  0.3095
 7211W        W20625  11.785   6.114  10.586 -0.0308 -0.0190 -0.2884
 7212W        W20626   8.994   0.439  14.299 -0.0877 -0.1378  0.0874
 7213W        W20627  17.919   7.921  11.743  0.2166 -0.0475 -0.0998
 7214W        W20628  13.718   8.382  16.077 -0.0677 -0.3830  0.0316
 7215W        W20629   3.008   5.116  13.495  0.1292  0.1462 -0.0130
 7216W        W20630  15.408   1.173   4.586 -0.1125  0.1631 -0.0857
 7217W        W20631   6.658   7.740   0.930 -0.2397 -0.1561  0.2982
 7218W        W20632   4.645  17.464  15.506  0.1159 -0.1921 -0.0294
 7219W        W20633   3.438  10.218   0.033  0.0377  0.2656  0.0423
 7220W        W20634  17.057   2.874  11.241  0.3704  0.1978  0.1295
 7221W        W20635  15.719   6.120   3.340  0.3264  0.1095  0.0063
 7222W        W20636   2.526   3.181   4.335 -0.1083 -0.1538  0.0857
 7223W        W20637  16.608  10.931  11.052 -0.1294 -0.0479  0.2629
 7224W        W20638  11.436  11.458  15.046  0.0401  0.0491  0.1979
 7225W        W20639  10.773  13.384  14.216 -0.1970  0.0276 -0.1760
 7226W        W20640   6.164   3.588   2.632  0.2010  0.0570  0.0500
 7227W        W20641  13.530   2.061   2.941  0.3629  0.2898 -0.0369
 7228W        W20642   5.546   8.660   4.659  0.1416  0.2046 -0.0790
 7229W        W20643   9.678   0.897   1.498  0.1152  0.0051 -0.1135
 7230W        W20644   0.085   3.908  15.782 -0.1180 -0.1397  0.1023
 7231W        W20645  12.391   3.433  16.341 -0.1702  0.0084 -0.2788
 7232W        W20646  11.007  13.892  11.245 -0.0975 -0.1497  0.1300
 7233W        W20647  17.915   9.422  12.444 -0.2915  0.1679  0.0462
 7234W        W20648   4.373  10.640  13.923 -0.1812  0.3648 -0.1009
 7235W        W20649  11.333   1.439   2.559 -0.0120 -0.0837 -0.0536
 7236W        W20650   1.660   0.556   2.797  0.2096 -0.0470 -0.0476
 7237W        W20651   4.209   1.655   1.682 -0.1433  0.0236  0.2528
 7238W        W20652   8.657   9.810  16.059  0.2808  0.0572  0.3083
 7239W        W20653  18.158   8.810  11.860  0.1459  0.2926 -0.0690
 7240W        W20654   7.139  12.402  14.930  0.3962 -0.1454 -0.1816
 7241W        W20655   9.913  13.273   3.682 -0.0079  0.1494 -0.1278
 7242W        W20656  12.974   5.421  15.621  0.1027  0.0178 -0.2060
 7243W        W20657   2.841  12.260   2.395 -0.3081 -0.1209  0.2147
 7244W        W20658  10.714  14.231  13.221 -0.0496 -0.1742 -0.1265
 7245W        W20659   3.397  16.995  12.552  0.2046  0.1985 -0.2312
 7246W        W20660  18.323  13.173   3.628  0.0247 -0.3078 -0.1415
 7247W        W20661  18.012   2.563   6.119  0.2833  0.0114  0.1907
 7248W        W20662   0.027   4.824  10.650 -0.1254 -0.2183  0.2110
 7249W        W20663  10.718   9.659  16.233  0.2813  0.1094 -0.0689
 7250W        W20664   2.935   9.948  15.969  0.0621 -0.1281 -0.2932
 7251W        W20665  17.234  16.940   1.824  0.4915  0.0731 -0.0379
 7252W        W20666  14.750  10.221   1.283 -0.1790  0.2207 -0.0462
 7253W        W20667   1.324  13.650   6.348  0.0809  0.0053 -0.0280
 7254W        W20668   5.392   6.778   2.060  0.0975 -0.1585  0.0702
 7255W        W20669  16.009   6.298   4.953 -0.0429  0.2754  0.1217
 7256W        W20670  12.117   5.784   0.803  0.1160  0.0058  0.2664
 7257W        W20671  11.330  16.846   3.801 -0.0418  0.1418  0.0477
 7258W        W20672  16.557  16.194   6.289  0.1710 -0.1366  0.0287
 7259W        W20673   0.005  10.436  11.559  0.1859  0.0984  0.0800
 7260W        W20674   3.925   7.621  11.496  0.0296  0.1447  0.1466
 7261W        W20675   5.597  15.538  15.239 -0.2792  0.2298  0.2242
 7262W        W20676  13.913   8.921  11.044  0.0082  0.0625 -0.0633
 7263W        W20677   2.506  13.174   0.691  0.2028 -0.0253  0.2602
 7264W        W20678   9.670   6.368  16.164  0.3344  0.1051 -0.0082
 7265W        W20679  17.257   5.547  14.470  0.0908  0.1647 -0.0900
 7266W        W20680   1.665   3.606   3.928 -0.0458 -0.2135  0.1302
 7267W        W20681  15.485   8.329  14.948  0.2096 -0.0787 -0.0165
 7268W        W20682   4.213   8.644   4.117 -0.1228 -0.1032 -0.0209
 7269W        W20683   9.343   3.346   0.796 -0.2419  0.0631 -0.2166
 7270W        W20684  12.839   3.268   5.470  0.2238  0.0324 -0.3432
 7271W        W20685   4.989   6.812  14.342  0.2476 -0.2299  0.0698
 7272W        W20686   1.019   1.068   3.286  0.2126  0.0432  0.0512
 7273W        W20687   1.881  13.666  13.833  0.0309  0.3096  0.1026
 7274W        W20688   1.523   5.351   3.906 -0.1895  0.0610  0.2372
 7275W        W20689  17.004   4.479   4.900  0.2429 -0.0722  0.3597
 7276W        W20690  11.909   3.948  12.734  0.2214  0.0003  0.4461
 7277W        W20691  14.264   8.628   4.873  0.0213 -0.1654  0.1661
 7278W        W20692  10.764  12.246  12.371  0.1544  0.3027 -0.2927
 7279W        W20693   0.341  14.940   0.238  0.1072 -0.2457 -0.1689
 7280W        W20694  11.438   8.158  15.279 -0.0332  0.0872 -0.3359
 7281W        W20695  17.293  16.406   5.706  0.0425 -0.0447 -0.1158
 7282W        W20696  11.943  12.938  12.631  0.2026 -0.0706  0.0015
 7283W        W20697  14.966  10.431   0.254 -0.1427 -0.0681 -0.2218
 7284W        W20698   0.305  11.900  13.805 -0.3505 -0.1535  0.1941
 7285W        W20699   2.538  14.560  16.012  0.4732  0.0664 -0.2918
 7286W        W20700   3.220   3.871  14.005  0.0438  0.1120  0.1888
 7287W        W20701  17.798  17.534   2.733  0.1739  0.0381  0.3062
 7288W        W20702   1.895   0.131   0.067  0.0288  0.0629 -0.0455
 7289W        W20703   1.645   5.363  14.339 -0.3145 -0.2325 -0.0553
 7290W        W20704   6.346   5.347   1.060 -0.1346 -0.1589 -0.4688
 7291W        W20705  10.941  15.718   3.206  0.1123 -0.1149  0.1576
 7292W        W20706  11.938   9.519  12.457  0.0607 -0.2716  0.2524
 7293W        W20707  12.875  13.262   5.138  0.2442  0.1189 -0.3507
 7294W        W20708   6.786   7.098  16.180  0.1136 -0.3583 -0.3181
 7295W        W20709   8.893   4.628  10.763 -0.0635 -0.3309 -0.1722
 7296W        W20710   5.195   8.072  15.384  0.2448  0.1493 -0.2855
 7297W        W20711   2.209  13.946  14.059  0.0473 -0.0119 -0.0766
 7298W        W20712  12.297   5.396   4.783  0.1641  0.0063  0.0506
 7299W        W20713  14.221   7.177   2.548  0.0663  0.0194 -0.1414
 7300W        W20714   6.635   6.674   1.569  0.0582 -0.2514 -0.1052
 7301W        W20715   9.854  17.623  12.322 -0.2489 -0.0718 -0.1542
 7302W        W20716  11.801   2.841   0.139  0.0594  0.2895 -0.1646
 7303W        W20717   7.624  14.546  12.564  0.0971  0.0605  0.2800
 7304W        W20718  12.668  17.645  11.165  0.4983  0.0797 -0.1512
 7305W        W20719  17.857  15.432   7.176  0.1073 -0.0163 -0.0248
 7306W        W20720  15.288  14.335  15.445  0.0584 -0.0110 -0.3287
 7307W        W20721   9.092   4.975   4.249  0.1949 -0.0189 -0.1293
 7308W        W20722  11.476  17.609  11.480 -0.4268  0.2305 -0.1944
 7309W        W20723   9.894   9.998   1.539 -0.0361  0.1503  0.2276
 7310W        W20724   5.665   3.837   0.402 -0.3426  0.2934 -0.0648
 7311W        W20725   7.565   0.792   3.966  0.1066 -0.2150  0.1460
 7312W        W20726   4.397  17.475   0.828  0.1896  0.3211  0.1734
 7313W        W20727   3.344  18.394   3.754  0.1916 -0.0668  0.0215
 7314W        W20728   0.921   8.885   4.086  0.3853 -0.4118 -0.0758
 7315W        W20729   5.218  17.065   5.378  0.2479  0.1073 -0.0511
 7316W        W20730   5.446  13.660  14.980  0.3634  0.2846  0.3493
 7317W        W20731  17.121  13.963   4.666  0.0734  0.1390  0.0852
 7318W        W20732   9.034   7.287  11.096  0.3116  0.0393  0.0153
 7319W        W20733   5.061   0.778  16.321 -0.1018  0.0329 -0.3227
 7320W        W20734   2.545   6.552   2.868  0.1704 -0.2659  0.0203
 7321W        W20735  13.248  15.617  12.803  0.0422  0.1126 -0.1471
 7322W        W20736  16.642  14.006  14.940  0.0394  0.2524  0.2071
 7323W        W20737  13.281   9.339  13.059 -0.2436 -0.1403 -0.1576
 7324W        W20738  10.121   8.134   9.845  0.0119  0.0877 -0.0684
 7325W        W20739  11.081   3.719   4.204  0.0293 -0.2917  0.2977
 7326W        W20740   0.977   0.362   4.501 -0.1451  0.0353 -0.1817
 7327W        W20741   4.583  15.429  15.415 -0.0570 -0.3676 -0.1705
 7328W        W20742  16.805   1.232  15.301  0.2329 -0.0528 -0.1092
 7329W        W20743  12.596  12.150   2.146 -0.2796  0.0940 -0.0882
 7330W        W20744  14.567  17.216  14.918  0.1009 -0.2901 -0.0016
 7331W        W20745   3.857  13.709   3.005  0.3032 -0.1416  0.1835
 7332W        W20746   1.744   6.210   0.564 -0.0895 -0.1013  0.1070
 7333W        W20747   1.281   0.250  14.813 -0.0970  0.2199  0.1185
 7334W        W20748  17.967   2.429   5.275 -0.2211  0.0992 -0.1041
 7335W        W20749   3.519  11.019   1.186  0.1312 -0.2634 -0.0710
 7336W        W20750  16.349  10.264  11.402 -0.0780 -0.1688  0.3185
 7337W        W20751   7.841   2.304  12.850 -0.1554  0.0466  0.1443
 7338W        W20752  14.284  12.646  11.737  0.2095 -0.1731  0.0015
 7339W        W20753  14.221  13.533  13.305 -0.1786 -0.4201 -0.0806
 7340W        W20754   9.069   2.606   3.634 -0.2496 -0.1844 -0.2807
 7341W        W20755   6.019   0.414   3.424  0.0866 -0.0647 -0.2169
 7342W        W20756  12.977   9.425   3.229 -0.2152  0.2487 -0.0777
 7343W        W20757  11.956   3.483  13.405 -0.0061 -0.0386 -0.1282
 7344W        W20758  13.480   0.011   5.920 -0.2491  0.2673  0.1884
 7345W        W20759  13.320  11.924   1.374  0.2626  0.2182 -0.0226
 7346W        W20760   0.308   6.038  10.632 -0.1843  0.0995  0.0796
 7347W        W20761   2.524   5.158   1.116  0.1145  0.3612 -0.0795
 7348W        W20762   3.077   8.076   0.226  0.1672  0.0154  0.0047
 7349W        W20763   4.019   6.616  13.428 -0.2028 -0.1968 -0.4759
 7350W        W20764   9.713   8.528   3.364  0.0063 -0.0665 -0.1230
 7351W        W20765   5.424  13.521   0.011 -0.0586  0.0666  0.1226
 7352W        W20766   2.736  13.185  15.992  0.2307 -0.1226  0.1226
 7353W        W20767   1.500   3.300   1.124  0.0029 -0.3077 -0.0164
 7354W        W20768  16.808  17.404   3.726 -0.1175 -0.0243 -0.0643
 7355W        W20769   6.025  10.579  15.974 -0.0967 -0.0530 -0.2798
 7356W        W20770   2.477  17.498   4.576  0.1410  0.4034  0.0627
 7357W        W20771  10.949  13.442  11.014 -0.1189 -0.0463  0.0417
 7358W        W20772  17.771   8.751   0.421  0.1121 -0.2386 -0.0886
 7359W        W20773  16.918   3.640   4.997  0.0601  0.0509  0.0853
 7360W        W20774  13.561   8.801  15.734  0.0518  0.2202 -0.0930
 7361W        W20775   0.054  14.918   2.804 -0.1313  0.0353  0.1319
 7362W        W20776   2.401  12.262  14.450  0.1183 -0.0049 -0.1045
 7363W        W20777  16.225   5.137  15.527  0.0384  0.0253  0.2017
 7364W        W20778   7.311   9.035   5.075  0.4087 -0.2583  0.0527
 7365W        W20779  10.736  14.454  14.464 -0.0072 -0.4519 -0.1595
 7366W        W20780  15.478  16.728   4.117 -0.2648 -0.0218 -0.1346
 7367W        W20781   5.186   6.894   4.588 -0.0174 -0.1053  0.2637
 7368W        W20782   7.121  17.300  13.335  0.1371  0.0152  0.0046
 7369W        W20783  12.803  11.527   3.947  0.0515  0.1390  0.0126
 7370W        W20784   4.057  10.376   2.674 -0.0840  0.3835 -0.3010
 7371W        W20785   6.529   1.992   0.394 -0.1999 -0.0035  0.0326
 7372W        W20786  10.859  13.841   4.201 -0.0048 -0.0756  0.0370
 7373W        W20787   7.909   7.519   1.577 -0.3041  0.0516 -0.1062
 7374W        W20788   2.445  11.800   5.768 -0.0469  0.0726 -0.0319
 7375W        W20789   9.934   8.016   0.269  0.1046 -0.0259  0.3011
 7376W        W20790   5.863   4.756   4.499 -0.0159  0.3142  0.1073
 7377W        W20791   6.081   3.297   3.060  0.0633 -0.2981 -0.1978
 7378W        W20792   9.404   0.725   2.487  0.2473 -0.0441 -0.1215
 7379W        W20793  17.407  10.057  13.179 -0.3863  0.2053  0.0442
 7380W        W20794   7.563   3.671   3.336 -0.0875 -0.0643  0.1613
 7381W        W20795   4.790  17.010  13.399  0.2621  0.1661 -0.1269
 7382W        W20796   8.408  11.770  15.882 -0.1308  0.0127 -0.0915
 7383W        W20797   4.785   2.587  14.453 -0.3276  0.3732  0.1253
 7384W        W20798   3.422   6.349  14.312 -0.0448 -0.2054  0.0864
 7385W        W20799  14.698  10.552  11.308  0.0757  0.1595 -0.1120
 7386W        W20800  15.498   0.689   4.475 -0.3185 -0.2304  0.0614
 7387W        W20801   1.888  15.273   2.173  0.0828 -0.0732  0.0566
 7388W        W20802  15.506  12.044  11.716 -0.0487 -0.1659 -0.3004
 7389W        W20803   2.909   4.651   4.830 -0.1721 -0.0652 -0.0457
 7390W        W20804  15.497  14.969  15.763  0.1139 -0.0519 -0.2666
 7391W        W20805   9.742  12.335  13.850 -0.1243  0.0832  0.0940
 7392W        W20806  13.884  13.507   5.454 -0.3071  0.2331  0.2029
 7393W        W20807  11.842   7.979  10.759  0.2336 -0.3220 -0.2412
 7394W        W20808  13.880   7.164  11.146 -0.1708 -0.2970 -0.3094
 7395W        W20809  16.718   6.489  16.101 -0.0973  0.1969  0.1708
 7396W        W20810   5.462   2.160   0.460 -0.3820  0.1239 -0.0373
 7397W        W20811   9.809   5.198  15.267 -0.1780  0.1409 -0.1831
 7398W        W20812   1.598   6.499  16.228 -0.2623 -0.1783 -0.0292
 7399W        W20813  10.641  11.374   4.439 -0.3307 -0.0878  0.1704
 7400W        W20814   1.396  12.778  15.473 -0.2426 -0.1841 -0.3253
 7401W        W20815   6.776   1.639  10.709 -0.0406 -0.0226  0.0590
 7402W        W20816   3.081  17.017   0.699  0.0415  0.0338  0.1095
 7403W        W20817   7.350  11.644   3.762  0.2762 -0.0186 -0.0871
 7404W        W20818  10.531  15.929   1.469  0.0494  0.4502 -0.1510
 7405W        W20819   0.495   4.499   4.244  0.2060  0.3351  0.2720
 7406W        W20820   7.116   9.068   4.374  0.0143 -0.0500  0.1107
 7407W        W20821   8.686  12.583   0.074 -0.0769 -0.2004  0.1059
 7408W        W20822   9.266   6.528  13.099 -0.0318 -0.0021  0.1783
 7409W        W20823   8.672   0.131  11.022  0.0807 -0.1021  0.0504
 7410W        W20824   8.046  13.983  16.463 -0.0919 -0.2469 -0.1745
 7411W        W20825   4.889  11.272  14.728 -0.0515 -0.1294  0.0206
 7412W        W20826   6.536  14.141  12.059 -0.1567 -0.1038  0.0105
 7413W        W20827  14.238   2.516   1.770  0.2397  0.2221 -0.1004
 7414W        W20828   7.146  14.176  10.618 -0.2824  0.1225  0.1442
 7415W        W20829   2.365  14.932  13.986  0.1703 -0.0527  0.0499
 7416W        W20830   8.801   9.618  14.143 -0.0389  0.2142  0.1836
 7417W        W20831  15.454   8.651   4.780 -0.1136  0.1631  0.3483
 7418W        W20832   4.732  10.506   2.039 -0.1190  0.0834  0.2448
 7419W        W20833  16.765  16.528  14.552  0.2271  0.1689 -0.1033
 7420W        W20834   4.665   5.761   0.282 -0.1188 -0.0799  0.1715
 7421W        W20835   0.620  16.953   1.166  0.1600 -0.1737  0.0597
 7422W        W20836   4.953  17.702   2.946 -0.2190 -0.3393  0.4829
 7423W        W20837  15.979   1.664  12.671  0.2757 -0.0193 -0.0287
 7424W        W20838   8.641  12.233   5.353 -0.3390  0.0323 -0.0342
 7425W        W20839   2.597  14.225   1.996 -0.0790 -0.0195 -0.2194
 7426W        W20840   8.361  15.975  11.770 -0.1050 -0.1043 -0.0129
 7427W        W20841   0.508  15.713   7.404  0.2151  0.1647  0.0055
 7428W        W20842   0.441  11.211  15.355  0.2321  0.0125  0.1100
 7429W        W20843  12.264   1.661  12.272  0.2264  0.0893 -0.1365
 7430W        W20844   0.066   6.239   5.042 -0.0853 -0.0076 -0.1254
 7431W        W20845  12.365   8.934  10.821  0.0902 -0.2424 -0.1031
 7432W        W20846   0.986  16.322  14.788  0.0249  0.1161 -0.2643
 7433W        W20847   0.089   7.037  16.287 -0.0601 -0.1428  0.0048
 7434W        W20848  17.636  10.283  13.995  0.2018 -0.2062  0.0504
 7435W        W20849  11.375  12.611  10.870  0.0870  0.3615 -0.0868
 7436W        W20850  12.548  11.772  15.501  0.3227  0.3842 -0.1014
 7437W        W20851   5.104   9.133   5.206 -0.0488  0.1187  0.2369
 7438W        W20852  13.253   8.605  12.206 -0.0521 -0.0381 -0.0038
 7439W        W20853   7.949   1.066  10.769 -0.0888 -0.4083 -0.0333
 7440W        W20854  15.163   8.875  14.164  0.1527 -0.2728 -0.2188
 7441W        W20855   1.924  15.691  11.477  0.1129  0.0967  0.2051
 7442W        W20856   8.035  18.035   2.423 -0.0064 -0.1166 -0.0407
 7443W        W20857  14.523  14.509   2.916  0.1628 -0.1666  0.2622
 7444W        W20858  15.049  13.682   5.835 -0.0050 -0.1316  0.0521
 7445W        W20859  17.201  10.907   5.470 -0.0238 -0.2692  0.1413
 7446W        W20860  16.344  10.318   0.617 -0.0856 -0.0209 -0.0263
 7447W        W20861   0.483   0.321  11.458  0.1155  0.2151  0.1080
 7448W        W20862   7.499  12.592  12.525 -0.1360  0.0202 -0.0081
 7449W        W20863   3.212  12.468   0.276  0.0974  0.2244 -0.1329
 7450W        W20864   6.661   0.081   2.478 -0.1084 -0.0440 -0.2311
 7451W        W20865   3.556  10.259  13.457  0.0232  0.2316 -0.0183
 7452W        W20866   6.271   0.373  11.767  0.3173  0.0725 -0.1510
 7453W        W20867   7.141  17.019  15.888 -0.0303 -0.3376 -0.1223
 7454W        W20868  15.000  10.558  13.997 -0.0011 -0.1717 -0.3311
 7455W        W20869   0.101   7.238   0.347 -0.1460 -0.1772 -0.1428
 7456W        W20870   6.372  14.230  10.819 -0.2370 -0.0506  0.0964
 7457W        W20871  14.018  15.916  13.152  0.3046 -0.1906  0.2807
 7458W        W20872  15.174   2.996  11.991  0.0248  0.2233 -0.2517
 7459W        W20873   4.766   6.394   2.771  0.1257 -0.1905  0.0003
 7460W        W20874   9.032   7.788  12.095 -0.0289  0.2937  0.3880
 7461W        W20875  16.815  15.775   6.742  0.0144 -0.0303 -0.0286
 7462W        W20876   0.249   9.672   0.160 -0.1161  0.2029 -0.0298
 7463W        W20877   6.071   5.218  13.242 -0.0715  0.0361  0.3085
 7464W        W20878   2.903   9.302   0.816  0.1319 -0.1237 -0.0786
 7465W        W20879   2.963   4.640  13.661  0.3682 -0.1244  0.1384
 7466W        W20880  15.558  16.220   2.114 -0.3257 -0.2574 -0.0878
 7467W        W20881   9.280  16.457  12.787  0.0441  0.0605 -0.0182
 7468W        W20882   5.789  11.065   2.578 -0.2904  0.2937 -0.1093
 7469W        W20883  15.531  12.903   2.356 -0.2881 -0.2506  0.2818
 7470W        W20884   1.324  16.535   3.636 -0.0864 -0.2020 -0.2766
 7471W        W20885  15.418   3.800  16.169 -0.1328  0.4992 -0.2829
 7472W        W20886  12.782   1.514  12.689  0.3001 -0.2953 -0.1677
 7473W        W20887  18.265   7.755  15.707 -0.0212 -0.2855  0.0211
 7474W        W20888  11.973   4.772   0.433 -0.3677  0.1848 -0.1658
 7475W        W20889  15.204   5.924  12.997  0.2151  0.1659  0.0411
 7476W        W20890  10.385  15.890   0.905 -0.3608  0.0927  0.1862
 7477W        W20891   3.942   1.626   2.066  0.1198 -0.1685 -0.3481
 7478W        W20892   1.688  17.569  14.462  0.1709  0.0360  0.1293
 7479W        W20893   5.969   7.442   3.718 -0.0221 -0.1839 -0.0235
 7480W        W20894   9.902  18.224   4.727 -0.0104 -0.0017  0.1136
 7481W        W20895   2.243  12.576  12.685 -0.2157 -0.0898  0.1206
 7482W        W20896  10.635   6.212  10.282 -0.0794 -0.2998 -0.1781
 7483W        W20897   5.061   7.770   3.986 -0.0186  0.2473  0.0088
 7484W        W20898   6.045  16.065   4.705  0.1181  0.2333 -0.2194
 7485W        W20899   1.256   8.613  13.647 -0.3132  0.4024 -0.1100
 7486W        W20900  18.093  13.036  15.703 -0.3631 -0.1010  0.2976
 7487W        W20901  10.902  15.370  14.783 -0.0831 -0.0065  0.3463
 7488W        W20902  11.158  13.515  11.583 -0.0893  0.2184 -0.0732
 7489W        W20903  16.329  13.613   5.151  0.1826 -0.2057  0.1760
 7490W        W20904   5.675  17.388  13.550  0.1733 -0.2448 -0.3930
 7491W        W20905  14.615  12.619  11.396 -0.1286 -0.1128  0.3094
 7492W        W20906   2.734  13.678   1.989 -0.5123  0.0564  0.1769
 7493W        W20907   2.148   5.360   3.659  0.1478 -0.0924  0.0727
 7494W        W20908  17.040  11.888  14.154 -0.2127 -0.1391  0.2274
 7495W        W20909  11.685   7.469   1.841 -0.2310 -0.3003 -0.2573
 7496W        W20910   7.108  11.002  13.942 -0.2330 -0.6090  0.0543
 7497W        W20911  14.674   8.762  16.270  0.1182 -0.0885 -0.2300
 7498W        W20912  10.239   0.298   3.124  0.1448  0.1715  0.0881
 7499W        W20913  11.982  11.431   0.441 -0.2031  0.0258 -0.0071
 7500W        W20914   5.410   4.373  15.019 -0.0416  0.0650 -0.0812
 7501W        W20915   3.137   2.027   0.071 -0.1924 -0.1502 -0.1619
 7502W        W20916  11.372  17.990  11.790  0.1495 -0.2741 -0.1228
 7503W        W20917  16.574   7.199  12.883 -0.5105 -0.0552  0.1028
 7504W        W20918  12.589   2.899  16.266 -0.1820  0.1187 -0.3240
 7505W        W20919   1.456  17.324  13.653 -0.1532  0.1034 -0.0770
 7506W        W20920  14.882   0.343   4.583 -0.3644 -0.1025  0.2557
 7507W        W20921   3.259   0.752  16.250  0.2070 -0.0052 -0.1046
 7508W        W20922  10.229  13.704  12.840 -0.0639  0.3516 -0.0524
 7509W        W20923  15.485  10.077   6.347  0.1240  0.0419 -0.1496
 7510W        W20924   8.474   9.955  15.321  0.0853 -0.0128  0.1049
 7511W        W20925  11.167   7.789  10.610 -0.0327  0.0772  0.0690
 7512W        W20926   4.431  14.317   4.681  0.0012 -0.0758  0.2648
 7513W        W20927   3.496   7.834   1.376  0.3129 -0.1292  0.2353
 7514W        W20928   7.659   0.336  10.079 -0.0889 -0.0359  0.1166
 7515W        W20929  18.029  16.780   0.214 -0.0435 -0.0846 -0.0309
 7516W        W20930   5.710  13.393   2.016 -0.0503 -0.0032  0.1485
 7517W        W20931  12.544  12.208   6.416  0.0894  0.1705  0.1300
 7518W        W20932   2.150   4.423  15.313  0.2532  0.1123 -0.1990
 7519W        W20933  14.583  16.824   3.686  0.2753 -0.0969  0.1801
 7520W        W20934   8.042   9.109   5.885  0.0048 -0.5691 -0.0973
 7521W        W20935   7.952   9.181  15.032 -0.1789  0.0938  0.0320
 7522W        W20936   9.159  15.776   4.392 -0.1264  0.0285  0.1404
 7523W        W20937   0.670  18.310   0.979  0.3766  0.4368  0.0550
 7524W        W20938   0.063  11.851   4.616 -0.0543 -0.1174 -0.0773
 7525W        W20939  10.035   3.635  16.403 -0.1077 -0.0508 -0.1406
 7526W        W20940   4.035   3.822  11.607 -0.1192  0.1690  0.2278
 7527W        W20941  16.901   5.907   0.434 -0.1006 -0.1174 -0.1590
 7528W        W20942  15.168  14.963  15.153  0.0587  0.1781  0.3980
 7529W        W20943   4.402   2.549  13.703 -0.2239  0.0004  0.0603
 7530W        W20944   9.625  17.097   1.571 -0.0694 -0.1600  0.0051
 7531W        W20945   9.590  18.129   0.556  0.1382  0.1976  0.2704
 7532W        W20946   6.350   4.905  13.477 -0.2747 -0.0733  0.0946
 7533W        W20947  16.843   2.476  11.688  0.0349  0.1289  0.1271
 7534W        W20948   2.799  16.516   4.407  0.0588 -0.0436 -0.0364
 7535W        W20949   4.922   2.520  13.511 -0.4766 -0.0421 -0.0418
 7536W        W20950  13.199   6.569   3.513  0.0622 -0.0253 -0.2933
 7537W        W20951   2.298  11.365   5.387  0.0420  0.0535  0.0202
 7538W        W20952   5.722  16.254   5.442 -0.0616 -0.3336 -0.0412
 7539W        W20953   1.080  11.152   2.222 -0.0335 -0.1577 -0.1859
 7540W        W20954   3.664  16.664  11.119 -0.2326  0.1882  0.0739
 7541W        W20955  11.641   9.667   3.559 -0.0182 -0.2210  0.2057
 7542W        W20956  14.506  17.459   4.273  0.0249  0.1062 -0.2214
 7543W        W20957  13.494  17.635   2.770 -0.2233 -0.3367  0.0030
 7544W        W20958  11.640   5.099   2.420  0.0435 -0.2775 -0.0422
 7545W        W20959  15.909   8.081  16.277 -0.0804  0.1870 -0.0009
 7546W        W20960  10.270   0.483   5.480  0.0011 -0.1299  0.1325
 7547W        W20961   9.910  14.020   0.874  0.0712 -0.2224 -0.2627
 7548W        W20962   0.559  13.988   1.874 -0.2575  0.0270  0.0641
 7549W        W20963  13.866   9.545   1.310 -0.0756  0.1779  0.0424
 7550W        W20964   5.432  13.752  12.832 -0.0111  0.0460 -0.1794
 7551W        W20965   7.834   1.836  13.788  0.0013  0.1642  0.2321
 7552W        W20966  12.737  15.771   3.795 -0.4899  0.2205  0.1601
 7553W        W20967   5.049   0.441   4.412  0.4712 -0.0114 -0.0482
 7554W        W20968   6.664  12.055   0.269  0.0851  0.3119 -0.0350
 7555W        W20969  10.158   0.066  15.107  0.2569 -0.0396 -0.1154
 7556W        W20970  12.954  11.297  13.569  0.4702 -0.1191 -0.1979
 7557W        W20971  17.982   7.905   0.746  0.2325 -0.3283  0.0201
 7558W        W20972   9.464   9.917  12.635  0.0950 -0.0304 -0.0333
 7559W        W20973   1.198   6.876  13.529  0.2315  0.0983  0.2023
 7560W        W20974   2.166   8.759   1.713  0.1242  0.0711 -0.2101
 7561W        W20975  17.026   8.677  11.797 -0.1909 -0.1275 -0.0485
 7562W        W20976   7.398  16.443   4.404 -0.0449  0.0984  0.2867
 7563W        W20977  14.033   0.685  13.376  0.1348 -0.2509 -0.1701
 7564W        W20978  11.423   8.916   0.402  0.1004 -0.2369  0.2076
 7565W        W20979   1.943  18.351   3.580  0.0320 -0.2332  0.0492
 7566W        W20980  12.593  10.775  10.312 -0.0915  0.0506  0.2090
 7567W        W20981   7.533   6.705  12.415 -0.0330  0.4085  0.1649
 7568W        W20982   0.119  10.116  12.529  0.1406 -0.0833 -0.1185
 7569W        W20983   8.327  16.225   4.520  0.0113 -0.1257  0.1565
 7570W        W20984   7.357  14.124   0.924 -0.3353 -0.0531 -0.1148
 7571W        W20985   4.817   5.712  15.264 -0.0783 -0.0105  0.2881
 7572W        W20986  15.061   0.128   0.325 -0.1332 -0.1202 -0.2357
 7573W        W20987  17.204   7.194  15.494  0.0163 -0.1875  0.3355
 7574W        W20988  16.349   2.426   6.274 -0.0927  0.0453 -0.3302
 7575W        W20989  16.825   2.295  16.021  0.2890  0.1579  0.0431
 7576W        W20990   4.593  15.861   4.507 -0.1045  0.0901  0.2704
 7577W        W20991   2.012   2.150  15.198  0.1380 -0.0993  0.1246
 7578W        W20992  15.522   4.814   4.307 -0.0882  0.3073 -0.2295
 7579W        W20993  14.766  11.356  12.047  0.2910 -0.1274 -0.0046
 7580W        W20994  11.041  11.221  10.504  0.1084  0.3482 -0.0917
 7581W        W20995  13.052  13.972   0.331 -0.1216 -0.1048 -0.2378
 7582W        W20996  10.192  10.099   5.179  0.0901 -0.0259  0.2010
 7583W        W20997  10.468   7.944   2.997 -0.1204  0.1359 -0.1978
 7584W        W20998   9.469   3.581   2.731 -0.2147  0.3139  0.1303
 7585W        W20999  16.065  17.070   1.954 -0.3290  0.2074  0.0484
 7586W        W21000   8.763   6.797   0.187  0.1830 -0.0688 -0.4481
 7587W        W21001  16.294   4.999  12.486  0.0321 -0.0425  0.0253
 7588W        W21002   4.335  15.221   4.049  0.0545 -0.0837 -0.0242
 7589W        W21003   2.771  15.998  12.950 -0.0519  0.0620 -0.1621
 7590W        W21004  18.084  12.396   0.811 -0.0037 -0.0500 -0.1788
 7591W        W21005   1.990   0.271  13.591  0.1221  0.0311 -0.0727
 7592W        W21006  14.016   9.543  13.678 -0.1642 -0.2092 -0.1781
 7593W        W21007   8.923   4.869   0.141  0.1819 -0.2627  0.0249
 7594W        W21008   7.020   8.078   4.857 -0.1233 -0.3484  0.0078
 7595W        W21009   4.774   2.289   1.961 -0.0108  0.1067  0.1344
 7596W        W21010  11.033  17.352   2.201  0.0235 -0.2770 -0.3534
 7597W        W21011  17.717  15.215   3.090  0.2320 -0.0182  0.0306
 7598W        W21012  16.127  18.069  10.651 -0.1413 -0.1802  0.2814
 7599W        W21013  10.932   4.115  11.657 -0.3252  0.2949  0.2989
 7600W        W21014  15.846   6.903  12.236 -0.0852  0.0618  0.2544
 7601W        W21015  15.467   4.204  15.286  0.1422  0.4338 -0.3223
 7602W        W21016  11.872  10.648  12.379 -0.2296 -0.0072 -0.2580
 7603W        W21017   8.621  14.342   0.617  0.0893  0.1250  0.0793
 7604W        W21018   9.523  10.405   3.589 -0.2224  0.0714 -0.2495
 7605W        W21019   2.554  16.434  14.145  0.0619 -0.3309 -0.0083
 7606W        W21020   7.434   9.557  14.543 -0.0437  0.1889  0.2394
 7607W        W21021  12.142   8.627   3.286 -0.0565 -0.2616  0.3385
 7608W        W21022  12.604  11.129   1.846  0.1565  0.1301  0.0143
 7609W        W21023   8.393  17.008  12.790  0.1527 -0.1064  0.0753
 7610W        W21024   5.313  16.921  13.338  0.0496 -0.1015 -0.1156
 7611W        W21025  17.215   6.563  11.705  0.2255  0.1690 -0.1927
 7612W        W21026   6.172   3.149  14.728 -0.1292 -0.2700  0.1074
 7613W        W21027   3.589   5.418   5.448 -0.1413 -0.2056  0.0237
 7614W        W21028  15.511  13.853   5.915 -0.2597  0.1635  0.1037
 7615W        W21029  14.648  15.843  13.127  0.1465  0.2288 -0.0210
 7616W        W21030  14.764   0.560  12.587 -0.0795  0.0599 -0.2166
 7617W        W21031   0.270   8.797  15.361 -0.4044 -0.3494  0.2370
 7618W        W21032  17.628  18.212   4.809 -0.0522 -0.2712  0.2105
 7619W        W21033   1.424  12.877   4.874 -0.0734  0.1786 -0.2944
 7620W        W21034  10.976  15.101   3.038 -0.1009 -0.2840  0.3194
 7621W        W21035  11.252   9.768   1.603  0.0871  0.0032  0.4491
 7622W        W21036  11.106  17.666  13.021 -0.2400 -0.3923  0.0094
 7623W        W21037   3.699   1.872   3.561  0.1578  0.0856  0.0337
 7624W        W21038   1.701   7.474   2.960  0.0505 -0.1076 -0.1825
 7625W        W21039  10.155  13.173  15.884 -0.4564  0.0654  0.1775
 7626W        W21040  10.913  10.192  15.489  0.1743  0.0971  0.3231
 7627W        W21041  13.258   0.286   4.391 -0.2545 -0.1344  0.4287
 7628W        W21042   8.595  11.338  16.179 -0.0331 -0.1865 -0.2648
 7629W        W21043   7.979  15.691   1.050  0.2627  0.2179  0.2445
 7630W        W21044  17.781  11.128  16.102 -0.0602  0.0300 -0.0309
 7631W        W21045   9.516  14.976  11.533 -0.0973  0.0123  0.1377
 7632W        W21046   6.219   2.597  11.240  0.0712 -0.0938  0.2694
 7633W        W21047  10.226   6.167   0.588 -0.1007 -0.3858  0.0010
 7634W        W21048   3.910   3.741   2.195  0.1387  0.1363 -0.0362
 7635W        W21049   6.141   0.347   1.708  0.1945 -0.1371 -0.0143
 7636W        W21050   7.026   7.648  12.639 -0.2085  0.2334  0.2995
 7637W        W21051  17.560   6.897  12.670 -0.0329  0.0753  0.0769
 7638W        W21052   4.973  16.995   2.151 -0.0064  0.0552  0.1605
 7639W        W21053  15.059  13.892   1.688 -0.0722  0.0156  0.0096
 7640W        W21054  13.021   6.432   1.597 -0.0858  0.0339 -0.0848
 7641W        W21055   6.253   5.096   3.497  0.1954  0.1665 -0.1028
 7642W        W21056  17.476   6.823   4.036  0.2103 -0.0568  0.0438
 7643W        W21057  10.313  10.981  13.216 -0.1009 -0.0636 -0.0832
 7644W        W21058  13.619  18.331   2.176 -0.0153 -0.0030 -0.3243
 7645W        W21059   5.106   0.815   6.176 -0.1282 -0.2706  0.0486
 7646W        W21060  14.327  10.278   0.879  0.0395 -0.0851 -0.0203
 7647W        W21061   9.708   1.389  15.380  0.2849 -0.1211  0.1615
 7648W        W21062   8.766  10.073  12.082  0.2502 -0.1519 -0.3227
 7649W        W21063  14.174  10.061   3.319  0.3280  0.1687  0.2811
 7650W        W21064   5.982   6.653  10.937 -0.0354 -0.0714 -0.1042
 7651W        W21065   0.579   0.455   3.620 -0.3622  0.0002  0.1345
 7652W        W21066  17.521  16.942   2.745  0.1761  0.3704  0.1134
 7653W        W21067   0.071   8.126  15.497 -0.1587 -0.1994  0.0533
 7654W        W21068  11.849   0.359  16.281 -0.3045 -0.1114  0.0932
 7655W        W21069   0.920   7.789  15.812 -0.1807 -0.2131 -0.0052
 7656W        W21070  12.042   4.476   0.004  0.2188  0.1562 -0.2737
 7657W        W21071   3.311  17.170  13.242  0.3235  0.0436  0.2051
 7658W        W21072   9.724  11.358   1.681 -0.0088 -0.4243  0.0301
 7659W        W21073  10.071  15.436  14.810 -0.1331  0.1987 -0.2301
 7660W        W21074  17.881  12.474  11.858  0.0372  0.4301 -0.1851
 7661W        W21075   7.383   1.644   1.311 -0.1732  0.1821  0.1744
 7662W        W21076  14.429  13.186  12.962 -0.0409 -0.0702 -0.0084
 7663W        W21077   9.863   3.820   1.649  0.1831  0.0980  0.1326
 7664W        W21078  13.967  11.061  12.384  0.4430 -0.1626  0.2355
 7665W        W21079  11.916  13.252  13.543  0.1727  0.0234  0.1361
 7666W        W21080   9.257  17.063   1.929  0.1421 -0.0168  0.0679
 7667W        W21081  10.911  14.646  14.049 -0.0877  0.1672  0.0786
 7668W        W21082   4.270  14.831   3.118 -0.1986 -0.1919  0.1241
 7669W        W21083   3.017  17.275  12.764  0.2327 -0.0559 -0.0134
 7670W        W21084   7.961  15.539  14.040  0.0889  0.1410  0.2513
 7671W        W21085  17.293  15.454  13.219  0.1732 -0.2189 -0.0831
 7672W        W21086  11.614   8.135   4.157  0.1853  0.1247  0.1689
 7673W        W21087   7.521  10.357   1.331  0.2506  0.2558  0.2081
 7674W        W21088   7.095  17.779   2.244  0.3050  0.1233 -0.1979
 7675W        W21089  17.390   6.351   3.100  0.0371 -0.1344  0.0488
 7676W        W21090   7.942  10.989   3.960 -0.0668 -0.0958  0.2396
 7677W        W21091   8.826  13.188   1.371  0.2776 -0.1046  0.1578
 7678W        W21092   3.509  14.369   0.332 -0.0133 -0.2862  0.0914
 7679W        W21093   2.229  15.655  10.662  0.0798  0.2515  0.0840
 7680W        W21094   1.281  10.651   2.371  0.2375  0.1238  0.0192
 7681W        W21095  10.359  17.342  12.482 -0.3019  0.1765  0.0973
 7682W        W21096  12.619  15.556   2.433  0.1567 -0.1539  0.0844
 7683W        W21097  18.145   3.203  15.609  0.0058  0.0496 -0.1374
 7684W        W21098   3.710   3.098   3.839  0.2639  0.1652 -0.1686
 7685W        W21099   6.429  11.655  12.487 -0.2781 -0.0442  0.0047
 7686W        W21100   5.556   1.557  14.048  0.2052 -0.2702 -0.0410
 7687W        W21101   9.307   9.358   5.332  0.0270  0.1549  0.1085
 7688W        W21102   2.990   3.265  15.088  0.0668 -0.1683  0.1653
 7689W        W21103   4.537   3.433  13.332  0.0398  0.1622  0.2064
 7690W        W21104   8.309   2.792  15.690 -0.0711 -0.1127  0.1196
 7691W        W21105   4.525   8.272   1.143 -0.0680  0.0489 -0.0783
 7692W        W21106  18.362  18.212  11.932 -0.1751 -0.4033  0.1808
 7693W        W21107  11.371   9.723   5.568  0.2488 -0.2460 -0.0245
 7694W        W21108   6.608  17.009   4.103  0.0541 -0.1094  0.0133
 7695W        W21109  10.594   9.036  11.708  0.0200  0.2220 -0.1047
 7696W        W21110  16.882   8.675  11.011 -0.1537 -0.1126  0.4147
 7697W        W21111   4.834  13.341   3.550  0.0986  0.0605 -0.3325
 7698W        W21112   5.905  13.386  15.003 -0.1562  0.1217  0.0704
 7699W        W21113  10.124   9.414   2.079  0.0154  0.0960  0.4237
 7700W        W21114  17.702  10.013   2.338  0.4568 -0.0797  0.0240
 7701W        W21115  16.457   9.272  12.988  0.1445  0.0305  0.1121
 7702W        W21116  11.799   8.563   5.269  0.3088  0.1537 -0.0295
 7703W        W21117   8.621  13.455   3.390  0.0581 -0.0096 -0.0107
 7704W        W21118   1.795   6.665  12.206 -0.0489 -0.2997  0.1001
 7705W        W21119  11.030   9.343   3.312 -0.0875  0.0165  0.1337
 7706W        W21120   2.771   4.062  14.066  0.0279 -0.0778 -0.0187
 7707W        W21121  16.147   5.541  13.602 -0.1268 -0.0386  0.2903
 7708W        W21122  16.603  18.106   1.953 -0.0526 -0.2827 -0.1759
 7709W        W21123  14.675  14.132   1.006  0.1628 -0.0385  0.2331
 7710W        W21124   9.978  12.798   4.546  0.2677 -0.2386  0.2728
 7711W        W21125   1.283  17.588   4.978  0.1873  0.0857  0.1001
 7712W        W21126   7.744  11.355   0.461  0.0901  0.3278 -0.5110
 7713W        W21127  12.256  17.462  15.163  0.1152  0.1569 -0.0777
 7714W        W21128  17.175   7.040   0.387  0.2665 -0.1830  0.0350
 7715W        W21129  13.766  15.343   2.418  0.0276  0.0651  0.2165
 7716W        W21130   2.003  11.059  15.776  0.2236  0.1355  0.2441
 7717W        W21131   5.428  16.574  14.171  0.0337 -0.1349  0.3475
 7718W        W21132  14.948   5.072  13.430 -0.0613  0.3214  0.1547
 7719W        W21133  18.009   4.398  14.689  0.3995  0.0265 -0.0895
 7720W        W21134  10.147   1.105   1.948  0.4165 -0.5507  0.0739
 7721W        W21135  15.935   0.512  11.234 -0.2511  0.0964 -0.3420
 7722W        W21136   4.283  13.878  14.564  0.1152  0.0390  0.0492
 7723W        W21137  14.982  14.927  12.079 -0.2155  0.1383 -0.0455
 7724W        W21138   9.717   0.833   9.968 -0.0939  0.2290 -0.0901
 7725W        W21139   2.635   6.475  11.353 -0.0776  0.2229 -0.1019
 7726W        W21140   4.308   2.108  15.184 -0.0332 -0.4680  0.1191
 7727W        W21141   9.856  13.205  11.616 -0.2572 -0.0382 -0.1110
 7728W        W21142   5.731  13.378   5.670  0.1813  0.1484 -0.4293
 7729W        W21143   3.974  16.032   3.448  0.0843  0.0049  0.0768
 7730W        W21144  17.210  11.312   4.930 -0.1273  0.0329 -0.0207
 7731W        W21145   2.694   5.935  12.330 -0.0232 -0.0143  0.1073
 7732W        W21146  10.212   4.755  11.768  0.0889  0.0218 -0.0706
 7733W        W21147   0.504  12.103  12.602  0.3019  0.2040  0.0141
 7734W        W21148   3.254  10.165  13.045 -0.0181 -0.1367 -0.0658
 7735W        W21149   5.791   3.766  14.030 -0.2501 -0.0859 -0.1948
 7736W        W21150   4.309  10.007   0.740  0.2377  0.0102  0.1847
 7737W        W21151   7.622  14.677   5.227 -0.3130 -0.1050  0.1281
 7738W        W21152  12.981  18.317   1.091 -0.1690 -0.1653  0.3238
 7739W        W21153  14.755   7.665   2.234 -0.2530 -0.2875 -0.0166
 7740W        W21154   6.442  11.658  10.747  0.0588 -0.2022 -0.4045
 7741W        W21155   3.551   7.802   3.821 -0.0421 -0.3186 -0.2087
 7742W        W21156   9.173  14.526   2.514  0.1518  0.1470 -0.0412
 7743W        W21157   5.546  14.962  14.003  0.1487  0.3621  0.3020
 7744W        W21158   3.600   8.795   1.329 -0.3188 -0.1122 -0.2183
 7745W        W21159  15.258   8.779   9.955 -0.2920  0.1091  0.0452
 7746W        W21160   6.182  18.353   3.825  0.1993  0.3056  0.0232
 7747W        W21161   3.621   8.240   1.091  0.3420  0.1428  0.2133
 7748W        W21162   6.587  12.171   6.009 -0.0300 -0.1895 -0.0111
 7749W        W21163  13.708   3.583  14.793  0.0517 -0.0019 -0.1684
 7750W        W21164   9.836  13.407  14.556  0.1238 -0.2789  0.0992
 7751W        W21165   7.994   4.628  11.868 -0.1417  0.2813 -0.0197
 7752W        W21166  17.574  14.797   2.088 -0.0299 -0.1814  0.1920
 7753W        W21167   5.753  10.962   6.323  0.1345  0.0760 -0.2219
 7754W        W21168  12.532  12.687   1.153  0.1966  0.3112 -0.3669
 7755W        W21169   4.298  17.716  12.003 -0.0903 -0.0548 -0.2183
 7756W        W21170   4.987   6.757  10.297 -0.0106  0.0129 -0.0035
 7757W        W21171  12.202  16.090  15.533 -0.1533  0.2719  0.0608
 7758W        W21172  10.966   8.205  15.173 -0.1291  0.1300  0.5861
 7759W        W21173  12.014   3.197   0.741  0.0456  0.0746 -0.1362
 7760W        W21174   8.827   1.477  10.720  0.1526  0.1436 -0.2951
 7761W        W21175  12.992  16.014  15.109 -0.1998 -0.1505 -0.1143
 7762W        W21176   0.450  18.055   1.983  0.3473  0.1294 -0.0239
 7763W        W21177  14.571  14.004  12.292 -0.0976  0.1863 -0.1167
 7764W        W21178   7.538  16.669  16.076 -0.1932 -0.1726  0.1267
 7765W        W21179   6.940  10.015  14.600 -0.0393  0.2143  0.0299
 7766W        W21180  16.169   4.420   4.755  0.1762  0.1102  0.2464
 7767W        W21181  13.674  13.404   1.280  0.2234 -0.0951  0.3550
 7768W        W21182  17.601  12.886  15.630 -0.2352 -0.1117  0.3345
 7769W        W21183  10.147  14.977  16.123 -0.1700  0.0674 -0.0492
 7770W        W21184   3.599  14.445  12.368  0.2565  0.2031  0.0183
 7771W        W21185  10.925   0.523   0.074  0.0260  0.2040 -0.2594
 7772W        W21186   6.051  17.425  16.365  0.0963  0.3368  0.3623
 7773W        W21187  17.672   3.822  15.215 -0.0783  0.1084  0.1710
 7774W        W21188  16.492  14.199  15.377 -0.2890 -0.0040 -0.2609
 7775W        W21189   3.195   8.682  13.809  0.3415 -0.3800 -0.1974
 7776W        W21190  14.099   0.198   4.755  0.2004 -0.1292  0.0045
 7777W        W21191   0.846   0.252   1.582 -0.0122  0.4268 -0.3520
 7778W        W21192   6.988  11.161   2.211  0.0693  0.0021 -0.2066
 7779W        W21193  10.887   5.199  16.375 -0.0978 -0.0301  0.0951
 7780W        W21194  16.042   9.955  13.432  0.1148 -0.0258 -0.1109
 7781W        W21195   4.765   0.484  11.514  0.2133 -0.0065 -0.1957
 7782W        W21196  16.275  13.122  12.410  0.0386  0.1302  0.1103
 7783W        W21197   7.287   0.313  10.369  0.0471  0.0836 -0.1078
 7784W        W21198   0.323  17.284  12.804 -0.1771 -0.1476 -0.1404
 7785W        W21199   6.119  12.299  15.169  0.1912 -0.2884  0.0598
 7786W        W21200  12.131   3.822   0.123  0.1432  0.1065 -0.1685
 7787W        W21201   6.701   4.626  15.891 -0.0064 -0.4125 -0.0849
 7788W        W21202   1.044   7.561   2.457 -0.0289  0.0421  0.3670
 7789W        W21203   0.558  11.315   2.934  0.1592  0.0534 -0.3674
 7790W        W21204   8.185   7.701  10.879 -0.1509 -0.3531  0.0217
 7791W        W21205   9.401  17.665   0.513 -0.2395 -0.1216  0.0063
 7792W        W21206  16.869   2.686  12.137 -0.1877 -0.3090  0.2135
 7793W        W21207  13.649   2.912  13.443 -0.3583  0.2766  0.1950
 7794W        W21208   8.683   2.183   2.328  0.0087  0.0789  0.1344
 7795W        W21209  14.114   2.351  14.102  0.1257  0.2295 -0.2303
 7796W        W21210  16.544   3.101  14.908 -0.1872 -0.0129  0.1691
 7797W        W21211  15.356  11.463   5.660  0.0461  0.1566  0.2581
 7798W        W21212   3.325  16.767  16.370 -0.0732 -0.1500 -0.1032
 7799W        W21213   3.856  10.986  10.858  0.1947  0.1167  0.2337
 7800W        W21214   7.403  12.165  11.793 -0.1202  0.0853  0.0287
 7801W        W21215   0.105   3.576   4.158  0.1057  0.1626 -0.2799
 7802W        W21216   6.839   9.499   3.877  0.0923 -0.2570 -0.1536
 7803W        W21217  14.111  12.324   4.061 -0.0095  0.0575 -0.1635
 7804W        W21218   4.391   5.078   3.176  0.4359  0.2918  0.1470
 7805W        W21219  15.119  10.879   1.020  0.0560  0.1781  0.0850
 7806W        W21220  10.241   3.326   3.885 -0.1664 -0.0471 -0.2679
 7807W        W21221  18.213   1.502  15.686  0.0854 -0.1352 -0.2001
 7808W        W21222  16.341   9.628   1.063  0.0737 -0.1994  0.2517
 7809W        W21223  10.543  10.177  13.444  0.2096  0.0105 -0.0485
 7810W        W21224  17.473   0.533   0.265  0.0220 -0.0081 -0.3515
 7811W        W21225  16.345   5.890   5.731  0.0645  0.0254 -0.2513
 7812W        W21226  11.221   5.672   1.985 -0.2470 -0.0824 -0.0780
 7813W        W21227  14.296  17.902  11.648 -0.0908 -0.1257 -0.3674
 7814W        W21228   4.079  17.366   2.492 -0.0047 -0.0514  0.0203
 7815W        W21229  10.073   1.573   5.422 -0.1632 -0.1262  0.0808
 7816W        W21230  14.563  13.923  11.511  0.2919 -0.1381  0.0344
 7817W        W21231   2.885   9.260   4.095  0.0434 -0.0424 -0.2375
 7818W        W21232  13.888  16.084  13.610 -0.1898 -0.1203 -0.0518
 7819W        W21233   6.523  16.618  11.837  0.1475  0.0461  0.0674
 7820W        W21234   0.602  15.733   4.011 -0.1916  0.1382 -0.1384
 7821W        W21235  10.980   1.286   4.298  0.0420 -0.0867  0.2921
 7822W        W21236   4.629   7.310   4.529 -0.0948  0.0650  0.3966
 7823W        W21237   9.161   6.727  10.912  0.2897  0.1818 -0.0105
 7824W        W21238  12.620   0.634   1.241 -0.2915  0.1071 -0.0191
 7825W        W21239   2.183   7.973   4.974  0.2234  0.1017 -0.3547
 7826W        W21240  18.395  12.682  11.920 -0.3347  0.0447  0.1427
 7827W        W21241   7.951   0.891   1.588  0.2539 -0.1666 -0.1292
 7828W        W21242   5.904  15.559  15.673 -0.0499 -0.0467  0.1291
 7829W        W21243   1.637   3.268   6.323  0.0467 -0.1242 -0.0496
 7830W        W21244   7.647   4.734   3.914 -0.0687  0.3109 -0.0416
 7831W        W21245  11.562  11.209  11.169 -0.2497 -0.5363  0.0881
 7832W        W21246   0.012  16.837   3.061  0.1350 -0.1983  0.1087
 7833W        W21247  16.807   8.032  10.293  0.0107  0.1482  0.0307
 7834W        W21248  13.627   5.859   4.954  0.0091 -0.2086  0.0370
 7835W        W21249   4.554  16.323  15.236  0.2484  0.0703  0.0712
 7836W        W21250  12.991  16.223   5.770  0.0140  0.2596 -0.1137
 7837W        W21251  18.117  10.157  15.541 -0.0226 -0.2188  0.0634
 7838W        W21252  10.348   1.437  15.979 -0.2047 -0.3680  0.1859
 7839W        W21253  13.567   4.721   3.254  0.0060  0.3370  0.2706
 7840W        W21254   2.288   4.195   1.069 -0.5962  0.1049 -0.1719
 7841W        W21255  13.973  11.344   0.720  0.2240  0.1159  0.3050
 7842W        W21256   0.727   7.364  15.597 -0.1624 -0.0353  0.0467
 7843W        W21257  11.378   7.239  11.415 -0.0684 -0.0919  0.0218
 7844W        W21258   0.098   6.020  11.950  0.1684 -0.0825 -0.0714
 7845W        W21259   1.628  17.768   6.273 -0.3061 -0.0661 -0.0802
 7846W        W21260   0.904   6.784  14.059  0.0771 -0.0792  0.0138
 7847W        W21261   9.865  14.078  15.406 -0.1727 -0.1054 -0.2114
 7848W        W21262   5.113   1.353   6.280  0.0337  0.0723  0.0923
 7849W        W21263   9.286   5.089   0.456 -0.1615 -0.1690  0.1495
 7850W        W21264   9.343  18.004   2.035  0.1973  0.0369 -0.1727
 7851W        W21265  15.915   9.163   2.143 -0.1014  0.1252 -0.1795
 7852W        W21266   4.587   8.941  16.259 -0.0006 -0.0353 -0.0867
 7853W        W21267   7.912   1.145  11.846 -0.3969 -0.2129 -0.1344
 7854W        W21268   1.864   7.726  12.070 -0.0414 -0.2062  0.0517
 7855W        W21269  17.036   5.174  16.211 -0.2431  0.0029  0.1662
 7856W        W21270   6.073   6.655   0.898  0.0428 -0.0485  0.0291
 7857W        W21271   9.043   8.163   3.115 -0.2026  0.1302  0.0159
 7858W        W21272   1.016   5.303  11.715 -0.0689 -0.3068 -0.2457
 7859W        W21273   7.807   4.963  13.521  0.1211 -0.2934 -0.0427
 7860W        W21274   4.946   6.994   0.902  0.1147 -0.1439  0.1345
 7861W        W21275  11.089  13.929  11.857 -0.3070 -0.0971  0.0220
 7862W        W21276   2.496  16.814  15.919  0.0494  0.3701 -0.3889
 7863W        W21277  14.009   9.838   4.574  0.0223 -0.3348 -0.2683
 7864W        W21278  11.380   6.695   0.070  0.0349  0.1646  0.1432
 7865W        W21279  17.825  18.284  12.423 -0.0621 -0.1019 -0.0893
 7866W        W21280   5.041  12.214   4.300 -0.0742  0.1264 -0.0780
 7867W        W21281   7.398   5.797  15.891  0.1705  0.2769 -0.1312
 7868W        W21282   0.597  10.373   0.441 -0.0386 -0.1048 -0.0244
 7869W        W21283  17.440  12.355   1.569 -0.6579  0.2369 -0.0212
 7870W        W21284  15.382   4.249  13.021 -0.0220  0.2774 -0.0071
 7871W        W21285   2.035  18.268   1.271  0.3959 -0.3615 -0.0006
 7872W        W21286  18.317  11.364  15.919 -0.1182 -0.1637 -0.1388
 7873W        W21287  13.456  12.397  13.055  0.1401  0.2619  0.0838
 7874W        W21288   5.160  12.744   2.819 -0.2993 -0.2673  0.0301
 7875W        W21289  13.061   2.868   5.665 -0.0112  0.1081  0.1248
 7876W        W21290  12.704   7.339   1.302 -0.0333 -0.1255 -0.0796
 7877W        W21291  13.012  11.671  13.954  0.2568  0.1849 -0.1998
 7878W        W21292   9.479   7.302  14.575 -0.1996  0.0943  0.2588
 7879W        W21293   9.176  11.236   4.820  0.0990  0.0222  0.0980
 7880W        W21294   6.679   4.528  16.495 -0.0985 -0.2215 -0.0368
 7881W        W21295  14.994   4.624   4.512 -0.1190 -0.4065  0.1287
 7882W        W21296   8.472  12.346   2.353 -0.0957  0.1400  0.3254
 7883W        W21297   1.869   9.665   2.753  0.0313  0.3700  0.2901
 7884W        W21298  10.967  10.350   0.062  0.0445 -0.0118 -0.2726
 7885W        W21299   5.806   6.936   3.796 -0.1896  0.3503 -0.2963
 7886W        W21300  10.477   4.896   0.055 -0.1300 -0.3617  0.0742
 7887W        W21301   0.134  15.513   3.514  0.0340 -0.1864  0.1304
 7888W        W21302  14.288   1.319   3.834 -0.3280  0.1015  0.3244
 7889W        W21303   7.056   4.844  10.186  0.4337  0.3466  0.0888
 7890W        W21304   2.152  15.963   5.023 -0.3229  0.2446 -0.0970
 7891W        W21305   1.665   3.171  15.034 -0.2728  0.0698 -0.2127
 7892W        W21306  18.340  15.641   7.239 -0.0403  0.0057 -0.0242
 7893W        W21307  12.105   7.792  13.988 -0.0099  0.0064 -0.0160
 7894W        W21308   7.389   8.938  13.468 -0.0026 -0.0801 -0.3041
 7895W        W21309   2.138   4.723  14.218  0.0422 -0.1627  0.1383
 7896W        W21310   8.795  15.156   4.955 -0.1620  0.0723  0.1062
 7897W        W21311   2.593   7.682  15.163 -0.1681  0.0699 -0.0285
 7898W        W21312  17.153  16.051  10.475  0.2079 -0.0993  0.3247
 7899W        W21313  13.953   6.525  13.375  0.3176  0.0301  0.0938
 7900W        W21314  17.420   9.228   4.471 -0.0895 -0.0298  0.0185
 7901W        W21315   4.135  11.772   2.208  0.2562  0.0449 -0.4894
 7902W        W21316   7.128   6.752   2.430 -0.1006  0.0444 -0.1430
 7903W        W21317   5.250   6.560   4.184 -0.1724 -0.0098 -0.1894
 7904W        W21318   6.681   5.138   4.801  0.3307  0.0997 -0.1876
 7905W        W21319  15.642   0.996   6.845  0.0139  0.0796  0.2223
 7906W        W21320  11.034   6.522   0.447 -0.4103  0.2354 -0.1528
 7907W        W21321   7.800  14.456  14.455 -0.1986  0.1539 -0.0450
 7908W        W21322  14.004   4.164  16.076  0.2443 -0.0252  0.4810
 7909W        W21323   6.552  13.049  12.184  0.2451  0.0628  0.3382
 7910W        W21324  11.797  15.742   0.912 -0.2840  0.2069  0.0886
 7911W        W21325   1.554  15.616  11.791 -0.0820 -0.0607 -0.0246
 7912W        W21326   0.993  11.230   3.817 -0.1612  0.0179  0.5418
 7913W        W21327   1.007   8.677   3.434 -0.0503  0.1228  0.1143
 7914W        W21328  17.162   6.175   9.640 -0.0377 -0.3002  0.0585
 7915W        W21329  11.815   9.012   2.951 -0.4368  0.1813  0.0163
 7916W        W21330   1.991   3.554   5.533 -0.0072  0.0344  0.1627
 7917W        W21331   9.842  13.509   5.029 -0.0245 -0.0851 -0.3028
 7918W        W21332  10.088   5.736   5.518 -0.2246 -0.0669  0.1360
 7919W        W21333  18.279  16.580   5.621  0.1821 -0.2525 -0.0792
 7920W        W21334   9.275   4.758   4.806  0.0290  0.0688 -0.1018
 7921W        W21335  12.562  11.808  12.202  0.1960 -0.1623  0.1099
 7922W        W21336   8.362   6.168  11.109 -0.0092 -0.2285  0.0713
 7923W        W21337   1.425   3.442   4.802 -0.0125 -0.0504  0.0533
 7924W        W21338  13.807  12.124  10.791  0.0996  0.1365  0.1869
 7925W        W21339   4.878  10.727  13.862  0.0706 -0.2668  0.0664
 7926W        W21340  10.530  15.736  14.735 -0.0273  0.1870  0.0310
 7927W        W21341   8.014  14.827  12.138 -0.0634  0.1621  0.1109
 7928W        W21342   3.020  11.841  16.095 -0.2091  0.3923  0.0725
 7929W        W21343   9.820   8.159   1.921  0.2360  0.5445  0.0473
 7930W        W21344   7.577   4.158  10.583  0.1875  0.1307 -0.0707
 7931W        W21345   6.210   0.811   4.193 -0.2304 -0.3404  0.2267
 7932W        W21346   3.350   2.646   1.667  0.1291  0.1850 -0.2686
 7933W        W21347  16.240   2.598   2.968 -0.1324  0.2508  0.0728
 7934W        W21348  16.545  14.094   3.804 -0.0383 -0.0357  0.0369
 7935W        W21349  10.873   5.951  13.602  0.0400 -0.1828 -0.2368
 7936W        W21350   9.161  16.111   1.633 -0.2224  0.0290 -0.0074
 7937W        W21351   4.291  14.028   3.285  0.1292 -0.1251  0.1290
 7938W        W21352  10.968  11.109  13.567 -0.3620  0.0819  0.3499
 7939W        W21353   4.637   5.256   2.766 -0.0595  0.0373 -0.1062
 7940W        W21354   3.095   1.851  15.936  0.0542  0.1562  0.3155
 7941W        W21355   8.203  16.838  13.441 -0.1597 -0.2654 -0.0288
 7942W        W21356   1.892   1.963  11.308 -0.0234 -0.0080  0.0909
 7943W        W21357   9.221   7.658  15.045 -0.0663 -0.1303  0.0808
 7944W        W21358   0.975   4.989   1.827  0.1416 -0.1504 -0.0954
 7945W        W21359  15.642   7.222  12.618  0.2066 -0.0381 -0.2197
 7946W        W21360   7.805  10.515  12.864  0.2207 -0.2627 -0.1887
 7947W        W21361   5.166   5.543   2.206 -0.2132 -0.1310  0.0336
 7948W        W21362  14.379  13.224   3.012 -0.2245 -0.0202 -0.1239
 7949W        W21363   0.904  16.033   7.489 -0.2646  0.2395 -0.0247
 7950W        W21364  15.942   2.042  10.213 -0.1485  0.1813  0.1307
 7951W        W21365   5.110  13.128  15.721 -0.1883  0.1387  0.3092
 7952W        W21366  14.987  17.320   0.254 -0.2695  0.4761  0.0229
 7953W        W21367   2.621   9.225   4.771  0.0820 -0.0209 -0.0742
 7954W        W21368  15.164  14.904  10.692  0.0271  0.0515  0.2834
 7955W        W21369  16.238  17.079   5.608 -0.0454  0.1244 -0.0743
 7956W        W21370  12.530  10.857   6.057  0.1118 -0.0269  0.3573
 7957W        W21371  17.439  11.390   2.634 -0.0623  0.3647 -0.1305
 7958W        W21372   8.865   4.696  15.848 -0.2162 -0.0375 -0.0885
 7959W        W21373   4.408   0.915  15.790 -0.4098 -0.1669  0.1231
 7960W        W21374  13.397   4.157  11.196 -0.2391  0.0315  0.0334
 7961W        W21375  17.867  13.920  12.133  0.2902 -0.1696  0.0072
 7962W        W21376   2.290   5.704  12.118  0.1286 -0.1146  0.0056
 7963W        W21377   6.848   8.513   2.231 -0.0695 -0.3398  0.0604
 7964W        W21378  10.800   0.044  16.351  0.1653  0.2215 -0.1508
 7965W        W21379  17.508  12.223  10.796  0.0387 -0.1005 -0.3749
 7966W        W21380  13.998   6.338  13.863 -0.2703 -0.2305 -0.3445
 7967W        W21381   5.564  16.640  11.932  0.1394 -0.1067  0.1534
 7968W        W21382   2.007  18.002  15.820  0.0606 -0.3421 -0.1209
 7969W        W21383   4.855   0.547  11.978  0.0245 -0.1244 -0.1802
 7970W        W21384   1.410  17.541   0.875 -0.0400  0.1972  0.2457
 7971W        W21385  10.193  18.107   3.642  0.2994 -0.3545 -0.3776
 7972W        W21386   6.470  15.218   3.255  0.1655  0.0462  0.0865
 7973W        W21387  12.502  17.784  13.661  0.2678 -0.0377  0.0946
 7974W        W21388   8.996   8.804  13.493 -0.3237 -0.0653  0.3715
 7975W        W21389   3.996  15.017   5.849 -0.0499 -0.2445  0.0127
 7976W        W21390   8.722  10.466   3.723 -0.0975 -0.2359 -0.1602
 7977W        W21391  11.330  15.385  14.454 -0.2096 -0.0709  0.2988
 7978W        W21392   5.532   9.136   5.737 -0.2058  0.4236 -0.0051
 7979W        W21393  11.363   7.902   3.271  0.0028  0.2605  0.0605
 7980W        W21394  17.210  13.453  14.672 -0.4635 -0.0922  0.0285
 7981W        W21395  12.881   3.753   3.726  0.2839  0.1439  0.2171
 7982W        W21396  17.709  13.509   5.356 -0.0972 -0.0308 -0.1662
 7983W        W21397  12.494   4.140   1.719  0.1655 -0.0835 -0.0704
 7984W        W21398   0.461   3.137  11.057 -0.0623  0.3414 -0.0006
 7985W        W21399   8.384  10.216   4.993 -0.0635 -0.1352  0.1739
 7986W        W21400   1.254   3.501  11.480 -0.2174 -0.1469  0.1329
 7987W        W21401  10.973   9.002  10.531  0.2805  0.1096  0.2594
 7988W        W21402  12.708   1.471  10.241 -0.2431  0.3092  0.0915
 7989W        W21403   2.990   4.003   5.370  0.2095  0.0422  0.0843
 7990W        W21404  17.647   0.171  11.045 -0.0574 -0.2009  0.1495
 7991W        W21405  10.898  12.129   1.417 -0.3968 -0.3005 -0.0528
 7992W        W21406   9.704   4.678   3.882 -0.0581 -0.1532 -0.1734
 7993W        W21407  16.481  13.918   2.451 -0.1387  0.2767  0.2141
 7994W        W21408   8.056   6.765  12.336 -0.0878  0.1710  0.2227
 7995W        W21409   3.816   4.979   3.880 -0.1086  0.0322 -0.0214
 7996W        W21410   5.800   7.499   2.673  0.1935 -0.1363 -0.1530
 7997W        W21411   8.035  15.962   5.312  0.1075 -0.0364 -0.2052
 7998W        W21412   1.389  12.952  10.177 -0.1446  0.0797 -0.2677
 7999W        W21413  16.833   5.890  15.390  0.0564 -0.0221  0.0600
 8000W        W21414  11.901   8.814  13.313 -0.0450  0.1073 -0.2368
 8001W        W21415  18.304   2.552   2.318  0.2521  0.0122 -0.3370
 8002W        W21416  16.381   8.727   1.429 -0.1280 -0.1797 -0.0582
 8003W        W21417  17.743  16.057  13.597  0.1640  0.2057  0.0974
 8004W        W21418  17.567   6.920  14.673 -0.1576 -0.0754  0.2083
 8005W        W21419  14.782   8.433   9.698 -0.4098 -0.0353  0.1538
 8006W        W21420  13.568  14.442   2.006 -0.1096  0.0090  0.0455
 8007W        W21421   9.811   0.297   5.356  0.0218 -0.1907 -0.1581
 8008W        W21422   6.601  10.764   4.368  0.3757 -0.0739 -0.0573
 8009W        W21423  14.165  11.767  16.263 -0.0792 -0.3494  0.1961
 8010W        W21424  15.199   2.113   3.395  0.0253  0.0127  0.1042
 8011W        W21425  16.572  12.154  16.268  0.2192  0.3223  0.0777
 8012W        W21426  15.322   6.650  13.373 -0.2281  0.0021  0.2098
 8013W        W21427   1.121   6.273  11.709  0.2042 -0.0274 -0.3701
 8014W        W21428   5.286  10.651  16.206  0.0391  0.0754 -0.1243
 8015W        W21429   3.740  15.651   5.977 -0.0928  0.1673  0.0438
 8016W        W21430  17.197  10.200   2.943 -0.2522  0.0709  0.1172
 8017W        W21431   2.051   4.779   4.434 -0.1042  0.1506 -0.2716
 8018W        W21432   7.813   1.836   5.300 -0.2321 -0.0547 -0.1672
 8019W        W21433  10.774   1.038   5.721  0.0232  0.1616 -0.0994
 8020W        W21434   0.715   4.588  10.956 -0.0309  0.2113 -0.3595
 8021W        W21435  18.170  10.784   5.300 -0.0340 -0.0821 -0.0650
 8022W        W21436   2.976   9.119  14.041  0.0333 -0.2057 -0.1356
 8023W        W21437  10.462   8.634  15.508  0.0283 -0.3052 -0.1721
 8024W        W21438  11.101   3.685  12.937 -0.0638  0.0423 -0.0233
 8025W        W21439   1.005   3.552  15.295 -0.0704 -0.0136 -0.1343
 8026W        W21440   3.122   9.769  16.453  0.1442 -0.0241  0.1389
 8027W        W21441  15.630   2.036  14.014  0.0087  0.0532  0.1048
 8028W        W21442   5.248   2.142   1.825 -0.0875 -0.1119 -0.2188
 8029W        W21443   1.020  15.426   3.068  0.0837  0.2797 -0.2029
 8030W        W21444   1.177   9.701  11.722 -0.2620 -0.0158 -0.1863
 8031W        W21445   4.389   4.624  12.982  0.0603 -0.0348  0.2546
 8032W        W21446   0.614   7.860   0.293 -0.1352  0.1013 -0.0373
 8033W        W21447  17.123   8.240  12.672 -0.2910 -0.1546  0.1181
 8034W        W21448  16.197   4.925   1.805 -0.1500  0.0186 -0.1594
 8035W        W21449  17.286   3.063   5.740  0.0791  0.1239  0.3359
 8036W        W21450  10.824  12.817  14.791 -0.2437  0.0324  0.0343
 8037W        W21451  14.790  10.584  16.293  0.0683  0.4587 -0.0856
 8038W        W21452   4.577  16.475  12.973 -0.1824  0.1002  0.1366
 8039W        W21453  14.617  16.704  14.073  0.1482  0.1655 -0.2422
 8040W        W21454  10.747  16.719  10.717 -0.2215 -0.1104  0.0117
 8041W        W21455   6.168   8.027  10.358 -0.3679 -0.0820 -0.1434
 8042W        W21456  16.023   4.754   5.108 -0.2274  0.1282  0.0273
 8043W        W21457  11.291   9.728   1.028 -0.2639  0.0901 -0.2833
 8044W        W21458   6.781  14.970   0.092  0.0555 -0.1590 -0.3597
 8045W        W21459   8.899   1.079  13.442  0.0317  0.0621 -0.0105
 8046W        W21460   6.506  12.638  13.630 -0.1022 -0.0081  0.1957
 8047W        W21461   5.339   9.318  12.088  0.2289 -0.0106 -0.0540
 8048W        W21462   0.701   6.790   1.281  0.1023  0.2051 -0.0097
 8049W        W21463  15.839  17.922   1.408 -0.0408 -0.0244  0.1722
 8050W        W21464   0.777   8.075   2.675 -0.1042  0.2667  0.0360
 8051W        W21465  10.852  16.586   4.570  0.2168 -0.0007  0.0657
 8052W        W21466  17.478   9.536   1.045  0.1110 -0.0412 -0.4775
 8053W        W21467   4.423   7.203   3.991 -0.0451 -0.0865 -0.1775
 8054W        W21468  15.493   7.707  11.120  0.0075 -0.0899 -0.1111
 8055W        W21469   5.801   1.863   4.134 -0.0216 -0.1289  0.1395
 8056W        W21470   0.228   6.249  11.103 -0.1501 -0.0461 -0.0811
 8057W        W21471  15.819   4.763  12.190  0.0450 -0.0516  0.2157
 8058W        W21472  18.198   4.024  13.891 -0.0704  0.1729  0.3347
 8059W        W21473  10.964  17.395   4.155 -0.2052 -0.2126  0.2192
 8060W        W21474   8.721  16.799   1.308 -0.1658 -0.0843  0.0242
 8061W        W21475  10.252  17.173   5.762 -0.2886 -0.0443 -0.0181
 8062W        W21476   4.854  11.151  11.330  0.3110 -0.0209  0.3799
 8063W        W21477  15.079   3.383   0.338 -0.0008  0.0899 -0.0496
 8064W        W21478  16.006   4.295  10.831  0.1499 -0.2004 -0.1556
 8065W        W21479  13.205  14.248  11.615 -0.2601  0.1107 -0.1353
 8066W        W21480   6.465  14.179  12.772  0.1974 -0.2590  0.2136
 8067W        W21481  17.514   1.056   1.134 -0.0788 -0.1032 -0.1573
 8068W        W21482  17.944  15.312   0.815 -0.0592 -0.0207  0.3097
 8069W        W21483   9.949  10.953  13.510  0.0157  0.1653 -0.1029
 8070W        W21484   5.216  15.091   0.761  0.0227  0.1050 -0.1816
 8071W        W21485  15.713  16.955   2.334 -0.0612  0.3502  0.0482
 8072W        W21486   4.150   0.472  16.251 -0.0784 -0.0465 -0.0927
 8073W        W21487   5.119   9.660  14.921  0.1836 -0.1579  0.4996
 8074W        W21488  17.423   3.415  16.137  0.0178  0.0899 -0.0609
 8075W        W21489   3.715  16.527  15.387  0.1862  0.2202  0.1067
 8076W        W21490  17.055  17.580  15.618 -0.5784  0.0274 -0.3208
 8077W        W21491  14.525  10.262   0.376 -0.1852  0.0587 -0.0683
 8078W        W21492   5.602  14.376  14.849 -0.0183 -0.0398  0.1713
 8079W        W21493  11.592   7.568   2.382  0.1037 -0.0846  0.0363
 8080W        W21494  11.426   8.562  14.245 -0.3114 -0.1303  0.1151
 8081W        W21495   4.228   3.698  12.036  0.0943  0.4673  0.6337
 8082W        W21496  10.665  16.716   4.092 -0.0463 -0.2510 -0.0588
 8083W        W21497   2.731  14.893   2.307  0.1057 -0.0354  0.0301
 8084W        W21498  16.856  15.306  13.075  0.1301 -0.1415  0.0155
 8085W        W21499   1.704   5.875   5.351 -0.1414 -0.0613  0.1582
 8086W        W21500  11.898  12.773  15.853  0.0799 -0.2481 -0.1950
 8087W        W21501  17.235   7.484  14.091 -0.0076  0.0513 -0.0587
 8088W        W21502  12.302   5.818  16.152  0.0527  0.1551  0.3457
 8089W        W21503   7.815  15.366   0.010 -0.0854 -0.1729  0.2304
 8090W        W21504   8.376   0.099  12.180  0.0140  0.2162  0.0448
 8091W        W21505   0.419  17.758  15.140  0.0209 -0.1069 -0.3453
 8092W        W21506  13.346  15.720   1.204  0.2845 -0.0823 -0.2306
 8093W        W21507   8.358   8.616  15.083 -0.0109  0.2035 -0.1048
 8094W        W21508   7.644   7.928   0.240  0.0038 -0.5474 -0.0364
 8095W        W21509  13.181   1.457  15.073 -0.0685  0.3698  0.1615
 8096W        W21510   4.609  14.463   3.395  0.0043 -0.0145 -0.1068
 8097W        W21511  10.095  13.105  15.330  0.0536  0.1985 -0.1537
 8098W        W21512   9.651   6.885  14.225  0.0234 -0.2792  0.0345
 8099W        W21513   7.319   7.230   5.141  0.1884 -0.0455  0.1924
 8100W        W21514   4.321  10.661  14.758  0.0013  0.1773 -0.3447
 8101W        W21515   6.148  15.892   1.629  0.0398 -0.1358 -0.1740
 8102W        W21516  16.310   5.948   4.825 -0.0241  0.1823  0.0596
 8103W        W21517   0.994   7.230  13.230 -0.1223  0.0562  0.0475
 8104W        W21518  16.803   3.836  11.875  0.1064 -0.1638 -0.1636
 8105W        W21519  14.719  11.197   6.641 -0.0841 -0.2288 -0.2060
 8106W        W21520  16.061   9.199  11.065 -0.0366  0.1506  0.0055
 8107W        W21521  14.593  10.997  16.509  0.0311 -0.0908  0.1020
 8108W        W21522   0.629  10.945   1.117 -0.3096  0.1023 -0.0309
 8109W        W21523   0.050  10.285   2.585  0.1715  0.0052  0.0920
 8110W        W21524   7.411   5.183  14.232  0.0169  0.0872 -0.2315
 8111W        W21525   2.082  16.549  16.249 -0.0080  0.3093  0.0973
 8112W        W21526  14.748  11.533  13.675 -0.1880 -0.2942 -0.1699
 8113W        W21527   7.643   6.669   0.978 -0.1505  0.0371 -0.0687
 8114W        W21528   8.876   4.124   2.675  0.0544 -0.1692 -0.0851
 8115W        W21529  10.584  10.138   5.475  0.3380  0.0102  0.1289
 8116W        W21530   6.210  16.294   5.147  0.1650 -0.1329 -0.1409
 8117W        W21531  16.903  14.900   3.903 -0.1855  0.0658 -0.0198
 8118W        W21532  12.658   0.563  11.637 -0.0966  0.3608 -0.1015
 8119W        W21533  16.880   4.731  12.066 -0.3669  0.2380 -0.0416
 8120W        W21534  11.133   2.965   3.844  0.1068 -0.0459  0.1695
 8121W        W21535  13.972   9.563   2.622  0.2272  0.0459  0.4748
 8122W        W21536   5.694   2.636   5.803 -0.0717 -0.2323 -0.0468
 8123W        W21537  13.940  17.879  12.705  0.1094  0.3243 -0.0999
 8124W        W21538  15.830   6.641  16.160  0.1945 -0.1667  0.0405
 8125W        W21539  10.270  10.085   0.779 -0.0774 -0.2419 -0.2749
 8126W        W21540  12.782   1.370   5.683  0.1064  0.2660 -0.0794
 8127W        W21541   3.493   6.743  11.318  0.1725 -0.1070  0.0142
 8128W        W21542  11.824   9.824   4.158  0.3442 -0.0943  0.0010
 8129W        W21543   4.595   3.253   3.446  0.0264 -0.0638 -0.0967
 8130W        W21544  16.478   7.577   4.925  0.0096  0.1340  0.0132
 8131W        W21545  10.410   7.822   0.461  0.0833 -0.2060  0.0861
 8132W        W21546  11.286   0.743  12.343  0.0733 -0.0028 -0.1633
 8133W        W21547   3.470  18.283  13.788 -0.0161 -0.1756  0.1266
 8134W        W21548   3.947  12.727   5.853  0.1677  0.0061  0.0186
 8135W        W21549   5.265   4.418  14.497 -0.0789  0.1280  0.0853
 8136W        W21550   0.812   9.177   3.182  0.1428 -0.4574 -0.1818
 8137W        W21551  15.479  11.560  11.519 -0.4235 -0.0441  0.0632
 8138W        W21552   7.201  13.918  16.059 -0.4406  0.0816  0.1112
 8139W        W21553   5.306   1.179   0.027 -0.2769 -0.1252 -0.2224
 8140W        W21554   5.770   6.353  11.442  0.0711 -0.1010 -0.1750
 8141W        W21555  10.710   8.299   0.328  0.2246 -0.0670 -0.4631
 8142W        W21556  12.225   3.147   4.756 -0.1962 -0.0478  0.0913
 8143W        W21557  13.550  10.226  15.949  0.1506  0.2211  0.1080
 8144W        W21558  17.942  14.215   4.690 -0.0223 -0.2340 -0.0306
 8145W        W21559   8.091   2.931  14.000  0.1022 -0.0402  0.1448
 8146W        W21560  13.792   5.655  10.262 -0.1774  0.2775  0.0074
 8147W        W21561   0.096   2.309  14.651 -0.1591  0.0922  0.1072
 8148W        W21562   0.888  17.208   3.069  0.1292 -0.1615  0.1416
 8149W        W21563  13.497  14.167   5.664 -0.2360 -0.2270  0.2621
 8150W        W21564   8.075  12.846   1.787  0.1910 -0.2922 -0.1654
 8151W        W21565   4.478  13.536  10.998 -0.4622 -0.3499  0.1748
 8152W        W21566   3.027   2.523   3.113 -0.2804  0.1836 -0.2203
 8153W        W21567  13.639   7.679  14.605 -0.0200  0.2095 -0.4102
 8154W        W21568  15.294   2.371  11.490 -0.0349  0.0195 -0.5734
 8155W        W21569   7.389  13.857  12.435 -0.0522  0.0423 -0.1137
 8156W        W21570  10.227   6.926   4.785 -0.0144  0.0133 -0.2931
 8157W        W21571   0.223   3.687   0.579 -0.1744  0.0071 -0.1116
 8158W        W21572   8.247   1.410  11.463 -0.0026 -0.1656 -0.1101
 8159W        W21573   1.923  11.049   4.480  0.2354 -0.1946  0.1242
 8160W        W21574   8.543   2.411   3.755  0.3981  0.1423 -0.0292
 8161W        W21575   0.855  12.916  15.726 -0.1347  0.1329 -0.2291
 8162W        W21576   0.647   9.598  15.251 -0.0091  0.1530  0.2899
 8163W        W21577  12.094   6.679  15.832 -0.1567 -0.3049 -0.1946
 8164W        W21578   4.720   2.075  11.972 -0.3550 -0.1975  0.1534
 8165W        W21579   2.590   0.904   2.377 -0.1489  0.2047 -0.2966
 8166W        W21580  12.259  14.447  13.881  0.4260 -0.0488  0.0860
 8167W        W21581   8.060  17.630   9.900  0.2246  0.3263 -0.0786
 8168W        W21582   8.706   1.518   0.879 -0.1136 -0.0555  0.1366
 8169W        W21583  17.456   9.294  11.350  0.0558 -0.0175 -0.1197
 8170W        W21584   4.870  18.013  12.091  0.1676  0.1080  0.1192
 8171W        W21585  16.826   9.437   0.227  0.0153 -0.1184 -0.0992
 8172W        W21586   0.288   8.340   3.917  0.1211  0.2351  0.0390
 8173W        W21587  11.568   9.086  14.332  0.0599 -0.1621 -0.2291
 8174W        W21588   8.057  13.262  14.848  0.4501  0.3217 -0.0589
 8175W        W21589   6.553   4.838  14.567 -0.1711 -0.3350  0.2768
 8176W        W21590   4.505   2.678   0.776 -0.2330  0.4879  0.2288
 8177W        W21591   7.722  16.311  15.797  0.2056  0.1682  0.0442
 8178W        W21592  15.458   4.205  15.845 -0.0800  0.0845 -0.1174
 8179W        W21593   2.938  17.076   1.599 -0.1649  0.0986 -0.3860
 8180W        W21594   4.069   0.559   1.038  0.0811  0.2005  0.3178
 8181W        W21595  12.230   5.055  13.731  0.1116 -0.3282  0.1706
 8182W        W21596   0.909   1.077   0.229  0.1085 -0.2507  0.2205
 8183W        W21597  17.339   6.009  13.751 -0.1971 -0.0020 -0.2602
 8184W        W21598  13.364   7.241   2.832  0.3116  0.3733  0.2373
 8185W        W21599   3.909   9.833  14.214  0.1668  0.2412 -0.0270
 8186W        W21600   5.748  14.434   4.275 -0.0399 -0.1227  0.2129
 8187W        W21601   1.106  10.526  11.272  0.0233 -0.0452  0.2030
 8188W        W21602  15.262  10.126  10.305  0.5471  0.0127  0.1822
 8189W        W21603  15.405  16.708   1.434  0.4109 -0.0236  0.0058
 8190W        W21604   2.879   1.908   5.977  0.1649  0.1198 -0.0700
 8191W        W21605   4.115  16.518  13.768 -0.2810  0.0012  0.1730
 8192W        W21606   8.488   8.333   0.606  0.1715  0.1535 -0.0259
 8193W        W21607   8.253   4.461  16.297 -0.1561  0.4222  0.0413
 8194W        W21608  13.088  13.742  14.493  0.1142 -0.0074  0.1815
 8195W        W21609   1.787   5.775  11.687  0.1018 -0.1507 -0.1846
 8196W        W21610  11.966  17.424  15.745 -0.3683  0.2902  0.1821
 8197W        W21611   0.226  13.589  15.379 -0.0057  0.2073 -0.0297
 8198W        W21612  18.043   7.794  12.247  0.0617  0.6645  0.0239
 8199W        W21613  17.157  13.092  16.393  0.3352  0.1370  0.3896
 8200W        W21614   5.302  13.297  13.835 -0.0731 -0.1365 -0.1869
 8201W        W21615  11.015  16.921  15.662  0.2459 -0.3077  0.1953
 8202W        W21616   8.847  12.679   5.633  0.0326 -0.0028  0.4368
 8203W        W21617  16.946   8.979  11.374 -0.0914 -0.1914 -0.1497
 8204W        W21618   4.410  16.267  14.122 -0.0354 -0.3040 -0.4597
 8205W        W21619   3.250   3.720   4.589  0.3435 -0.1111  0.0681
 8206W        W21620   7.181  13.408  12.656 -0.1375  0.1070  0.1577
 8207W        W21621   9.328  16.766  12.443 -0.2834 -0.1960 -0.0094
 8208W        W21622  11.285  10.632   3.604  0.3382 -0.1064  0.1487
 8209W        W21623   0.811  14.856   2.932 -0.1901  0.2752 -0.0008
 8210W        W21624  12.447  15.925   0.195 -0.2099 -0.2375  0.2081
 8211W        W21625   4.183   7.533  14.265  0.1919 -0.0692 -0.1505
 8212W        W21626   8.898  17.160   3.097  0.0836  0.0324  0.0255
 8213W        W21627   1.017  14.297   4.303  0.0383  0.0360  0.2335
 8214W        W21628  16.062  17.574  13.089 -0.1364 -0.2241  0.0262
 8215W        W21629  17.482  11.612  14.121  0.3630 -0.1739  0.0661
 8216W        W21630   6.569   3.993   5.781  0.5244  0.2117  0.1226
 8217W        W21631   6.696   2.679   0.918 -0.3711 -0.2587 -0.0022
 8218W        W21632  17.233   4.459  11.882  0.0511  0.0928 -0.0079
 8219W        W21633   5.349  16.306   6.154  0.1373  0.3983  0.0208
 8220W        W21634  13.399   3.592   2.911 -0.1050  0.1263  0.3506
 8221W        W21635   3.047  15.483   4.666  0.1415 -0.3488 -0.0798
 8222W        W21636  12.407   7.779  12.571 -0.1036 -0.2988 -0.3618
 8223W        W21637   5.897   4.780  13.798 -0.1015 -0.1145 -0.2591
 8224W        W21638   2.812   5.349  13.076 -0.0318 -0.1155 -0.0182
 8225W        W21639  18.175   9.726   0.888  0.0403  0.1568  0.1650
 8226W        W21640   4.387  16.300  16.280 -0.1125 -0.1214  0.2506
 8227W        W21641   0.789   3.178  12.824 -0.0731 -0.0682  0.0310
 8228W        W21642  13.441   3.286  11.614  0.0986  0.1013 -0.0794
 8229W        W21643  14.599  11.561   1.648 -0.0405  0.2222 -0.0119
 8230W        W21644   4.390   8.307   4.623  0.3020 -0.2128  0.0644
 8231W        W21645   2.936  11.302  13.704  0.1816  0.0880 -0.1626
 8232W        W21646   4.793   4.237  10.737 -0.1945  0.0472  0.1901
 8233W        W21647   3.370   4.256  11.371 -0.4808 -0.3023 -0.0213
 8234W        W21648   7.197   3.556   1.028  0.1918  0.1128  0.1115
 8235W        W21649  11.957   1.145  16.156 -0.5690  0.2207  0.1513
 8236W        W21650  18.103   7.479  16.473  0.0285 -0.1712 -0.1058
 8237W        W21651  13.523   0.445   0.055  0.0129 -0.2236  0.1133
 8238W        W21652   1.551  14.926   4.331 -0.1740  0.3636 -0.0564
 8239W        W21653  18.111  13.675   2.897  0.3007 -0.2128 -0.0436
 8240W        W21654  18.299  12.484  11.474  0.0800  0.0569 -0.0911
 8241W        W21655   8.632  14.650   0.097 -0.1433  0.0979  0.2118
 8242W        W21656  16.286   9.982   4.570  0.3958 -0.0040  0.1241
 8243W        W21657   2.884   1.556   1.917  0.5890 -0.3069 -0.1675
 8244W        W21658  16.425   5.354   4.098 -0.0867 -0.0867  0.0832
 8245W        W21659   4.366  17.081   4.301 -0.2580 -0.2272  0.0937
 8246W        W21660  10.761   7.230   1.645  0.0424 -0.0058  0.1776
 8247W        W21661  14.162   0.881   1.138  0.2934  0.1202  0.0390
 8248W        W21662   3.793   9.421  10.367 -0.3198 -0.1357 -0.2198
 8249W        W21663  15.070   3.292  14.890  0.1845  0.0522 -0.3207
 8250W        W21664   8.443  14.158  14.139  0.1500  0.0561 -0.0438
 8251W        W21665   8.329   3.008  13.591  0.1478 -0.0651  0.1756
 8252W        W21666  13.478   2.623   0.785  0.1872  0.0302 -0.0654
 8253W        W21667   3.978   5.536   5.194  0.2381  0.3161 -0.0540
 8254W        W21668  12.742   2.650  14.602  0.3411 -0.3635 -0.1531
 8255W        W21669  18.119  18.231   1.397  0.0973  0.1038 -0.4444
 8256W        W21670   6.459   2.187   9.996 -0.0133  0.1434  0.3495
 8257W        W21671   6.302   2.773   2.271 -0.1115  0.1119  0.3483
 8258W        W21672  11.286   4.202   4.081  0.0223 -0.2388 -0.1506
 8259W        W21673  17.571   2.931   3.637  0.0742 -0.0625  0.2691
 8260W        W21674   7.990   6.537  16.047 -0.0828  0.0237  0.0290
 8261W        W21675  14.988  17.284   5.193 -0.1646 -0.0589  0.2834
 8262W        W21676  17.931   9.600  11.348  0.4045 -0.1919 -0.2081
 8263W        W21677  12.131   0.782  10.826  0.2615 -0.0556  0.1562
 8264W        W21678   2.291   0.574  13.766 -0.1912  0.4666 -0.0162
 8265W        W21679   1.014  12.965   2.257 -0.1058 -0.1581  0.1568
 8266W        W21680   2.481   4.290  16.442 -0.1109  0.1576  0.1649
 8267W        W21681   8.644  10.146  14.825  0.1440  0.0854 -0.1504
 8268W        W21682  11.635  17.854   1.043  0.1507  0.3437 -0.1802
 8269W        W21683   3.172  10.659  15.263  0.2221  0.3485 -0.0006
 8270W        W21684  12.646   5.022   2.655  0.1332 -0.0271  0.0932
 8271W        W21685   9.861   7.684   3.433 -0.0012 -0.3986 -0.0017
 8272W        W21686  18.074   4.571  12.979 -0.0284 -0.0856  0.0277
 8273W        W21687   5.805   9.748   2.931  0.1445  0.1262 -0.3057
 8274W        W21688  10.635  15.097  16.073 -0.1153  0.1599 -0.0913
 8275W        W21689  11.067   5.695   4.843 -0.0823 -0.0800  0.1154
 8276W        W21690   9.810   4.209  12.846  0.0051 -0.2094  0.0393
 8277W        W21691   3.044   9.693  12.964  0.1441 -0.3166 -0.0138
 8278W        W21692  10.122  13.030  14.280  0.0823  0.1625 -0.1503
 8279W        W21693  12.532  10.931  11.684 -0.1368  0.0624 -0.0541
 8280W        W21694  11.208  10.316   1.695  0.0428 -0.0369 -0.0726
 8281W        W21695   8.046   7.195   0.881  0.2894 -0.1818 -0.0996
 8282W        W21696  11.523  17.243   2.413  0.1390 -0.0103  0.3792
 8283W        W21697   4.929  11.537  12.335  0.1937 -0.0220 -0.0466
 8284W        W21698  16.982  17.527  12.156  0.1325  0.1099  0.0980
 8285W        W21699  10.724   9.623   4.557 -0.1163  0.0414 -0.1542
 8286W        W21700   5.478  15.993   3.645 -0.1948 -0.0199  0.2332
 8287W        W21701  13.976   3.789  11.022 -0.1526 -0.1589 -0.3825
 8288W        W21702  11.732   5.150   3.388  0.1223  0.0598  0.0830
 8289W        W21703   4.899   1.535  11.833 -0.2372 -0.0751 -0.1070
 8290W        W21704   2.010  10.330  10.669 -0.1844  0.0398 -0.1718
 8291W        W21705   5.099   3.422   4.774 -0.1247 -0.1666 -0.0368
 8292W        W21706   6.014  14.628   4.711  0.0524 -0.0188 -0.3013
 8293W        W21707   6.832  14.812  13.110 -0.1356 -0.0931  0.0030
 8294W        W21708  12.605   3.292   5.985 -0.2657  0.0335  0.2396
 8295W        W21709  15.628   1.533  13.629  0.0610 -0.0230  0.3450
 8296W        W21710   7.319   5.130  13.260 -0.1705 -0.1466  0.1283
 8297W        W21711   2.133   9.791  14.911  0.0058  0.1375 -0.2585
 8298W        W21712   2.310  12.858  12.191 -0.3146  0.0213  0.1269
 8299W        W21713  15.246  18.322  15.575  0.0308 -0.0376 -0.2756
 8300W        W21714  10.191   1.531   1.573  0.1446  0.1259  0.1236
 8301W        W21715   1.759  16.192  13.556 -0.2265  0.1765  0.0933
 8302W        W21716  15.882   1.193   6.019 -0.0169  0.3015  0.1267
 8303W        W21717   9.781  10.183  12.908 -0.4881 -0.3528  0.1302
 8304W        W21718   9.764   3.587   3.171 -0.1377  0.2438 -0.5256
 8305W        W21719  16.144  16.830   6.763  0.0047  0.0612 -0.2098
 8306W        W21720   3.176  10.625   4.677 -0.0212  0.0184  0.0206
 8307W        W21721  11.365   4.354   4.946 -0.0971  0.0600  0.1549
 8308W        W21722   1.095  14.660   5.581  0.0377 -0.1505  0.0760
 8309W        W21723   6.775   6.085  12.445 -0.1081  0.0018 -0.0471
 8310W        W21724  16.538   2.157   4.066 -0.0041  0.2331  0.3577
 8311W        W21725   3.567  17.541   4.302  0.2519  0.0480  0.1432
 8312W        W21726   5.854   9.727  11.806 -0.6291  0.4121  0.1568
 8313W        W21727   1.281  17.346   6.425  0.2697  0.0030 -0.0907
 8314W        W21728   1.044   8.348  10.820  0.1022 -0.0857 -0.0039
 8315W        W21729   4.200  14.541   5.991  0.2898  0.1669 -0.2508
 8316W        W21730  14.494   5.557  16.043 -0.3088 -0.0578 -0.1081
 8317W        W21731  16.233  16.007   5.941 -0.0562 -0.0581  0.2471
 8318W        W21732  16.213  15.526  16.222 -0.1504 -0.3795  0.0557
 8319W        W21733   6.681   4.570  15.049  0.1677  0.2879  0.3237
 8320W        W21734  14.856  14.901  11.584 -0.3097  0.2732 -0.0715
 8321W        W21735   0.192  12.224  15.486 -0.0894 -0.1510  0.2215
 8322W        W21736  15.325  10.222   5.004 -0.3076 -0.0438  0.1408
 8323W        W21737  17.069  15.128  15.284  0.1474 -0.0717  0.0768
 8324W        W21738   6.695   3.354  12.379 -0.0339  0.2221  0.0189
 8325W        W21739  14.310   4.595   3.809 -0.2968  0.0783 -0.2417
 8326W        W21740  15.709   4.061   4.809  0.0455  0.1852  0.0883
 8327W        W21741   6.748   8.988   2.549 -0.1869 -0.3302  0.2249
 8328W        W21742  11.619   6.683   0.983 -0.0486 -0.0956  0.0919
 8329W        W21743  13.349  13.144   4.228 -0.1841  0.0894  0.0238
 8330W        W21744   5.618   2.406   3.079  0.0934  0.2859  0.2016
 8331W        W21745   9.928   9.785  11.390 -0.2848  0.1891 -0.1976
 8332W        W21746   1.674  10.004  13.826 -0.2430 -0.0418  0.0048
 8333W        W21747  16.309  14.024  14.578  0.1301 -0.1075 -0.4392
 8334W        W21748   7.153  18.018  15.132  0.3929 -0.1425  0.0305
 8335W        W21749   7.506  12.765   1.788  0.3209 -0.1544  0.1381
 8336W        W21750  15.919  18.280   0.338 -0.0892  0.0666  0.1554
 8337W        W21751   2.743  15.402  14.940  0.2969 -0.1140  0.2275
 8338W        W21752   1.148  13.967  13.087 -0.1055 -0.1410 -0.1409
 8339W        W21753  11.829   4.125   1.489 -0.0979 -0.1017  0.0619
 8340W        W21754   1.228   5.750   5.430 -0.0665  0.1688  0.0033
 8341W        W21755   9.271   0.273   4.185  0.6052 -0.0222  0.0590
 8342W        W21756  12.228  17.723   5.000 -0.0685 -0.1586 -0.1910
 8343W        W21757   5.045   8.824  13.587  0.0602 -0.3777  0.3531
 8344W        W21758  12.248   8.670  12.380  0.0997 -0.2327  0.0511
 8345W        W21759   6.794  17.621   2.726  0.2151  0.2267 -0.0999
 8346W        W21760  10.380  13.576   2.005  0.2257 -0.0116 -0.0341
 8347W        W21761  14.247   0.494   1.801  0.1102  0.2114  0.0271
 8348W        W21762   4.990   5.217   3.236 -0.1268 -0.1461  0.1475
 8349W        W21763   6.123   3.155   2.001 -0.2147 -0.0573  0.0641
 8350W        W21764  17.182  15.713  14.703  0.1568  0.1357  0.1372
 8351W        W21765   7.772   7.121  14.376 -0.2255  0.0737  0.0502
 8352W        W21766  16.648   6.490  10.562 -0.0370  0.4130 -0.1419
 8353W        W21767   4.188   5.761  13.470  0.0222 -0.2813  0.1802
 8354W        W21768   4.158  14.228   4.268 -0.1588 -0.0765  0.3859
 8355W        W21769  17.294   4.916  14.507  0.0395 -0.0814 -0.4118
 8356W        W21770   6.449  10.546  10.841 -0.0813 -0.1412 -0.1719
 8357W        W21771  17.910  15.102   4.959  0.1230 -0.2400 -0.0213
 8358W        W21772  10.782  17.785  14.547  0.3292 -0.1952  0.1323
 8359W        W21773   3.635   9.057   2.510  0.3216 -0.0547  0.0866
 8360W        W21774  14.117   3.307  14.558  0.4583 -0.0005 -0.0320
 8361W        W21775  16.015  13.051   2.262  0.1302 -0.1819 -0.0741
 8362W        W21776   8.755   0.395   4.061  0.2910 -0.3560  0.2599
 8363W        W21777  15.211   1.366   2.741 -0.0463  0.0868 -0.0756
 8364W        W21778  17.094  12.718   6.381  0.1457  0.1087  0.4146
 8365W        W21779  10.774   4.086   4.015 -0.3923 -0.3021 -0.1367
 8366W        W21780   6.181   3.183  15.577 -0.3113 -0.0449 -0.0680
 8367W        W21781  15.400   3.718   3.084 -0.3119 -0.2540  0.0857
 8368W        W21782   7.361  13.746   2.636  0.0642  0.0793  0.0510
 8369W        W21783   1.685   9.046   1.738  0.0761  0.0684 -0.2076
 8370W        W21784   0.423   9.346  15.612  0.1894 -0.2673 -0.2195
 8371W        W21785  14.830  16.415   4.611 -0.0030 -0.0673  0.1257
 8372W        W21786  11.337  13.519   1.878 -0.0580 -0.0497 -0.0574
 8373W        W21787   9.666  11.187   2.696 -0.3078 -0.0207  0.2771
 8374W        W21788  10.595   1.763   0.060 -0.0886 -0.0905 -0.2112
 8375W        W21789   1.374  12.390  11.121 -0.2133  0.0977 -0.2481
 8376W        W21790  11.057   6.164   1.179  0.0212  0.0162  0.1798
 8377W        W21791   9.651  10.982   3.747  0.2572  0.0062  0.1335
 8378W        W21792  17.085  13.689  10.787  0.0553  0.0619  0.0659
 8379W        W21793   7.665  16.475  10.869 -0.3484  0.3236  0.0254
 8380W        W21794   3.335  16.757   3.323 -0.2012  0.0100  0.0823
 8381W        W21795  11.629   7.625  10.493  0.2512  0.5288 -0.0739
 8382W        W21796   8.532  13.091  11.722 -0.1308 -0.1371  0.0072
 8383W        W21797   6.546   5.497  13.967 -0.2067 -0.1463 -0.0909
 8384W        W21798   3.654   8.774  13.538 -0.3997  0.2079 -0.1031
 8385W        W21799   5.718   1.787   0.748 -0.5124  0.0350 -0.2148
 8386W        W21800  13.037  15.947   2.415 -0.1792 -0.1922 -0.0864
 8387W        W21801  17.263  14.470  13.171 -0.2183  0.0568 -0.1652
 8388W        W21802   6.411  12.149   4.014 -0.0048 -0.0517  0.1284
 8389W        W21803   2.921  17.242   6.229 -0.1748  0.0043 -0.1801
 8390W        W21804  12.289   7.689   5.370  0.2354 -0.0760 -0.2266
 8391W        W21805   5.736  13.097   2.509 -0.3671  0.2044 -0.2636
 8392W        W21806   0.384  11.086   2.327  0.0751 -0.0045 -0.0063
 8393W        W21807   0.802  13.525   3.174  0.0673  0.2752 -0.0308
 8394W        W21808   2.547  12.725  13.146  0.0462  0.1274 -0.0027
 8395W        W21809   0.641   7.801   3.136  0.0699  0.0870  0.2757
 8396W        W21810  16.861  14.968  15.676 -0.1466  0.0625  0.1475
 8397W        W21811  10.616  17.828   2.812 -0.3578 -0.3576 -0.3098
 8398W        W21812  13.014   7.836  13.419 -0.4671  0.2950 -0.0445
 8399W        W21813  13.561   7.286  10.766 -0.0779  0.0734 -0.0696
 8400W        W21814  11.159   5.261  10.844  0.0669  0.1594  0.1297
 8401W        W21815  17.452  17.352  11.880  0.0991  0.0330  0.0324
 8402W        W21816  17.477  16.164   5.209 -0.1213  0.0843  0.4325
 8403W        W21817   7.406  14.414   3.774 -0.0411 -0.0957 -0.3666
 8404W        W21818  16.378  13.072  12.896 -0.1598 -0.1372  0.0438
 8405W        W21819  12.522  18.384   0.811 -0.2069  0.4385 -0.1537
 8406W        W21820   6.674   7.798   1.779  0.2091 -0.1024 -0.5081
 8407W        W21821   5.245  16.236   2.768 -0.0131  0.2570  0.0273
 8408W        W21822   7.392   8.252   3.350 -0.0603  0.3153 -0.0430
 8409W        W21823  13.907   7.278   5.456  0.3392  0.1340  0.1613
 8410W        W21824  12.893  17.832   0.219  0.0298 -0.0856 -0.0137
 8411W        W21825  13.047  15.619  15.418 -0.1357 -0.1943 -0.3449
 8412W        W21826  13.220   3.076  11.231  0.0086 -0.2107 -0.2330
 8413W        W21827  13.525   6.410   1.771 -0.1368  0.2642 -0.0177
 8414W        W21828   3.378   9.936   3.849  0.1992 -0.3016  0.1438
 8415W        W21829  17.830  17.916  15.598  0.0580  0.4058  0.1761
 8416W        W21830   0.639  13.301  13.997  0.0040 -0.0041  0.2865
 8417W        W21831   2.377  17.866  13.081  0.2008 -0.0565 -0.0850
 8418W        W21832   3.447   9.601   4.735  0.0164  0.0937 -0.0728
 8419W        W21833   1.793  11.358  13.271 -0.1211 -0.1870 -0.1471
 8420W        W21834   1.592   0.838  15.311  0.0883  0.1431  0.1711
 8421W        W21835   9.420  15.067  13.615 -0.2350  0.0875  0.0270
 8422W        W21836   1.998  12.503   2.841  0.0542 -0.0326  0.1252
 8423W        W21837   0.029  18.105   3.905 -0.5093  0.1088 -0.0883
 8424W        W21838   9.740   0.434  11.932  0.1204 -0.0492 -0.1276
 8425W        W21839   2.104   5.255  12.279 -0.0498 -0.1435  0.0071
 8426W        W21840   6.557  13.988  11.606 -0.1009 -0.4210 -0.1961
 8427W        W21841  11.777  13.440  11.921 -0.1090  0.0157  0.0381
 8428W        W21842   7.829   1.383   1.115 -0.0827  0.1428 -0.0885
 8429W        W21843   3.748   5.602  13.773  0.0050  0.2932  0.1626
 8430W        W21844   8.679   5.836   3.764  0.1810  0.0603  0.0340
 8431W        W21845  17.226   8.900  13.249  0.0153  0.0639  0.0997
 8432W        W21846  10.845  10.372  11.005 -0.0704 -0.0137 -0.2691
 8433W        W21847   3.874   3.231   5.604 -0.0889  0.1360  0.1722
 8434W        W21848   4.859  17.149   4.027 -0.1467  0.2225 -0.0215
 8435W        W21849   2.645  15.781   2.096 -0.1884 -0.2019  0.1470
 8436W        W21850   1.182  15.193  16.131  0.0379 -0.2077 -0.2790
 8437W        W21851  11.521  14.963  15.771 -0.0947 -0.0863 -0.1075
 8438W        W21852   0.696  13.416  16.249 -0.0182  0.3286 -0.0778
 8439W        W21853  17.007  16.810   5.781 -0.5010  0.1335  0.0526
 8440W        W21854  15.183  13.432   1.498 -0.0990 -0.1140  0.0280
 8441W        W21855  16.908  16.980   4.852  0.0741 -0.1139 -0.3640
 8442W        W21856  16.174  11.686  14.504  0.3899 -0.0838 -0.4086
 8443W        W21857   0.728  14.344  12.120  0.1443 -0.2271 -0.0778
 8444W        W21858   6.858  12.533   1.331  0.0159  0.0628  0.0425
 8445W        W21859   6.853   6.614  13.822 -0.0240  0.1223 -0.0317
 8446W        W21860  17.559  16.819   5.808 -0.1099  0.0081 -0.0650
 8447W        W21861   8.597   4.922  11.130 -0.2024 -0.0890  0.0659
 8448W        W21862   5.704   5.708  12.982  0.0320 -0.0989  0.0820
 8449W        W21863   6.504   9.648  12.578  0.1087 -0.0762 -0.1203
 8450W        W21864  13.736  10.832   2.944 -0.0209  0.2219  0.0578
 8451W        W21865   9.553  16.059  11.270 -0.0130 -0.0510  0.0196
 8452W        W21866   0.008   5.466   0.041 -0.1107  0.0834  0.6082
 8453W        W21867  14.850   4.438  14.634 -0.0111  0.2718  0.2868
 8454W        W21868  13.332   6.588   5.773 -0.2889 -0.3022  0.3665
 8455W        W21869   8.187  11.889  14.430  0.2470 -0.0995  0.1968
 8456W        W21870   6.356   3.915  16.452 -0.0946  0.0275  0.3344
 8457W        W21871   1.830  15.160   3.848  0.0774 -0.2185  0.1599
 8458W        W21872  11.472   8.612  11.966 -0.0088  0.3377  0.4109
 8459W        W21873   6.851   4.076  14.856  0.2307 -0.0846  0.1641
 8460W        W21874   6.450  13.890   5.537  0.2526 -0.1009  0.1318
 8461W        W21875   0.775  14.847   5.226  0.2999 -0.0808  0.2114
 8462W        W21876   6.851  17.629   1.706 -0.1784 -0.3446  0.2651
 8463W        W21877  10.085   6.597   0.409  0.1811  0.3048 -0.0386
 8464W        W21878  17.067   1.469  14.431  0.3648 -0.1106  0.1775
 8465W        W21879  14.574   9.856  11.321 -0.1197  0.0765 -0.4552
 8466W        W21880   9.541   4.073  14.052  0.0790  0.0246  0.1447
 8467W        W21881   0.167  15.646  13.736  0.0856  0.1500 -0.3034
 8468W        W21882   8.084   1.515  16.148  0.2397 -0.2582  0.0660
 8469W        W21883   4.356  13.176  15.221  0.2449  0.1951  0.3875
 8470W        W21884   3.264   5.596  15.508  0.2230 -0.2213 -0.1365
 8471W        W21885  14.673  10.409   3.080 -0.0567 -0.4261  0.0869
 8472W        W21886   7.968  10.521  13.852 -0.4524  0.1993 -0.1828
 8473W        W21887   1.783  16.651   4.115 -0.1446  0.0687 -0.2296
 8474W        W21888   1.569   0.539  12.469 -0.1946 -0.0551  0.1522
 8475W        W21889   5.735   0.439  16.117  0.2060  0.0047  0.1641
 8476W        W21890   2.092  15.214   1.730  0.0322 -0.2208  0.1672
 8477W        W21891   7.478  12.062  15.645 -0.2017  0.0738  0.1036
 8478W        W21892  15.476  14.538   0.499  0.0419 -0.1971 -0.2326
 8479W        W21893   8.808  12.716   2.274 -0.1720  0.2699 -0.3279
 8480W        W21894   1.412   7.347  10.672 -0.0489 -0.1562 -0.2722
 8481W        W21895   2.045  15.909  14.870 -0.0602  0.1533  0.0586
 8482W        W21896  15.563  11.738  14.320 -0.0823  0.1526  0.0014
 8483W        W21897  10.798   4.443  10.767 -0.0769  0.0701  0.1674
 8484W        W21898   0.515  14.947   5.948 -0.3986 -0.3863 -0.3460
 8485W        W21899  15.915   3.889   3.135 -0.1440  0.0865 -0.0224
 8486W        W21900   8.824   5.306  12.843  0.0140  0.0563  0.0947
 8487W        W21901  13.794  16.741  10.384  0.1272  0.2246 -0.2716
 8488W        W21902  13.551  11.556  11.714 -0.0720 -0.0586  0.3140
 8489W        W21903   6.629   9.285  15.291  0.2959 -0.0040 -0.1586
 8490W        W21904   1.248   0.175  14.286 -0.2618  0.0002  0.1526
 8491W        W21905  14.270   3.092   2.718  0.2498 -0.2170  0.2516
 8492W        W21906  15.307   5.891   4.665  0.1493 -0.0958  0.0361
 8493W        W21907   9.440  11.499  12.902 -0.2400  0.1770  0.1958
 8494W        W21908   3.226  14.094  12.245  0.1785 -0.0351  0.0313
 8495W        W21909   0.621  14.947   3.531  0.0643 -0.0019  0.0560
 8496W        W21910  12.939  15.683   1.978 -0.1085  0.3742  0.1624
 8497W        W21911   4.843  15.853  15.434  0.4796  0.2929 -0.2868
 8498W        W21912  11.041   4.691  13.873  0.1123  0.1276 -0.4526
 8499W        W21913  10.488  17.653  11.489 -0.2307 -0.1450 -0.0615
 8500W        W21914  10.419  10.816  14.811 -0.1246  0.5817 -0.1803
 8501W        W21915  16.838   6.732  13.847 -0.0354 -0.1537  0.1116
 8502W        W21916  16.693   0.928   4.883  0.0615  0.1072  0.0751
 8503W        W21917  16.658  16.768   0.679  0.1323 -0.0061  0.1262
 8504W        W21918  17.111   3.276  14.026 -0.0424 -0.0830 -0.6171
 8505W        W21919   6.309  16.262   3.693 -0.1052 -0.1351 -0.2039
 8506W        W21920  13.869   0.258  14.638 -0.0020 -0.4182 -0.1944
 8507W        W21921  16.528  10.051  14.614  0.0041  0.1147  0.2997
 8508W        W21922   7.908   2.927  11.360 -0.1163 -0.0290  0.2869
 8509W        W21923  14.539  15.799   2.012  0.1298 -0.2322 -0.0410
 8510W        W21924  12.831  15.589   3.374 -0.2092 -0.0641  0.0218
 8511W        W21925   2.237   2.341  14.077 -0.0754  0.3275 -0.3987
 8512W        W21926  17.344   2.564  11.848 -0.0082 -0.1028 -0.2147
 8513W        W21927  13.784  11.160  15.988 -0.0334 -0.3136  0.1881
 8514W        W21928   0.694   1.439   3.277  0.0380  0.1879  0.0302
 8515W        W21929  16.549   8.672   9.946  0.1934  0.0214  0.0997
 8516W        W21930   6.578   0.312   2.916 -0.0974  0.0010 -0.2815
 8517W        W21931  18.253  16.020   3.525 -0.1928  0.3474  0.2853
 8518W        W21932   1.521  13.746   2.993  0.2335 -0.1088 -0.3176
 8519W        W21933  18.102  16.052  15.097  0.2729 -0.3550  0.0738
 8520W        W21934  12.840   9.740  10.389  0.2837  0.2133  0.1729
 8521W        W21935  11.614   1.066  15.716 -0.2804  0.2790 -0.3168
 8522W        W21936   4.316  17.210   0.241 -0.1846 -0.0168 -0.2673
 8523W        W21937  14.161   7.777   5.285 -0.0255  0.1203 -0.1316
 8524W        W21938   3.445  12.916   3.705 -0.2704  0.0176  0.0331
 8525W        W21939  16.566   7.785   0.497  0.0688 -0.1362  0.1338
 8526W        W21940  12.822   0.214   2.736 -0.1156  0.0557 -0.1003
 8527W        W21941   4.309   4.496  10.136  0.0738 -0.1615  0.0162
 8528W        W21942  18.345   6.494  11.998 -0.0677 -0.2764  0.3155
 8529W        W21943  12.539  10.046   3.927  0.0598 -0.3345  0.1131
 8530W        W21944   0.376   8.136  11.182 -0.0140  0.1046 -0.1365
 8531W        W21945   6.525   8.662  14.552  0.2047  0.0913  0.0220
 8532W        W21946   5.265   1.392  14.427  0.1820  0.1059 -0.0229
 8533W        W21947   3.288   0.549   3.960  0.2039 -0.1330 -0.2125
 8534W        W21948  13.498   2.034  11.181  0.1748  0.1034 -0.0564
 8535W        W21949   7.018  15.640   3.532  0.2810  0.2008 -0.0870
 8536W        W21950  17.130  11.589   3.891 -0.2212  0.0611 -0.1862
 8537W        W21951  16.145   9.798   9.905  0.0441 -0.0062  0.2408
 8538W        W21952   4.938   8.258  10.207  0.1115  0.0538 -0.0101
 8539W        W21953   5.102  13.760  13.743  0.0744 -0.0360 -0.0829
 8540W        W21954  15.100  14.896   3.875  0.3965  0.1341 -0.0073
 8541W        W21955  17.836   0.499   3.842  0.2398  0.0057 -0.1027
 8542W        W21956   2.229   3.723  14.621  0.0667 -0.2705  0.3008
 8543W        W21957   5.323  10.737  12.789  0.2896  0.0256 -0.0910
 8544W        W21958   1.044   9.174   6.154  0.1388 -0.3879  0.0653
 8545W        W21959   3.259   7.093   0.557  0.4433 -0.2588  0.2125
 8546W        W21960   6.968   2.710  11.974  0.3038 -0.0225 -0.2221
 8547W        W21961   6.437  17.849  13.321  0.2883 -0.1467  0.0937
 8548W        W21962   9.264   4.639  13.787 -0.0531  0.1236  0.5513
 8549W        W21963   1.760  10.140   4.842 -0.0274 -0.1405 -0.0277
 8550W        W21964   4.791  12.688   1.621  0.0423 -0.1258 -0.3759
 8551W        W21965  10.648   9.866   5.018  0.0749  0.0289 -0.0819
 8552W        W21966   6.424   0.478  15.419 -0.0829 -0.0739 -0.0829
 8553W        W21967  14.460  16.481  12.042 -0.0956  0.3915 -0.0065
 8554W        W21968  15.842  17.492  15.874  0.1160  0.2356 -0.0537
 8555W        W21969   6.795  18.160   1.864 -0.1794  0.0331 -0.0742
 8556W        W21970  11.301   7.922   9.686 -0.1418 -0.0516 -0.0760
 8557W        W21971   8.154   4.470   2.108  0.0339  0.0573  0.3169
 8558W        W21972   3.778   9.484  14.585 -0.1945 -0.0693 -0.0699
 8559W        W21973  14.038  12.636  10.504  0.0182  0.0663 -0.3606
 8560W        W21974   4.385   1.187  11.421 -0.2405  0.0544  0.0104
 8561W        W21975   2.613   4.735   0.851  0.0491 -0.0880  0.2701
 8562W        W21976   1.426  15.680   2.811 -0.1091  0.2800 -0.0282
 8563W        W21977   3.610   3.306   0.917 -0.1344  0.2577  0.1713
 8564W        W21978   0.613  15.700  12.276  0.2055 -0.0360  0.0576
 8565W        W21979   8.609   5.457   5.179 -0.1125  0.1177  0.2422
 8566W        W21980   1.071   4.827  13.947  0.1155  0.2786 -0.1126
 8567W        W21981   5.899  12.001   0.968 -0.3885 -0.1343 -0.1058
 8568W        W21982  11.400   4.979  14.110  0.0882 -0.1619 -0.0637
 8569W        W21983  10.214  16.016  10.446  0.2897 -0.1267  0.1626
 8570W        W21984  16.843  15.101  14.230 -0.1027 -0.0428  0.0878
 8571W        W21985  17.317  11.684  15.073  0.1469  0.0213  0.1377
 8572W        W21986  16.501  13.815   6.313 -0.0709  0.2807 -0.1363
 8573W        W21987  12.259   2.469   2.912 -0.1572  0.1067 -0.0368
 8574W        W21988  17.216  14.373  15.895  0.4112  0.0412  0.0620
 8575W        W21989  11.365  15.776   3.446  0.0857  0.1254  0.1685
 8576W        W21990   8.672   4.817  13.072  0.2431 -0.1273 -0.2131
 8577W        W21991  16.480  13.121   3.506  0.1733 -0.1664  0.0578
 8578W        W21992   3.741  18.192  10.980 -0.0653 -0.0112 -0.1187
 8579W        W21993   6.495   5.641  12.497 -0.0710  0.0173  0.0741
 8580W        W21994  10.093   2.929  14.344  0.0718  0.2253 -0.1946
 8581W        W21995   5.421   7.245  12.763  0.1248 -0.0725 -0.3816
 8582W        W21996  11.374   0.908   2.774  0.1459 -0.0385  0.2309
 8583W        W21997   7.986  17.947  15.305 -0.1083 -0.2189  0.0749
 8584W        W21998  10.485  10.919  15.827 -0.0338  0.0440  0.0287
 8585W        W21999   9.795  17.568   3.008 -0.0167  0.2636 -0.1025
 8586W        W22000   2.516   5.092  15.833 -0.0776  0.2676 -0.0398
 8587W        W22001   1.921   8.668   2.450  0.2959  0.0785  0.2751
 8588W        W22002   7.966  10.981  15.864 -0.0180 -0.1660 -0.1625
 8589W        W22003   6.221  11.077   4.498  0.3154 -0.1780 -0.0244
 8590W        W22004   6.442  11.590   4.294 -0.3118 -0.1634  0.2207
 8591W        W22005  17.267  17.276   7.265  0.1117  0.1949 -0.1367
 8592W        W22006  16.231  16.922   1.498 -0.2725 -0.1501 -0.2067
 8593W        W22007   2.049  17.402  11.829 -0.3215 -0.2059 -0.2284
 8594W        W22008   9.255  12.985   1.500 -0.1683 -0.1389  0.2155
 8595W        W22009   5.661   0.129   2.555 -0.1844 -0.3477 -0.2365
 8596W        W22010   3.432  12.122   5.261  0.0135 -0.0799  0.1060
 8597W        W22011   3.160   8.316  12.457 -0.0721  0.1386 -0.1289
 8598W        W22012  18.307  10.665  13.238  0.2090  0.1068  0.0224
 8599W        W22013   7.778  15.018  10.807 -0.0509  0.0896  0.2229
 8600W        W22014   7.605   9.638   2.054  0.2202  0.1732  0.1996
 8601W        W22015   6.191  13.517  13.552 -0.2151  0.1113 -0.1407
 8602W        W22016  18.109  12.225   4.541  0.0283  0.0114  0.2357
 8603W        W22017   7.348  16.394   4.929  0.2736  0.2343 -0.1793
 8604W        W22018  17.667  15.324  12.068 -0.1860 -0.1701  0.1202
 8605W        W22019   9.736   1.144  11.162  0.5199 -0.1341 -0.3446
 8606W        W22020  12.137   2.229  15.327  0.0352  0.2157  0.2039
 8607W        W22021  15.264  11.165   0.585 -0.2098  0.0047 -0.2776
 8608W        W22022   6.196   8.258  13.546  0.1461 -0.0036 -0.3087
 8609W        W22023   6.063   0.084  12.105  0.1664 -0.0322 -0.1074
 8610W        W22024  11.056   5.522   3.921 -0.1122 -0.1534 -0.0139
 8611W        W22025  10.043   9.984  10.817  0.0376 -0.0094 -0.1281
 8612W        W22026   9.241   4.749   2.644 -0.0602 -0.4210 -0.1279
 8613W        W22027  17.721  12.877   3.350 -0.1932  0.5068 -0.0498
 8614W        W22028  14.412  15.278  14.470 -0.4042  0.4039 -0.1122
 8615W        W22029   7.222  14.708  13.577  0.0120  0.1388  0.1791
 8616W        W22030  16.457  10.967   4.939  0.0962  0.0468 -0.1385
 8617W        W22031  13.815  18.204   4.864 -0.0563 -0.0361 -0.0712
 8618W        W22032  14.629  11.884  11.385 -0.1455  0.0872  0.1630
 8619W        W22033   5.187   3.293  13.366 -0.2507 -0.2684  0.3130
 8620W        W22034  15.636   8.009   3.181  0.1166 -0.1683  0.3734
 8621W        W22035  17.813   2.494   2.387 -0.2817  0.3397  0.1807
 8622W        W22036  16.373  13.168   5.640 -0.0097  0.0117  0.0985
 8623W        W22037   1.304  15.497  13.913 -0.1753 -0.1343  0.1738
 8624W        W22038   5.913  15.665  10.948  0.0733 -0.0841 -0.2117
 8625W        W22039   6.978  14.519  14.678 -0.2422 -0.1564  0.1196
 8626W        W22040  10.448  17.904  12.363 -0.1221 -0.1084 -0.4759
 8627W        W22041   1.238   0.913   1.191 -0.3164  0.1091  0.1345
 8628W        W22042  14.067   7.369  14.458  0.0495 -0.1105  0.1821
 8629W        W22043   3.194   7.776   4.822 -0.2839  0.0407 -0.0559
 8630W        W22044   8.068  16.934   1.886  0.1737 -0.1061 -0.2337
 8631W        W22045   4.962  14.021  14.177 -0.1106 -0.0922  0.2500
 8632W        W22046   1.478   0.083  11.571  0.2550 -0.1445 -0.1552
 8633W        W22047  14.327  17.601  13.894 -0.1254 -0.1127 -0.0105
 8634W        W22048  14.096  12.105   0.692 -0.1974  0.0432  0.1808
 8635W        W22049  10.306   7.561   3.249  0.1828 -0.3817  0.0951
 8636W        W22050  15.638  17.607  11.390  0.1564  0.1887 -0.1081
 8637W        W22051   5.048   8.308   5.837 -0.0507 -0.1325  0.1974
 8638W        W22052  16.324   1.326  14.088 -0.0493  0.0870  0.0815
 8639W        W22053  14.796   7.688  13.179  0.1858  0.0401 -0.1805
 8640W        W22054  15.780   2.685   3.125  0.1149  0.1752 -0.0799
 8641W        W22055  15.618  12.189  12.778 -0.2214 -0.0445 -0.1870
 8642W        W22056   7.914  16.004   1.585 -0.1542 -0.1009 -0.2188
 8643W        W22057  17.178  15.087   4.547 -0.0359  0.0373 -0.0883
 8644W        W22058   7.539   7.186   6.449  0.1906  0.2411  0.1910
 8645W        W22059   2.965  14.363   2.742  0.0506  0.0399  0.1349
 8646W        W22060   8.958  17.025  10.858  0.1543 -0.3460  0.2613
 8647W        W22061   8.156  14.050  15.943 -0.1046 -0.0894  0.2980
 8648W        W22062   4.784  10.839   6.206  0.3536 -0.0419 -0.1160
 8649W        W22063  10.355  12.784   3.356  0.1763 -0.2782 -0.1399
 8650W        W22064   4.999   9.640   3.599  0.1854 -0.0507 -0.0112
 8651W        W22065   2.079   3.256  11.991  0.1862 -0.1252 -0.1298
 8652W        W22066  16.108  17.326  11.495 -0.3151  0.0317 -0.0934
 8653W        W22067   1.103  10.838  10.697 -0.2924 -0.0652  0.0972
 8654W        W22068   3.567  15.653   0.005  0.3256  0.2259 -0.2912
 8655W        W22069  17.039   5.747  13.352 -0.0692 -0.0375 -0.1787
 8656W        W22070   5.315   1.136  13.962  0.2656  0.2604 -0.0320
 8657W        W22071   9.582   7.024  16.439  0.1657  0.2472  0.1386
 8658W        W22072  12.861   3.701   2.824  0.1583  0.2177 -0.1103
 8659W        W22073   9.991   2.264   2.942 -0.1272  0.1131  0.0371
 8660W        W22074   4.322  16.763  13.312  0.0985 -0.0904  0.0645
 8661W        W22075  16.788   7.458  12.443  0.1354 -0.3143  0.1192
 8662W        W22076  17.069  15.057   5.463 -0.1907  0.2042 -0.1805
 8663W        W22077   4.395   8.389  14.675 -0.1408 -0.3998 -0.1318
 8664W        W22078  10.408   4.984  13.900  0.2336  0.2390 -0.1415
 8665W        W22079  16.819  13.618   4.311  0.1968  0.0795  0.0631
 8666W        W22080  17.952   6.986  10.626  0.0054  0.2535 -0.1709
 8667W        W22081   9.423  15.191  11.956 -0.1500 -0.0013 -0.0004
 8668W        W22082   6.001  12.787  12.552 -0.0580  0.0968  0.4280
 8669W        W22083   6.742  10.347  10.020 -0.0607  0.2178  0.3521
 8670W        W22084   4.237   3.293  12.574 -0.0146 -0.0712 -0.0644
 8671W        W22085   8.004  12.786   1.274  0.2368 -0.0477 -0.2644
 8672W        W22086   8.472   7.567   3.699  0.0331  0.2745  0.2112
 8673W        W22087   7.579   3.745   4.064  0.2573 -0.0591  0.3278
 8674W        W22088   6.003   2.300   5.062  0.1618  0.2578  0.1753
 8675W        W22089   8.643   4.494   1.357 -0.0566 -0.0269 -0.3055
 8676W        W22090   4.816  16.759   2.656  0.1961  0.1178 -0.2241
 8677W        W22091  11.784   5.160   0.193 -0.2640  0.0474 -0.0534
 8678W        W22092  18.282  15.180   3.860  0.0067 -0.2924  0.0267
 8679W        W22093  17.738   1.546   1.559 -0.0283  0.3418  0.1434
 8680W        W22094  16.597   3.193  15.588 -0.0514  0.1474 -0.0618
 8681W        W22095   1.398   1.225   0.214  0.2344  0.2342 -0.0965
 8682W        W22096   6.438  13.660   5.067  0.2370 -0.0145  0.2941
 8683W        W22097   5.253   1.603   3.324 -0.3666  0.0907  0.0860
 8684W        W22098   1.513   4.006  14.260 -0.1342  0.2510  0.0650
 8685W        W22099   0.952  16.175   3.671  0.1188 -0.0963  0.0962
 8686W        W22100  11.448   1.015   4.428 -0.2725 -0.4677  0.2625
 8687W        W22101  12.109   5.964   2.962  0.1381  0.0735  0.1130
 8688W        W22102  17.632   7.097  14.144  0.1538 -0.1936  0.1270
 8689W        W22103   2.653   7.726   4.198  0.0785 -0.2522  0.0104
 8690W        W22104  14.422  11.154   0.551 -0.2868 -0.1322 -0.0538
 8691W        W22105   7.184   0.363  12.561  0.1462  0.0715  0.1690
 8692W        W22106  14.058   9.907  11.378  0.0087  0.1421 -0.0377
 8693W        W22107  12.077   2.867  10.292  0.0715  0.0605  0.3450
 8694W        W22108  14.011   6.652  16.117  0.0318 -0.3450  0.2204
 8695W        W22109   2.982  17.688  11.100  0.1650  0.1090 -0.1083
 8696W        W22110  11.972   7.375   2.529 -0.4073  0.0122 -0.0181
 8697W        W22111   7.498  17.378  13.610  0.2773 -0.0743  0.0556
 8698W        W22112  12.983  18.042  13.686 -0.0545  0.3528 -0.1067
 8699W        W22113   0.632   9.907   3.935  0.1214 -0.2983 -0.5914
 8700W        W22114  18.018  14.254  14.932  0.0666 -0.3484  0.2183
 8701W        W22115   2.666   1.711  11.617 -0.1711 -0.1664  0.4994
 8702W        W22116  11.535  15.023  12.263  0.1370  0.2547  0.0096
 8703W        W22117  12.803  11.543   2.111  0.0249  0.0274 -0.0748
 8704W        W22118   9.692  18.223  13.460  0.0062 -0.0365  0.2702
 8705W        W22119   6.186  14.424   6.902  0.1572  0.2326  0.0221
 8706W        W22120  13.969   5.444  10.754  0.2527 -0.0429  0.4099
 8707W        W22121   5.611  16.903  14.469  0.1546 -0.2242  0.0335
 8708W        W22122   5.407   3.820  16.466  0.4186  0.2827 -0.2058
 8709W        W22123  13.286   5.293  12.631  0.2442 -0.0690 -0.0210
 8710W        W22124   7.040  14.608  10.333  0.1950  0.1291  0.0218
 8711W        W22125   7.846  12.808   0.388  0.2037  0.1069  0.3504
 8712W        W22126  10.244   3.252   5.354 -0.0689 -0.2016 -0.1264
 8713W        W22127   4.448   7.445  11.453  0.1392 -0.0787  0.1813
 8714W        W22128   3.051  15.867  15.878 -0.1027  0.4069 -0.0650
 8715W        W22129  14.095  13.159  11.850 -0.0148 -0.1650  0.0070
 8716W        W22130  13.609  13.229  15.139  0.0937  0.2201  0.2248
 8717W        W22131  10.441   2.096  13.620 -0.0528 -0.0329  0.2179
 8718W        W22132   1.888  10.079   4.008  0.2745 -0.3191  0.2796
 8719W        W22133   0.685   6.404  10.887 -0.0541  0.1275  0.3121
 8720W        W22134   5.786  12.913   5.474 -0.1458 -0.1183  0.0319
 8721W        W22135   3.719   3.362   0.246  0.0356  0.2786  0.0355
 8722W        W22136   4.546   1.752   2.578 -0.1962  0.0314  0.2680
 8723W        W22137   5.471  11.690   5.399  0.0444 -0.0932 -0.1055
 8724W        W22138  15.324   2.930  16.082 -0.0425  0.2745  0.1544
 8725W        W22139   9.693   6.801   9.926 -0.0313  0.0875 -0.2392
 8726W        W22140   4.627  17.254   5.636  0.0097 -0.0980 -0.1965
 8727W        W22141  13.941   1.252   3.514 -0.0166  0.2127  0.0546
 8728W        W22142  13.651  17.437  15.355  0.0157  0.0579  0.2547
 8729W        W22143  16.503   9.810   2.841 -0.0387  0.0016  0.0805
 8730W        W22144   0.156   8.605   2.472  0.1005  0.2580  0.1873
 8731W        W22145  12.164   2.683   0.553  0.0812  0.0970  0.0850
 8732W        W22146   2.948   5.370   1.530  0.0931  0.0048  0.1483
 8733W        W22147  15.338   3.404   4.113 -0.2305  0.0070 -0.0820
 8734W        W22148  15.104  13.034   4.939  0.1713 -0.0473 -0.0599
 8735W        W22149   4.083   7.917  12.246 -0.0908  0.0746 -0.2262
 8736W        W22150  14.077  10.792   3.986  0.3334  0.2276 -0.1706
 8737W        W22151   7.400   1.109  14.283  0.0111 -0.1371 -0.1194
 8738W        W22152  11.377   0.638  14.168  0.0487 -0.1278 -0.0985
 8739W        W22153   8.531   0.625   1.418 -0.2078  0.2388 -0.0803
 8740W        W22154   1.083   3.875  10.053 -0.0432 -0.0246  0.0404
 8741W        W22155  13.530   5.626  13.699  0.2995  0.0705  0.1674
 8742W        W22156  10.432  10.597   5.332  0.2265  0.1077  0.2214
 8743W        W22157   3.063  11.058  15.592  0.1834 -0.2035  0.1404
 8744W        W22158  12.507   7.728   2.322 -0.1193  0.3531  0.1319
 8745W        W22159   0.135   1.019  12.572 -0.0038 -0.1451  0.1680
 8746W        W22160  10.478   7.360   1.284 -0.0302 -0.2285 -0.0729
 8747W        W22161   1.832  15.418  13.167  0.0415 -0.2828 -0.1317
 8748W        W22162  12.578   9.678  14.564  0.2226 -0.0731 -0.0555
 8749W        W22163   1.902   2.652  15.899  0.0827 -0.0642  0.0388
 8750W        W22164   6.060   1.296   5.071 -0.3705 -0.3304  0.0827
 8751W        W22165   4.377   7.630  15.099  0.2993  0.1491 -0.1937
 8752W        W22166  12.374  16.196  14.994  0.0903 -0.1928  0.2638
 8753W        W22167  17.249  15.073  11.276  0.0851 -0.0817 -0.2789
 8754W        W22168   8.554   5.551  15.535 -0.0743  0.0375 -0.1344
 8755W        W22169  16.255   8.100  13.471  0.0099  0.1261  0.0881
 8756W        W22170   3.135  14.471   2.225 -0.0906 -0.2687 -0.1678
 8757W        W22171   4.826  16.259  15.816  0.3037 -0.1086  0.2341
 8758W        W22172   9.036  15.943   3.917 -0.1761  0.2146  0.1277
 8759W        W22173   9.752   2.659   0.448 -0.0408 -0.2935 -0.1063
 8760W        W22174   6.931  11.111   1.674  0.1247 -0.3794 -0.0057
 8761W        W22175  14.536   0.701   2.508 -0.4582 -0.0549 -0.0637
 8762W        W22176  11.156  13.280   5.626 -0.0779  0.2071  0.1882
 8763W        W22177   5.052  11.354   0.249 -0.1080 -0.0208  0.1337
 8764W        W22178  17.097   6.805   1.254  0.3873  0.0289  0.1294
 8765W        W22179   0.163   7.005  14.451 -0.0024  0.2113  0.3241
 8766W        W22180  11.324   2.857  15.995 -0.2284 -0.2439  0.2179
 8767W        W22181   8.518  12.571  12.433 -0.2248 -0.2462  0.0855
 8768W        W22182  14.545   3.296   3.527 -0.0065 -0.2628 -0.0449
 8769W        W22183  14.727   7.680   4.008 -0.3511 -0.0072  0.0467
 8770W        W22184   1.009   6.512  15.790  0.0959  0.0588  0.0022
 8771W        W22185   6.153   8.212  11.084  0.1326 -0.0537  0.0326
 8772W        W22186   9.424  17.253  14.317  0.0706 -0.0368 -0.0396
 8773W        W22187  10.676   8.705   4.799  0.2238  0.0217 -0.2922
 8774W        W22188  18.245   6.312   3.696 -0.1734  0.1679  0.0307
 8775W        W22189  16.817   0.167   1.098 -0.3457 -0.3559  0.1172
 8776W        W22190   2.680   2.146   0.148  0.2422 -0.3734 -0.1846
 8777W        W22191   4.081  14.545   3.510 -0.2684  0.2477  0.1037
 8778W        W22192   8.807   0.260   1.022  0.0000  0.1621  0.0171
 8779W        W22193   8.654  13.870   3.166 -0.1580 -0.0549  0.2236
 8780W        W22194   2.944  13.319   1.479  0.2869  0.0188 -0.0219
 8781W        W22195  14.919   4.107   5.964  0.1562 -0.2640  0.1996
 8782W        W22196  14.191   4.634  16.360  0.2597 -0.5151 -0.1026
 8783W        W22197   2.114   5.517  14.530 -0.4658 -0.2213 -0.1975
 8784W        W22198  11.178   4.952   0.794 -0.0968  0.0246  0.0578
 8785W        W22199   8.596   2.489   3.246  0.1212 -0.2289  0.0272
 8786W        W22200  12.224  10.794  16.382  0.3188  0.0804 -0.2654
 8787W        W22201  16.501  16.869   5.983 -0.0929 -0.2141 -0.2830
 8788W        W22202   4.282  14.418  14.578 -0.1548  0.0737 -0.3204
 8789W        W22203   8.157   9.111   0.968 -0.2564  0.0294 -0.0396
 8790W        W22204  11.155  14.327   4.288  0.0004 -0.1172  0.0141
 8791W        W22205   9.880   5.907  14.534  0.0891  0.2252  0.1387
 8792W        W22206   6.278   1.771  11.778 -0.1507  0.3251 -0.1150
 8793W        W22207  12.218   4.011   2.801 -0.1841  0.1523 -0.0887
 8794W        W22208  14.954  15.391   5.731  0.0300 -0.3422  0.0217
 8795W        W22209  15.021   3.823  14.752  0.1245 -0.0651 -0.1763
 8796W        W22210  12.863   9.230   0.321  0.0902  0.0607  0.1788
 8797W        W22211   1.522  12.911  11.284 -0.0233 -0.4181 -0.0074
 8798W        W22212  15.317   9.912  14.683  0.0456 -0.0214 -0.1696
 8799W        W22213  16.664   8.437   0.419 -0.3362  0.1565  0.0233
 8800W        W22214  14.778   5.160   5.381 -0.2709  0.1324 -0.3072
 8801W        W22215  12.570   6.862  15.752 -0.2865 -0.0756 -0.0489
 8802W        W22216  14.574   3.429  16.105  0.2589 -0.4917 -0.1759
 8803W        W22217   9.329   1.453   4.324  0.1772  0.0683  0.1156
 8804W        W22218   5.707   2.973  11.092 -0.0858  0.1372 -0.1148
 8805W        W22219  13.565  17.891  10.924  0.0435  0.0903 -0.0919
 8806W        W22220   9.509   1.472   2.956  0.0284 -0.0765 -0.1046
 8807W        W22221   8.209  10.240  14.461  0.0562  0.3072 -0.4001
 8808W        W22222   8.554   8.908   2.783  0.0002 -0.3825 -0.2285
 8809W        W22223  14.174   1.005  13.809  0.0683  0.4284  0.3523
 8810W        W22224   1.832   8.161  10.445 -0.0341 -0.1812 -0.0096
 8811W        W22225  13.395  12.427  11.875  0.0084 -0.0635  0.0622
 8812W        W22226   5.077   4.258   6.382 -0.0586 -0.1478 -0.3013
 8813W        W22227  12.287   4.649  11.620 -0.0260  0.0328  0.1596
 8814W        W22228  18.255  14.169   7.157 -0.1964 -0.1027 -0.1137
 8815W        W22229   2.847   1.853  15.507  0.1153 -0.0614  0.0859
 8816W        W22230  10.937   5.252   5.739  0.2873  0.2679 -0.0805
 8817W        W22231  13.617   2.311  10.727  0.0784  0.1220  0.4518
 8818W        W22232  17.379   4.679   4.131 -0.2302 -0.1220  0.0490
 8819W        W22233  12.121  11.537   0.963  0.0306 -0.1298 -0.4247
 8820W        W22234   4.382   0.642  14.380  0.2568 -0.3607  0.4006
 8821W        W22235   5.007   5.172  12.515  0.1186  0.2156 -0.1302
 8822W        W22236   1.936  11.909  10.284 -0.1125 -0.1415  0.1302
 8823W        W22237  17.711   9.149   4.045 -0.2077 -0.1702  0.0397
 8824W        W22238  11.502  15.919  11.066  0.0504  0.1019  0.3670
 8825W        W22239  15.080   0.708   0.610  0.0777  0.2789 -0.0574
 8826W        W22240   3.788  16.976  15.016 -0.1023 -0.0706 -0.0612
 8827W        W22241  16.084   8.096   2.399  0.4910  0.2520  0.2370
 8828W        W22242   7.355   5.978  13.518  0.0387 -0.2796 -0.0234
 8829W        W22243   8.228  10.801   6.765 -0.3492  0.0568 -0.1924
 8830W        W22244  16.140  11.798   2.956 -0.0898  0.0418 -0.4012
 8831W        W22245   5.836   0.466  13.278  0.0064 -0.1337 -0.0694
 8832W        W22246   0.176  18.121   0.166 -0.1154  0.1921  0.2522
 8833W        W22247   9.972  16.617  12.498 -0.0774  0.0012  0.1982
 8834W        W22248   4.714   7.230  15.011 -0.0134 -0.1070  0.2379
 8835W        W22249   2.554   6.723  11.932 -0.0931  0.2769  0.2234
 8836W        W22250  16.207   9.928   5.173 -0.2943 -0.1432 -0.3280
 8837W        W22251  13.968   6.058   3.146  0.0879 -0.1527  0.5411
 8838W        W22252  13.039  12.747   4.161  0.1471  0.0954  0.1054
 8839W        W22253  13.635   5.871   1.022  0.2465 -0.0774  0.0993
 8840W        W22254  13.359  14.969   4.069  0.2874 -0.0131 -0.1627
 8841W        W22255   1.017  15.636   2.436  0.2168 -0.1819  0.5532
 8842W        W22256   8.563  10.783  13.377 -0.1975 -0.0704  0.4106
 8843W        W22257  11.653  13.451   1.510  0.0130 -0.2660  0.0492
 8844W        W22258  11.310   5.334  13.197 -0.2108  0.0468 -0.0436
 8845W        W22259  14.999  12.387  14.614 -0.0037 -0.3280 -0.0901
 8846W        W22260   5.400   5.034   5.828 -0.0332 -0.0916 -0.1643
 8847W        W22261  16.663  18.025  15.066 -0.1043  0.0966  0.1242
 8848W        W22262  11.471  10.578  10.931 -0.0935  0.1584 -0.1316
 8849W        W22263   4.790   5.482  12.822  0.0582  0.0689  0.2996
 8850W        W22264  15.420   9.481   4.364 -0.3858  0.3353 -0.1041
 8851W        W22265   3.873   6.648  16.146  0.3157 -0.1162  0.1174
 8852W        W22266   9.585   1.725  11.831 -0.0846 -0.2139  0.3266
 8853W        W22267  10.416   5.865  15.661  0.0859 -0.1369  0.1537
 8854W        W22268   7.808   0.860   0.256  0.1665  0.0536 -0.2626
 8855W        W22269  17.945  14.603  11.519  0.4030 -0.0888 -0.0174
 8856W        W22270  11.021  15.776  15.607 -0.1415  0.0219 -0.1358
 8857W        W22271  17.683  17.359   6.058 -0.1828  0.0308 -0.2714
 8858W        W22272   6.670  17.057  13.549 -0.0595  0.0197 -0.0413
 8859W        W22273  12.931   5.972  12.575  0.0988 -0.2587 -0.0482
 8860W        W22274   7.837   5.980  16.090  0.1989  0.1925  0.0859
 8861W        W22275   7.896  10.159   6.038 -0.0419 -0.3893  0.0963
 8862W        W22276  13.442   6.531  14.538  0.1963 -0.1725  0.2096
 8863W        W22277  15.781  14.951  14.323 -0.0776 -0.1822 -0.1165
 8864W        W22278  17.079   5.666   2.190  0.2240 -0.4940 -0.0224
 8865W        W22279   3.847  13.469   5.917  0.4243  0.1769  0.1479
 8866W        W22280  13.614   8.708  15.229  0.1244 -0.1618 -0.2381
 8867W        W22281  12.595  12.196   2.929  0.1930  0.0733 -0.1992
 8868W        W22282  10.162   2.797  13.449 -0.1871 -0.0510 -0.2589
 8869W        W22283   7.886  10.638   3.153 -0.0197  0.3527  0.0186
 8870W        W22284  16.072  12.778  13.162  0.1173 -0.0099  0.0173
 8871W        W22285   4.796  16.623  16.148  0.1246 -0.0705  0.4648
 8872W        W22286  15.995  17.538   5.536 -0.2014 -0.0290 -0.0062
 8873W        W22287  17.019   8.692   2.785 -0.4512 -0.0883 -0.2402
 8874W        W22288   1.044   8.834  12.396  0.3098 -0.0575  0.0520
 8875W        W22289   2.897   5.034   2.396 -0.0836 -0.1905  0.0626
 8876W        W22290  18.045  17.989   2.116 -0.0605 -0.0260  0.0270
 8877W        W22291   4.950   5.698  12.337 -0.0480  0.0846 -0.0526
 8878W        W22292   1.796   9.729  16.199 -0.1061 -0.2266  0.2845
 8879W        W22293  12.520   9.808  11.110 -0.2187 -0.1017 -0.1476
 8880W        W22294   9.694   3.324   1.367  0.0629  0.1719 -0.3889
 8881W        W22295  13.480   7.823   0.980  0.1565  0.2309 -0.0170
 8882W        W22296   1.799  12.226   0.151 -0.0782  0.1258  0.0142
 8883W        W22297  18.345   2.350   3.982  0.0757  0.2880  0.2118
 8884W        W22298   0.853  16.394  12.091 -0.0460  0.0746  0.2858
 8885W        W22299   4.194   5.263   4.030  0.1489 -0.2480  0.0466
 8886W        W22300   1.481  16.715   3.072 -0.0755  0.0814  0.0514
 8887W        W22301   4.873  11.511   0.677 -0.2676 -0.1001 -0.1371
 8888W        W22302   9.681  17.815  13.753  0.1962  0.1957  0.1689
 8889W        W22303   2.628  10.505   6.438  0.2557 -0.3151 -0.2072
 8890W        W22304  14.543   1.890  14.847 -0.0836 -0.1257  0.0819
 8891W        W22305   9.819  14.294  11.942  0.2805  0.0859  0.1785
 8892W        W22306  13.930   8.304   0.400  0.0143 -0.2013 -0.1795
 8893W        W22307   2.643   7.801  11.666  0.1410  0.1206 -0.2046
 8894W        W22308  12.277   7.899  15.402  0.0482  0.0627  0.2614
 8895W        W22309  10.771  16.626   2.160  0.2674  0.0565 -0.4072
 8896W        W22310   2.927  16.283   1.999 -0.1120  0.0964  0.1947
 8897W        W22311   7.459   0.621  14.458 -0.0968  0.0465  0.2214
 8898W        W22312   1.250  14.150  11.295 -0.0491  0.0026  0.0346
 8899W        W22313  14.831  15.039  13.453  0.0758  0.1322 -0.0710
 8900W        W22314   1.674   6.396   3.496 -0.1335 -0.3374  0.0453
 8901W        W22315   2.439   6.885  16.081 -0.1695  0.0989  0.0281
 8902W        W22316   2.791   7.760  13.797  0.0556  0.0696  0.0327
 8903W        W22317  13.804  10.581  13.511 -0.2310  0.1304 -0.0047
 8904W        W22318   6.294  16.734  13.766 -0.1387 -0.2711 -0.0610
 8905W        W22319   5.099   6.609  16.111  0.0821  0.0474  0.0764
 8906W        W22320   5.640   1.921  14.499  0.2046 -0.1000  0.1615
 8907W        W22321  10.955   8.498  14.467 -0.2257  0.0833  0.0654
 8908W        W22322  14.066  17.343   5.307  0.1316 -0.2505  0.3759
 8909W        W22323  11.188  16.122  11.957  0.2502  0.3564  0.1215
 8910W        W22324   6.205   8.947  11.580 -0.1999 -0.0771 -0.1881
 8911W        W22325   7.609   4.543   0.393  0.1616 -0.1092  0.0808
 8912W        W22326  15.473   0.233   2.912 -0.2135 -0.0797 -0.1612
 8913W        W22327  15.699  10.625  15.425  0.0619 -0.3115 -0.0349
 8914W        W22328   0.094  16.187  12.791 -0.0529  0.3657  0.1498
 8915W        W22329  11.694  15.915   0.255  0.0992  0.3182  0.0140
 8916W        W22330   5.731  14.356   5.042 -0.1523 -0.1122  0.1366
 8917W        W22331   3.063   0.411   4.395 -0.1800 -0.2131 -0.1833
 8918W        W22332  16.696   5.257  12.039  0.1635  0.0360  0.1522
 8919W        W22333  17.386  14.557   7.186  0.1294 -0.0734  0.1076
 8920W        W22334  12.168   1.721  13.357  0.0629 -0.1557  0.1649
 8921W        W22335   9.899  15.074  15.704 -0.0042 -0.1198 -0.0090
 8922W        W22336   9.114  14.836   4.503 -0.1171 -0.0983 -0.1548
 8923W        W22337  16.697  16.365  15.538 -0.0410 -0.0932  0.0838
 8924W        W22338  17.439   1.546  11.459 -0.2437  0.1666 -0.2359
 8925W        W22339  18.019  12.962  15.166 -0.1272  0.0215  0.2881
 8926W        W22340  17.101  10.797  14.053  0.1618 -0.2007 -0.1791
 8927W        W22341  16.786   3.331   1.288  0.2558  0.0250 -0.0838
 8928W        W22342   2.068   6.094  13.169 -0.2170 -0.3278 -0.0770
 8929W        W22343  15.547  18.129   2.193  0.0759 -0.0965  0.0484
 8930W        W22344  10.989  16.059   4.471 -0.1543  0.0547  0.4001
 8931W        W22345   5.087  11.800  14.765 -0.1895  0.0836  0.2357
 8932W        W22346  17.467   4.595  15.438  0.0579  0.0250  0.2828
 8933W        W22347   3.598  12.017  14.891  0.0181 -0.2256 -0.0072
 8934W        W22348   2.685   6.570  15.792 -0.5096  0.0979 -0.0390
 8935W        W22349  16.864  17.868   1.574  0.1938 -0.1733 -0.1093
 8936W        W22350   3.045   2.852  11.489 -0.3208 -0.2236 -0.3274
 8937W        W22351   6.261   8.957   3.292  0.0358  0.1446  0.0639
 8938W        W22352  17.480  15.154   3.551  0.2606  0.2030 -0.0337
 8939W        W22353   1.058  11.399  15.187 -0.2100  0.3044 -0.1019
 8940W        W22354   2.900   8.288  14.537  0.0252  0.1406 -0.1537
 8941W        W22355   4.536   7.171   0.206 -0.0885  0.2881  0.1424
 8942W        W22356  11.722   1.472   6.450 -0.0838 -0.2825  0.3242
 8943W        W22357   6.968   5.362   3.864 -0.1198 -0.3622  0.1027
 8944W        W22358   3.961   8.077   3.530 -0.1717  0.2095  0.1243
 8945W        W22359  17.387   8.252   4.178 -0.0942  0.1324 -0.1421
 8946W        W22360   5.949  16.994   0.990  0.2005 -0.2488  0.0799
 8947W        W22361   2.087   5.335  11.453  0.0188 -0.1497  0.0255
 8948W        W22362  14.795  16.308   3.470  0.1175 -0.0011  0.2292
 8949W        W22363   0.552  16.272  13.017 -0.1180 -0.2195 -0.1510
 8950W        W22364   6.773  11.335   2.642  0.2420  0.1854 -0.1440
 8951W        W22365  14.135   9.267   2.246 -0.1460  0.2569  0.0382
 8952W        W22366  15.352   7.924   2.298  0.1910 -0.0756 -0.3580
 8953W        W22367   0.701  15.889   0.629 -0.3635  0.2744 -0.0526
 8954W        W22368  17.785  11.083   0.200 -0.1503  0.0103  0.2610
 8955W        W22369  11.130  15.948  12.623 -0.0158 -0.1229 -0.0786
 8956W        W22370   9.221   3.537  11.939 -0.2729 -0.1570  0.0240
 8957W        W22371   8.275  17.772  16.511  0.0024  0.4195  0.0914
 8958W        W22372  13.126   0.420  11.605 -0.1283  0.0925  0.0002
 8959W        W22373   0.038   9.436   0.530 -0.0845 -0.2120 -0.0498
 8960W        W22374  13.060  14.771   2.973  0.1208 -0.1281  0.0728
 8961W        W22375  13.812  12.408   1.702 -0.5279  0.1685 -0.3658
 8962W        W22376   5.753   5.107  14.257  0.0587  0.2336  0.6897
 8963W        W22377   4.762  12.874   2.584 -0.0337  0.0168 -0.2530
 8964W        W22378   1.661  15.461   4.440 -0.2404  0.0913 -0.0087
 8965W        W22379  11.390   5.312  16.385  0.2896 -0.2392 -0.2694
 8966W        W22380   7.153   2.575   9.806  0.2266 -0.1814 -0.0164
 8967W        W22381   2.939  13.567   3.283  0.0935 -0.0353 -0.2523
 8968W        W22382   6.799   7.383  14.600 -0.3662 -0.1308  0.2063
 8969W        W22383   6.743   7.566   0.126 -0.0807  0.1207  0.2073
 8970W        W22384   9.617   9.251   2.054  0.3414 -0.4540 -0.2740
 8971W        W22385   4.214   7.432   1.979  0.2257  0.0378  0.0908
 8972W        W22386  13.586  15.055   3.623  0.1919  0.1129  0.1090
 8973W        W22387  13.215  12.132   3.747 -0.0569 -0.1630 -0.3182
 8974W        W22388  15.410   3.646   3.659 -0.2486 -0.1562 -0.1120
 8975W        W22389  17.513   6.549   5.059 -0.2133  0.0776  0.1853
 8976W        W22390   5.197  13.573   6.278  0.0479  0.1666 -0.3652
 8977W        W22391   3.474   7.589  11.255  0.0537 -0.4164  0.2401
 8978W        W22392  14.707  10.717   3.673  0.0924 -0.0568 -0.0618
 8979W        W22393   1.816  14.768   4.784 -0.0553 -0.3045  0.0918
 8980W        W22394   4.337  14.725   5.502 -0.2764  0.0645  0.0896
 8981W        W22395  18.348   7.681  10.290 -0.0765  0.1392  0.1104
 8982W        W22396   2.701   8.836   0.793  0.0586  0.1639 -0.1668
 8983W        W22397  14.667  10.373  13.633 -0.3819  0.0608 -0.1616
 8984W        W22398  17.802   8.157  13.077  0.3023  0.2587  0.1546
 8985W        W22399   9.261  11.548  14.775 -0.0452  0.1459 -0.3236
 8986W        W22400  10.208  15.447   0.532  0.1518 -0.1222 -0.3393
 8987W        W22401  14.672   8.667   5.736 -0.2999  0.0254 -0.1947
 8988W        W22402  11.501   5.428  11.647  0.0208 -0.1356  0.2002
 8989W        W22403   5.865  16.833   3.190 -0.0112 -0.4816  0.2241
 8990W        W22404  14.303  16.295   1.473 -0.1386  0.1474  0.3311
 8991W        W22405  13.005   4.373   4.655  0.6047 -0.0549 -0.2015
 8992W        W22406   2.328   5.604  13.177  0.2973 -0.2592  0.2626
 8993W        W22407  17.993   0.592   0.207  0.1746  0.1718  0.0105
 8994W        W22408  14.055  12.019   4.915  0.1806 -0.2752 -0.1804
 8995W        W22409   1.363   4.834   0.102  0.0285 -0.2351  0.0636
 8996W        W22410   0.578  16.113  15.274 -0.0719 -0.0878 -0.0958
 8997W        W22411  17.949   9.930   5.634 -0.0639  0.1113 -0.0220
 8998W        W22412  10.276  13.276   3.236  0.2131  0.1083 -0.2756
 8999W        W22413   6.362   4.803  16.243 -0.0718  0.0502  0.4634
 9000W        W22414  14.402   5.088   0.995  0.0295 -0.1239  0.0065
 9001W        W22415  16.634   2.465   1.064 -0.1322  0.0898  0.4881
 9002W        W22416   4.136   2.505  11.339 -0.0941  0.1575  0.0289
 9003W        W22417   2.268   6.092   0.453  0.1044 -0.1602  0.1384
 9004W        W22418  16.777  17.062   1.702 -0.1060  0.0622  0.4332
 9005W        W22419  18.034   6.796  16.270  0.1112 -0.2484  0.0253
 9006W        W22420  11.638   9.574   1.881  0.2646  0.1879  0.3783
 9007W        W22421  13.352  11.042  11.407 -0.2734 -0.1962 -0.2817
 9008W        W22422   6.991  10.285  12.920  0.2042  0.2840 -0.2136
 9009W        W22423  16.085  10.131  10.965 -0.1882 -0.2714  0.1655
 9010W        W22424   2.168   1.629   1.374 -0.0204 -0.2239  0.0350
 9011W        W22425  14.669   4.004  12.592 -0.0221  0.1078  0.0263
 9012W        W22426  16.200  13.421  11.829  0.2208  0.0136  0.1452
 9013W        W22427  16.015  17.589   0.693 -0.2137 -0.2579  0.0766
 9014W        W22428   5.884   5.349   0.252 -0.0151  0.0879 -0.0244
 9015W        W22429   8.274   4.779   2.596 -0.0462  0.2801  0.0687
 9016W        W22430  15.798  11.791   0.366  0.0224  0.1323  0.1202
 9017W        W22431   4.952  14.724  12.820 -0.1444 -0.0640  0.0021
 9018W        W22432  13.037  14.388   3.609  0.1302 -0.0847 -0.1477
 9019W        W22433  18.348  14.719  14.736 -0.1102 -0.2831 -0.1899
 9020W        W22434  14.147  16.481  12.464  0.0577 -0.0496  0.0292
 9021W        W22435   8.694  17.452  15.683  0.2761 -0.2320  0.3104
 9022W        W22436   1.642  14.288   1.716  0.1103 -0.1542  0.0320
 9023W        W22437   8.715  16.773  12.410 -0.0512  0.1717  0.2318
 9024W        W22438   0.968  17.946  10.882  0.1667  0.2175 -0.2123
 9025W        W22439  14.446  14.354   6.387 -0.0626 -0.0058  0.1232
 9026W        W22440  10.827  11.859   5.614 -0.1784  0.1395 -0.0137
 9027W        W22441  14.389   0.474  13.962 -0.1004 -0.2086 -0.3316
 9028W        W22442   2.862  10.800   5.082 -0.0330  0.2045 -0.0436
 9029W        W22443  12.466   1.835  15.362 -0.1797 -0.0475  0.1679
 9030W        W22444   9.496  14.106   3.889 -0.1339 -0.1533 -0.1484
 9031W        W22445   3.557   2.482  12.050 -0.1029  0.3157 -0.0609
 9032W        W22446   8.953  13.365   3.048 -0.0771 -0.0658  0.4433
 9033W        W22447  14.190   1.296   2.431 -0.0316 -0.0571 -0.0219
 9034W        W22448  10.818   9.058   1.608  0.0296 -0.0074 -0.0018
 9035W        W22449   7.284  10.694  12.884  0.1369  0.1571 -0.1378
 9036W        W22450  13.624   4.507   9.881  0.2068 -0.1344 -0.1335
 9037W        W22451  10.577   5.317  14.328 -0.3142 -0.0524  0.0556
 9038W        W22452   7.197   2.925   5.433  0.2781  0.1174 -0.1517
 9039W        W22453   6.545  14.410   3.921 -0.4343 -0.0577 -0.1828
 9040W        W22454   3.728  14.381  15.132  0.2529  0.1538  0.1638
 9041W        W22455   0.266  17.848   6.248  0.0689 -0.0270 -0.0826
 9042W        W22456  11.728  12.806   0.161 -0.0716  0.0859 -0.2420
 9043W        W22457   7.732  10.193  13.544 -0.0480  0.0865 -0.2200
 9044W        W22458  10.848   3.246  12.340 -0.0880 -0.0811 -0.0763
 9045W        W22459   7.774   5.096  15.155 -0.2179 -0.1116 -0.1644
 9046W        W22460  14.581  18.287  13.285  0.0588 -0.0255 -0.4342
 9047W        W22461   9.815   7.463   2.531  0.1817  0.1113 -0.1152
 9048W        W22462   1.579  13.343   0.849 -0.1450 -0.3029 -0.0379
 9049W        W22463  10.407   9.758  11.959  0.2856 -0.1505  0.1694
 9050W        W22464   6.581   4.286   0.441 -0.0396  0.3319  0.0461
 9051W        W22465   8.473  10.399  16.184 -0.4845  0.0532 -0.0229
 9052W        W22466   2.155  15.121  11.341 -0.1696 -0.1448  0.4067
 9053W        W22467  14.561  16.724  14.738 -0.0380 -0.1168  0.0063
 9054W        W22468  14.036   7.183   3.487 -0.2537  0.1009 -0.2655
 9055W        W22469  10.593   8.439  14.884 -0.0370  0.2736  0.2380
 9056W        W22470   7.921   4.515  12.695 -0.0906 -0.2359  0.0671
 9057W        W22471   4.083   4.026   3.589 -0.1275  0.2059  0.0560
 9058W        W22472  14.146  18.206   4.435  0.0694  0.4725  0.3116
 9059W        W22473  17.738  11.170   5.033  0.1024  0.1381  0.0084
 9060W        W22474  16.126  11.245  12.038 -0.1852 -0.3262 -0.0789
 9061W        W22475  13.098  13.900   0.988 -0.0282 -0.1415  0.2125
 9062W        W22476  10.120  15.812   4.091 -0.0330  0.0832 -0.0259
 9063W        W22477   9.934  16.617  14.781 -0.0066  0.1608  0.1417
 9064W        W22478   7.412   0.388  15.431  0.1996  0.1736 -0.1094
 9065W        W22479   5.030  11.054  15.195  0.2035 -0.1468  0.1248
 9066W        W22480  16.510   8.603   3.699  0.1635  0.1051 -0.1282
 9067W        W22481   9.632   8.225  15.311 -0.1779  0.0187  0.1759
 9068W        W22482   2.990   2.507   4.040 -0.1753  0.0772  0.1956
 9069W        W22483   9.674  12.832   5.475 -0.1123 -0.3505  0.3676
 9070W        W22484   2.566   1.950  13.791  0.1579 -0.1921 -0.2432
 9071W        W22485   0.941   5.068  10.882 -0.1998 -0.2896  0.1811
 9072W        W22486  15.983   0.654  15.773  0.1162  0.3166  0.1162
 9073W        W22487  15.959  10.940   1.441  0.1509 -0.4851 -0.2333
 9074W        W22488  17.286  14.993  12.054 -0.1262  0.0516 -0.2298
 9075W        W22489  13.329   2.140  10.294  0.1282 -0.0227 -0.1848
 9076W        W22490   7.494  10.643  15.956 -0.0062 -0.4309  0.3280
 9077W        W22491   4.562   4.539   3.886  0.0089  0.3322 -0.1205
 9078W        W22492   7.734  11.315  15.507 -0.2271  0.0646 -0.0575
 9079W        W22493   2.074   8.419   9.990  0.1080  0.1396  0.0946
 9080W        W22494  18.322   9.169   3.436  0.2271  0.0339  0.0809
 9081W        W22495  10.099  15.811  11.297 -0.3078  0.2760  0.1556
 9082W        W22496   8.700   7.119  14.298 -0.1578 -0.0052  0.1036
 9083W        W22497  10.582  10.843  12.713  0.0630 -0.0546  0.1151
 9084W        W22498  10.745   3.125   1.255  0.1616  0.1856 -0.0075
 9085W        W22499   2.800   4.904  14.893 -0.0459  0.0103  0.2346
 9086W        W22500  12.742  10.651   4.866 -0.2447  0.0968 -0.2605
 9087W        W22501   1.182  11.926  12.538 -0.3710 -0.0184 -0.0237
 9088W        W22502  11.202   6.657  13.037 -0.0127  0.2732 -0.1316
 9089W        W22503   7.176   9.757   1.744 -0.1347  0.0572  0.2866
 9090W        W22504  12.567   3.134   3.741 -0.2086  0.1787 -0.0131
 9091W        W22505  10.993   4.187  12.445 -0.2465  0.2577  0.2032
 9092W        W22506  12.746   3.346  15.587 -0.0071 -0.2291 -0.1448
 9093W        W22507  15.423  15.488   5.546 -0.1992 -0.0645  0.2943
 9094W        W22508  15.167  12.320  11.937 -0.0116  0.0410 -0.0568
 9095W        W22509  18.105  11.296  14.899 -0.2692 -0.0427 -0.4197
 9096W        W22510   6.307   7.817   5.513 -0.1707  0.2106 -0.2875
 9097W        W22511  13.906   3.280   4.824 -0.2260  0.1583 -0.2245
 9098W        W22512   4.153  12.090   3.773  0.0621 -0.1428  0.2471
 9099W        W22513  17.230   2.087   5.771 -0.2950  0.0763 -0.1136
 9100W        W22514   2.372   8.051  12.104 -0.1612 -0.1525  0.0825
 9101W        W22515  11.922   3.683   3.754  0.0709 -0.0962  0.6211
 9102W        W22516   0.071  13.071  15.342  0.0622 -0.1255 -0.1081
 9103W        W22517   5.899   2.847   3.869  0.0712  0.1335 -0.1575
 9104W        W22518   0.348  17.346   4.525  0.2224  0.1188 -0.0465
 9105W        W22519  10.634   2.456  11.691  0.0111  0.2146 -0.0433
 9106W        W22520   0.887   9.821  13.204 -0.0141 -0.2424 -0.2562
 9107W        W22521   9.682   1.408   1.725 -0.0410  0.2393  0.1436
 9108W        W22522   9.636   8.223  12.589  0.0339  0.1410 -0.0633
 9109W        W22523   7.358  13.252  15.336 -0.2077 -0.0567  0.1193
 9110W        W22524   2.335   1.050  13.561  0.0231  0.2724  0.2851
 9111W        W22525  10.097  12.316  14.399 -0.1498  0.1599  0.4450
 9112W        W22526  12.428   5.226  15.036  0.1452 -0.1266  0.0908
 9113W        W22527  15.727  17.908   5.354  0.0085  0.5767  0.2646
 9114W        W22528   1.743  10.913   0.892 -0.2499  0.1842 -0.2585
 9115W        W22529   5.058  10.868   2.005  0.1657  0.1454 -0.3664
 9116W        W22530   6.206   4.263  10.416  0.0854  0.3204 -0.0444
 9117W        W22531   2.591  15.834   4.820 -0.0505 -0.2128 -0.0371
 9118W        W22532   0.297  17.768   1.625 -0.2017 -0.3250  0.0205
 9119W        W22533   0.130   1.864  15.970  0.2640 -0.1893 -0.0360
 9120W        W22534   5.597   1.609  10.462 -0.1779  0.1081 -0.2593
 9121W        W22535   2.875  15.365   0.042  0.0603 -0.1031  0.2125
 9122W        W22536  18.063  16.627  14.999 -0.2604  0.2371  0.1193
 9123W        W22537   3.953   2.932  13.991  0.0878  0.0014  0.2302
 9124W        W22538  15.505   4.114   3.495 -0.1078  0.3531 -0.1502
 9125W        W22539   3.264   3.259   5.846 -0.1532 -0.0316 -0.0703
 9126W        W22540   4.938   0.045   3.625  0.1663  0.0665 -0.0402
 9127W        W22541   5.643   4.691  12.046 -0.0166 -0.0756  0.0072
 9128W        W22542  14.923  17.118  13.929  0.0553 -0.1612  0.2391
 9129W        W22543  15.895   7.540   1.655 -0.0247 -0.1987  0.1325
 9130W        W22544  14.205   5.726   3.396  0.2496 -0.2185 -0.0149
 9131W        W22545  17.667  14.650   6.438  0.0743 -0.2703 -0.0556
 9132W        W22546   9.225  16.470   1.176  0.1629 -0.1129 -0.1625
 9133W        W22547  14.357   8.346   2.541  0.0152 -0.2139  0.0481
 9134W        W22548  16.734   4.010  16.158  0.2693  0.2439 -0.2286
 9135W        W22549   4.503   1.851   2.022 -0.3541  0.0327  0.4144
 9136W        W22550   3.502   9.830   1.680  0.1229  0.1246 -0.3175
 9137W        W22551   2.200   4.106  14.332  0.2153  0.2381  0.0933
 9138W        W22552   4.808   6.494  14.702  0.2946 -0.0459 -0.1993
 9139W        W22553   7.655   9.208   4.769  0.0833  0.0893 -0.0958
 9140W        W22554   0.210  11.699  10.994 -0.0317 -0.1700 -0.0140
 9141W        W22555   1.222   0.582   6.539 -0.1614  0.1478 -0.1485
 9142W        W22556   4.771  10.094  15.921  0.2510  0.0611  0.0774
 9143W        W22557   1.300   0.464  11.237  0.1086 -0.2133  0.1243
 9144W        W22558   0.463  16.065  11.982  0.0616 -0.2098 -0.0040
 9145W        W22559  15.636  11.324   0.326 -0.0060 -0.2664  0.0463
 9146W        W22560   1.024   5.433  11.222 -0.2875  0.1711 -0.3028
 9147W        W22561  13.149   2.517  15.701 -0.0140 -0.0854  0.0680
 9148W        W22562   7.250  15.728  11.322 -0.1728  0.1255  0.3310
 9149W        W22563   5.984   9.967   4.045 -0.0743  0.0164 -0.2813
 9150W        W22564   9.315   5.591   3.026 -0.1511  0.3141  0.1177
 9151W        W22565   7.636   8.222   5.977  0.1010  0.0891  0.3302
 9152W        W22566   7.173   4.723   0.167 -0.2282 -0.0420  0.3853
 9153W        W22567  12.597  13.564   6.043 -0.2177 -0.0008  0.0272
 9154W        W22568   5.776   7.492  13.001  0.1434  0.2826  0.1526
 9155W        W22569  15.467   2.506   5.920 -0.3887 -0.0589  0.3168
 9156W        W22570   8.190   5.690   3.897  0.2516 -0.0762 -0.0799
 9157W        W22571  11.158  15.219   3.593 -0.2532 -0.1409  0.1547
 9158W        W22572   7.653   2.718   5.329 -0.2220 -0.1798  0.0604
 9159W        W22573  17.566   1.796   3.570 -0.1885  0.0837 -0.0317
 9160W        W22574  13.459  17.988  13.927 -0.2836 -0.0183 -0.0806
 9161W        W22575   4.452   3.279  15.281  0.0216 -0.0935  0.1843
 9162W        W22576   6.845   5.901   3.988 -0.0880 -0.1126 -0.0905
 9163W        W22577   2.867   1.265   1.212  0.0005 -0.3481 -0.0544
 9164W        W22578   3.523  13.476  13.095  0.5408 -0.3162 -0.0899
 9165W        W22579  11.870  15.209  14.001  0.0100  0.0984 -0.2449
 9166W        W22580   2.740   3.664  15.828 -0.1541  0.1157 -0.0277
 9167W        W22581  12.417   2.096  15.782 -0.1911  0.0064 -0.0990
 9168W        W22582   1.672   8.554  10.748 -0.0911  0.2046 -0.3666
 9169W        W22583  14.553  14.172  12.787 -0.1724  0.0352  0.3167
 9170W        W22584   5.428   7.341   5.273  0.0329 -0.2213 -0.0259
 9171W        W22585  16.394   8.271  14.968 -0.0390  0.1053  0.2943
 9172W        W22586   0.073   5.242  10.901  0.0894 -0.0905 -0.0538
 9173W        W22587   8.300   1.647  15.407 -0.4170  0.1102 -0.0044
 9174W        W22588  13.220  17.394   3.169  0.1515 -0.0524 -0.0144
 9175W        W22589   3.032  10.147  15.117 -0.2050 -0.2129  0.1711
 9176W        W22590  17.053  14.858  12.887  0.1609  0.0880  0.0789
 9177W        W22591   9.698  16.190  15.083 -0.0143  0.0704 -0.0832
 9178W        W22592  10.101  15.271   4.419  0.3676  0.0657  0.0934
 9179W        W22593  14.574   4.970  12.699 -0.3154 -0.1849 -0.0002
 9180W        W22594  17.737   0.113  16.340  0.1129 -0.0316  0.1311
 9181W        W22595  16.570   1.613  12.633  0.2149  0.0799 -0.0654
 9182W        W22596  16.305   8.186   0.032 -0.2349 -0.1380 -0.0759
 9183W        W22597   3.640   8.139  15.584  0.1825  0.0897  0.0034
 9184W        W22598  14.621   0.526   0.558  0.1369  0.1096  0.1668
 9185W        W22599  14.695   6.612  12.718 -0.1730 -0.3649  0.0600
 9186W        W22600   4.151  17.738   4.883  0.0015  0.0785 -0.0635
 9187W        W22601   9.364   8.637  13.853  0.3436  0.0695  0.1466
 9188W        W22602   1.143   0.692   2.762 -0.4065 -0.3001 -0.0100
 9189W        W22603  10.950   0.535   1.909 -0.1875  0.1038 -0.2306
 9190W        W22604  15.603   8.621  13.868 -0.1326  0.0834 -0.1886
 9191W        W22605  12.549   4.092  12.622 -0.0060 -0.2396  0.2837
 9192W        W22606  18.073  13.374   1.774  0.1278 -0.3423  0.2563
 9193W        W22607   5.757   9.299  10.915 -0.0145  0.2669 -0.3159
 9194W        W22608   4.676   3.234   2.977  0.2062 -0.1067  0.2221
 9195W        W22609   2.319  16.048  16.148 -0.1205 -0.0400 -0.1981
 9196W        W22610   2.266  16.606  12.349  0.1137  0.0095 -0.2888
 9197W        W22611  12.363  14.991   2.842  0.0920  0.1280  0.0540
 9198W        W22612  12.371   7.504  14.429 -0.2380 -0.0915  0.3117
 9199W        W22613   2.173  15.095   4.852 -0.2810  0.0878  0.1873
 9200W        W22614  14.463  10.401  15.610 -0.0878 -0.4223 -0.4193
 9201W        W22615   4.322   9.908  15.399  0.0167  0.1309  0.0233
 9202W        W22616   0.506   7.287   4.958 -0.1924 -0.1327 -0.1503
 9203W        W22617  10.715  15.487   1.357  0.1417  0.1577 -0.1221
 9204W        W22618  15.431  13.747   4.504 -0.1991  0.0247 -0.1917
 9205W        W22619  16.035   9.346  14.471 -0.0152  0.0992  0.1352
 9206W        W22620  17.845   3.956  12.578  0.0686  0.3498  0.0034
 9207W        W22621   8.094   1.342   5.404  0.3168  0.0132 -0.0597
 9208W        W22622   6.575  16.641  14.306 -0.0078 -0.2834  0.3357
 9209W        W22623   6.949  10.999  11.908  0.0615  0.3613  0.0782
 9210W        W22624   7.592   2.002  11.026  0.2464 -0.1608  0.1347
 9211W        W22625   5.162   7.163   2.371  0.0164 -0.1154 -0.1227
 9212W        W22626   3.247  17.413   3.954  0.2229 -0.1186  0.1377
 9213W        W22627  12.204   6.727  16.375  0.1279 -0.4772 -0.2095
 9214W        W22628   8.346  10.896  13.764 -0.2494 -0.2003 -0.3039
 9215W        W22629  16.487   9.488  10.321  0.0884  0.0295 -0.4065
 9216W        W22630  16.725  14.910   6.260 -0.0510  0.2295 -0.2630
 9217W        W22631   7.512   1.641  11.406 -0.1144  0.1206  0.0327
 9218W        W22632  18.080   6.489   1.527 -0.0970  0.3382 -0.1992
 9219W        W22633   5.904   3.027   0.474 -0.3044 -0.0550  0.0492
 9220W        W22634   7.095  12.627   0.899  0.0628 -0.1512 -0.0718
 9221W        W22635  14.527   4.201  13.039  0.1014 -0.2166 -0.1958
 9222W        W22636  16.820   0.463   6.252  0.2071 -0.0143  0.1972
 9223W        W22637   8.896   9.340   4.796  0.0944  0.1369 -0.0764
 9224W        W22638  15.919   8.820  11.609 -0.0592 -0.0425  0.1740
 9225W        W22639   2.946  16.780   5.483 -0.0725  0.1485  0.2502
 9226W        W22640   1.422   0.262  12.987 -0.4287  0.1360  0.0925
 9227W        W22641   5.712  16.645   0.617  0.0979  0.2472  0.3562
 9228W        W22642  15.862  11.605   4.192  0.0408 -0.3068 -0.2347
 9229W        W22643   5.412   9.415  13.042 -0.1029 -0.1988  0.1865
 9230W        W22644   0.340  13.505  13.052 -0.3863  0.0953  0.0489
 9231W        W22645  16.864   0.732   0.588 -0.1162 -0.1453  0.0216
 9232W        W22646   9.412  16.595  11.250 -0.0221  0.0854 -0.1390
 9233W        W22647   5.797   4.933  15.608 -0.0500  0.0973  0.1618
 9234W        W22648  17.617  13.283  11.998 -0.2112 -0.1079  0.3432
 9235W        W22649   4.768   8.258   3.369  0.0849  0.0338 -0.0048
 9236W        W22650   7.885   1.546   4.121 -0.2180 -0.0200 -0.0057
 9237W        W22651   3.319  11.743  15.599  0.2411  0.1894  0.1707
 9238W        W22652   5.606   4.618   3.952  0.0013  0.0029 -0.0640
 9239W        W22653   5.454   0.600  12.917  0.1168  0.0380  0.2001
 9240W        W22654  14.387   4.130  12.070 -0.0502 -0.0045 -0.2863
 9241W        W22655  14.434   5.014   2.205 -0.2126 -0.2380 -0.0266
 9242W        W22656  12.606  12.776  14.438 -0.0343  0.0338 -0.1477
 9243W        W22657  14.601   5.330  13.130 -0.3423 -0.2644 -0.0492
 9244W        W22658  16.773   5.610  14.304 -0.0007  0.0138 -0.4792
 9245W        W22659  16.364   7.715   2.642  0.1878 -0.1905 -0.1692
 9246W        W22660   9.840  15.251  12.708 -0.4939 -0.4455  0.1072
 9247W        W22661   9.217   0.893  11.295  0.1720  0.0215 -0.0290
 9248W        W22662   1.854  13.111  13.994  0.0273 -0.0348 -0.0206
 9249W        W22663  14.772   3.436  11.608  0.0063  0.0996  0.0856
 9250W        W22664  14.932   9.504   4.716 -0.2105 -0.2438 -0.1226
 9251W        W22665   6.214   5.575   2.639  0.1762  0.0770 -0.2163
 9252W        W22666   4.370   2.281  16.202  0.2125 -0.0090 -0.0199
 9253W        W22667  13.834   0.325   5.243  0.1402 -0.1011  0.0472
 9254W        W22668   3.563   5.911   3.784  0.2693 -0.0646  0.2879
 9255W        W22669  13.019  15.689   5.699  0.1237 -0.2155 -0.1831
 9256W        W22670  10.742  10.104  15.950 -0.0375  0.0526 -0.2464
 9257W        W22671  17.613   6.813   0.089 -0.3056  0.3217 -0.0252
 9258W        W22672   1.918   6.392  14.937  0.3237 -0.3038 -0.0948
 9259W        W22673   3.860  11.838  15.655 -0.1103 -0.2395  0.0161
 9260W        W22674   8.198  16.030  15.007 -0.0473  0.1521  0.0737
 9261W        W22675   7.076   4.937  11.719 -0.1865 -0.1281 -0.0894
 9262W        W22676   1.612   7.291  16.208 -0.1486  0.2853  0.2263
 9263W        W22677  18.007   7.480   2.947 -0.2215  0.0781 -0.0635
 9264W        W22678  11.065  13.743  12.566 -0.1490  0.0243 -0.0219
 9265W        W22679   5.022  15.438  10.808 -0.1919  0.1603  0.0186
 9266W        W22680  15.997  12.330   0.354 -0.2844  0.0581  0.1381
 9267W        W22681   4.518   9.742  10.789 -0.0244  0.1544 -0.0798
 9268W        W22682   9.077  11.893   3.423 -0.0749 -0.1854 -0.1598
 9269W        W22683  18.287  10.716   2.836  0.1512 -0.1251  0.0538
 9270W        W22684   3.198   5.190  12.403  0.2382 -0.0550 -0.0920
 9271W        W22685  10.808  17.024  11.126  0.3670 -0.7812  0.0719
 9272W        W22686  14.011  13.906   5.684 -0.1251 -0.1900  0.2250
 9273W        W22687   5.596   3.362   0.225 -0.2672  0.1727  0.2054
 9274W        W22688   1.776  12.633   3.820 -0.2397 -0.0745  0.0203
 9275W        W22689  13.274   5.551  13.070  0.1892  0.0756  0.3371
 9276W        W22690   0.845   4.929  13.503  0.2486 -0.0199 -0.1409
 9277W        W22691  16.314  17.984   1.550  0.2750  0.2344 -0.0138
 9278W        W22692   8.133  14.725  10.958 -0.0572  0.0407 -0.1999
 9279W        W22693  10.883  16.939  14.859 -0.2482  0.0389 -0.0756
 9280W        W22694   9.234   5.672  15.014 -0.1186  0.2036 -0.1815
 9281W        W22695  16.752  16.357  16.149 -0.0776 -0.0817  0.2785
 9282W        W22696   2.657   5.193   6.297 -0.1153 -0.3478 -0.2502
 9283W        W22697   0.893   1.014  11.125 -0.0959 -0.1780 -0.2589
 9284W        W22698   5.956   9.295   3.216 -0.3743 -0.2499  0.0934
 9285W        W22699  18.063   7.048   0.191 -0.0411 -0.3346 -0.1588
 9286W        W22700  14.047  16.881  12.190 -0.3355  0.0873  0.2611
 9287W        W22701  13.770  11.227   1.174  0.1210 -0.0177  0.2423
 9288W        W22702   8.746   5.900   5.244  0.0908 -0.0676  0.2148
 9289W        W22703  14.883   0.025  13.971 -0.1167  0.0076 -0.2568
 9290W        W22704   2.994  14.261  14.109  0.0717  0.3644 -0.0621
 9291W        W22705   4.274   3.453   0.293  0.3580  0.0659 -0.1093
 9292W        W22706   9.304   8.116  10.412 -0.3003  0.0121 -0.1149
 9293W        W22707   2.301  12.048  14.993 -0.0147 -0.0815  0.1963
 9294W        W22708   4.865  10.782  10.740 -0.2170  0.0015  0.2892
 9295W        W22709  16.057  16.021   3.092  0.0600  0.1652  0.0562
 9296W        W22710   1.278   4.894   3.972  0.0302  0.3908  0.1833
 9297W        W22711  12.746   0.089   4.400  0.3500  0.2806 -0.0155
 9298W        W22712  11.074  10.250   0.868 -0.2500 -0.1868 -0.0671
 9299W        W22713  17.586   9.039  14.658  0.2672  0.0035  0.1508
 9300W        W22714   1.452   3.913   1.194  0.3712 -0.1232  0.0918
 9301W        W22715   4.996   7.639   5.049  0.2044  0.2538 -0.1971
 9302W        W22716  16.335  17.175   0.645  0.1965  0.0213  0.0405
 9303W        W22717   2.917  15.885   0.396 -0.3661 -0.3705  0.2653
 9304W        W22718  14.360  15.691   4.296 -0.3091 -0.0897  0.1150
 9305W        W22719   5.194   9.997  11.299 -0.0110  0.0728 -0.0392
 9306W        W22720  12.128   0.645  11.450  0.3142 -0.0691 -0.0336
 9307W        W22721   6.163  10.388  14.239  0.1245 -0.2856 -0.2564
 9308W        W22722   0.330   4.112  11.974  0.0145  0.0511  0.1831
 9309W        W22723  15.271  13.313  13.579 -0.1464 -0.0202 -0.1155
 9310W        W22724  12.922  11.338   4.446  0.0920  0.0779 -0.0476
 9311W        W22725   2.124   7.340  16.230  0.1778  0.4156  0.1256
 9312W        W22726   9.738   0.133  11.438  0.2618  0.1539  0.2502
 9313W        W22727  11.467  16.963  13.214 -0.2639 -0.2403 -0.4976
 9314W        W22728  11.184  10.977   5.591 -0.0489 -0.3315 -0.1876
 9315W        W22729  13.705   8.284   0.836 -0.1249 -0.0608 -0.2806
 9316W        W22730   3.837  15.065   0.335 -0.1484 -0.1011 -0.1460
 9317W        W22731   0.671  10.724   4.921  0.3382  0.1807  0.0200
 9318W        W22732   3.281   0.911  15.313 -0.1422  0.3673  0.1321
 9319W        W22733  17.318   7.216   3.702  0.1260  0.1456 -0.1008
 9320W        W22734  17.283  17.292   0.555  0.0556 -0.1178 -0.1829
 9321W        W22735  11.482  17.629  13.929  0.0367 -0.0920 -0.0430
 9322W        W22736   3.185   8.284   2.624 -0.1936 -0.1785 -0.0950
 9323W        W22737   6.321   9.968  11.601 -0.1056  0.1221  0.5368
 9324W        W22738  10.742   6.264   9.780  0.0996  0.4831  0.1740
 9325W        W22739  10.234  14.995   4.821  0.1523 -0.3294 -0.2184
 9326W        W22740  15.097   6.683   4.059 -0.0038  0.0838 -0.2288
 9327W        W22741  12.154   3.618   4.445  0.3121  0.1971  0.0632
 9328W        W22742  15.737   1.344   1.121  0.1270 -0.2607  0.2870
 9329W        W22743   1.390   9.478  12.260  0.1260 -0.2238  0.0150
 9330W        W22744  17.420   0.748   1.570  0.0986  0.0502  0.3734
 9331W        W22745   0.467  14.864   0.992 -0.5072 -0.2148  0.1493
 9332W        W22746   1.473   1.551   1.986  0.2057  0.0971 -0.2213
 9333W        W22747   1.343  17.199  12.735 -0.1774  0.0908  0.0365
 9334W        W22748  11.237  14.458  13.402 -0.1977 -0.1033  0.0080
 9335W        W22749  11.472   4.809  15.660  0.1749  0.1268 -0.0450
 9336W        W22750  10.301  10.378  10.947 -0.1851 -0.1949 -0.0561
 9337W        W22751  11.825   5.314   2.873 -0.0697  0.2012  0.3431
 9338W        W22752  10.463   3.594   2.698  0.1732 -0.1169  0.0527
 9339W        W22753   6.833  11.550   0.054 -0.0019 -0.2926  0.2323
 9340W        W22754  17.447   7.419   2.272  0.1430  0.3282 -0.4632
 9341W        W22755  14.683   2.545  15.618  0.0065  0.2039  0.0585
 9342W        W22756  13.781  14.901   1.827  0.0346  0.0271  0.0472
 9343W        W22757   0.039  15.022  15.195 -0.3405  0.0772  0.2610
 9344W        W22758   9.705   2.854   4.415 -0.0685  0.0747  0.0532
 9345W        W22759   5.627  16.002   1.749 -0.0298  0.2887  0.2839
 9346W        W22760   2.125  14.235   1.842 -0.0132  0.2949 -0.3352
 9347W        W22761  14.890   6.638  14.913 -0.4877  0.3966 -0.4184
 9348W        W22762   0.245   7.881  11.605  0.1818  0.0530  0.1735
 9349W        W22763   3.581   3.852  11.368 -0.1214 -0.0067 -0.0789
 9350W        W22764   0.631   5.409  14.270 -0.0875  0.1112 -0.0607
 9351W        W22765  16.444  11.173   5.475  0.2034 -0.1905 -0.2155
 9352W        W22766   1.018  13.521   1.487 -0.0624 -0.1434 -0.1416
 9353W        W22767   1.335   6.266   4.096 -0.1762 -0.0384  0.1299
 9354W        W22768  11.562   7.754  14.125 -0.2267  0.0105  0.1483
 9355W        W22769   9.307  18.038   5.953 -0.1442 -0.1476 -0.0505
 9356W        W22770   0.318  18.302  13.654  0.2029  0.1131  0.1509
 9357W        W22771  18.026   8.106  14.044  0.1909  0.1805  0.4094
 9358W        W22772   7.581   1.610  15.957  0.3417  0.1108  0.1006
 9359W        W22773   8.359  17.679   1.300 -0.0243  0.4705 -0.1325
 9360W        W22774   9.602  12.247   5.100 -0.1915 -0.0563 -0.0573
 9361W        W22775   9.790   0.579   1.168  0.0710  0.1711  0.0884
 9362W        W22776   8.354  16.361  16.457  0.2709 -0.0699 -0.4244
 9363W        W22777  17.643  10.353   2.796  0.1726 -0.0049 -0.0557
 9364W        W22778  16.397  17.252   3.340  0.1245 -0.0574 -0.1774
 9365W        W22779   1.713  14.907   2.732  0.1429 -0.2188 -0.2673
 9366W        W22780   0.271   9.686   1.029  0.1141  0.2227 -0.0617
 9367W        W22781  11.001   8.038  12.512 -0.1651 -0.0662 -0.2083
 9368W        W22782   7.136  11.891  11.388  0.0600 -0.0258 -0.5097
 9369W        W22783   3.238   2.615   4.688 -0.3339  0.0923 -0.1034
 9370W        W22784   8.813   5.441   4.601 -0.1401  0.0154 -0.0824
 9371W        W22785  13.725  15.083  13.593  0.1885  0.0281  0.0395
 9372W        W22786   9.086   1.125  14.219  0.2479 -0.3357 -0.0095
 9373W        W22787  17.477   6.465  16.233  0.0116 -0.1519  0.0113
 9374W        W22788  14.298   2.640  10.585 -0.1179  0.1438 -0.2164
 9375W        W22789   7.958   3.134   5.215 -0.1515 -0.2364 -0.4926
 9376W        W22790  18.288  16.533   5.123 -0.2063  0.1625  0.1274
 9377W        W22791   7.945   8.298  14.824  0.0079  0.2011 -0.0805
 9378W        W22792   8.365   5.865  11.650 -0.1264  0.2391 -0.0632
 9379W        W22793  12.984   5.524  11.568  0.1014  0.1205  0.2817
 9380W        W22794  14.115   8.280  12.267  0.2494  0.2139  0.0585
 9381W        W22795   0.200   8.219  10.318 -0.1328  0.2350 -0.0168
 9382W        W22796  12.493   8.434   3.567 -0.1416 -0.1364  0.1967
 9383W        W22797   5.330  12.413  14.063  0.0686  0.3913  0.0340
 9384W        W22798   8.172  15.375   0.540 -0.1988 -0.2350  0.0386
 9385W        W22799  15.428   3.080   2.220 -0.0360 -0.0172 -0.2048
 9386W        W22800  11.076  11.410  11.425 -0.2448  0.0387  0.1000
 9387W        W22801   8.413  12.436   3.878  0.0955 -0.0298 -0.2448
 9388W        W22802   6.798   0.272  11.806 -0.2534  0.0844  0.1953
 9389W        W22803   5.429   9.500  16.208 -0.3469 -0.2598 -0.1457
 9390W        W22804   3.061  16.516  14.016 -0.0492 -0.1479 -0.2067
 9391W        W22805   5.183  16.711  15.849  0.0816 -0.0297  0.0829
 9392W        W22806  10.232   0.962   9.888  0.0602 -0.2439  0.0277
 9393W        W22807  17.050   3.131   5.069  0.1180 -0.1081  0.0283
 9394W        W22808  12.148  13.658  15.206  0.0691  0.1251  0.4243
 9395W        W22809  18.143   8.788   0.043 -0.0208 -0.1817  0.1895
 9396W        W22810   4.294  12.566   3.577  0.3765  0.0248  0.1623
 9397W        W22811  11.464   3.266   4.997 -0.3329  0.0269 -0.0536
 9398W        W22812   7.000   7.343   3.497 -0.2086  0.1730  0.1724
 9399W        W22813   3.220  14.743  13.822  0.4481  0.1044  0.0681
 9400W        W22814  16.848  15.447  11.504 -0.1708  0.1237  0.1849
 9401W        W22815  13.635  12.756   2.995  0.0307 -0.1394 -0.2074
 9402W        W22816   2.849  13.431  13.599 -0.0988 -0.0118  0.0246
 9403W        W22817   0.105   8.488   1.933  0.3013  0.1447 -0.3091
 9404W        W22818   2.013  16.469   5.115 -0.0240 -0.2724  0.1177
 9405W        W22819  10.917   3.463  13.399 -0.1330 -0.5052  0.1820
 9406W        W22820  13.009  10.769  11.695  0.0589  0.1570  0.3221
 9407W        W22821  18.145   5.181  15.922  0.0788 -0.1069 -0.1715
 9408W        W22822  18.132  11.555  11.185  0.2188 -0.0446 -0.0606
 9409W        W22823   7.031   0.389  16.341 -0.0727  0.3611  0.1049
 9410W        W22824  13.242   7.647  10.880  0.2602 -0.2840  0.0535
 9411W        W22825  13.463  16.090   4.459  0.1370  0.1801 -0.0690
 9412W        W22826   0.993  12.971  12.875 -0.1188 -0.0208 -0.3197
 9413W        W22827   9.913   2.494   4.154  0.1527  0.2625  0.4403
 9414W        W22828  12.805   6.316   2.658  0.1318 -0.4212  0.0107
 9415W        W22829  10.800   4.442  13.256 -0.0793  0.0568 -0.1289
 9416W        W22830   1.171  10.620  11.830  0.1801 -0.1806  0.1823
 9417W        W22831  15.553   9.679  11.410  0.0166 -0.0592  0.0269
 9418W        W22832   9.140  11.959   0.103  0.0404 -0.0612  0.1759
 9419W        W22833   5.433   3.968  15.512 -0.0868 -0.0830  0.0213
 9420W        W22834   8.702   2.673   2.049  0.2009  0.1981 -0.0697
 9421W        W22835  14.326   9.657   1.976  0.1436 -0.3182  0.2046
 9422W        W22836   3.572   5.277  14.636 -0.1029 -0.0836 -0.0563
 9423W        W22837   2.174   2.081   0.350  0.4308 -0.4022  0.1004
 9424W        W22838   3.272   8.543   0.320 -0.0825 -0.2731  0.2080
 9425W        W22839  10.990   3.579   0.537 -0.0473  0.3928 -0.5449
 9426W        W22840  17.434  17.948   4.349  0.2288 -0.1245 -0.4314
 9427W        W22841   4.493  11.885  13.552  0.0432  0.2256  0.0275
 9428W        W22842  17.218  10.361   1.111  0.2824 -0.0432  0.1498
 9429W        W22843   8.414   0.940  13.176 -0.1337 -0.0769 -0.1750
 9430W        W22844  13.256  17.735   4.115 -0.1351  0.0488  0.2918
 9431W        W22845  12.609   2.041   2.158  0.0010 -0.1119 -0.0169
 9432W        W22846   4.845   7.479   2.611 -0.3911  0.1960  0.2197
 9433W        W22847  15.771   5.834   1.364 -0.1335 -0.2479  0.3736
 9434W        W22848  15.038  17.120  14.750  0.0477 -0.0900  0.1373
 9435W        W22849   9.669   4.431  13.365  0.1524 -0.1515 -0.1367
 9436W        W22850  13.783   7.421  14.022 -0.0208  0.1080 -0.1142
 9437W        W22851  16.218   5.427  15.069 -0.3528  0.2013 -0.0484
 9438W        W22852   3.815   2.419   4.512 -0.0970 -0.1183  0.0049
 9439W        W22853  12.512  14.516   0.542  0.0130 -0.1874 -0.3060
 9440W        W22854  13.130  12.253  13.581 -0.0497  0.4026 -0.0514
 9441W        W22855   6.329   7.585  14.325  0.0760 -0.3541  0.0101
 9442W        W22856   2.441  15.641  14.570 -0.1765  0.2062 -0.3125
 9443W        W22857  16.795  17.361   5.933 -0.0673 -0.0554  0.3330
 9444W        W22858  13.404   5.915   0.601  0.1230  0.2979 -0.1337
 9445W        W22859   9.542   7.821  11.958  0.1838  0.1210  0.0631
 9446W        W22860   6.235   0.916   5.399  0.2999 -0.0163  0.1139
 9447W        W22861   6.795  10.488  14.884  0.0160  0.0528 -0.0911
 9448W        W22862  14.376  11.651  13.420 -0.2715  0.0252 -0.0067
 9449W        W22863  14.352  12.881  14.073  0.2493 -0.3407 -0.0595
 9450W        W22864  13.400   1.657   3.519 -0.0320 -0.0324 -0.0974
 9451W        W22865  18.211   2.262   3.499 -0.0986 -0.0445  0.1100
 9452W        W22866   4.713   0.179   2.527  0.3003 -0.1522  0.2434
 9453W        W22867   7.912   2.756   4.861 -0.0342 -0.4716 -0.0239
 9454W        W22868  14.701   1.641   2.607 -0.2595  0.0138 -0.0723
 9455W        W22869   1.815   5.997   1.322 -0.0698 -0.0076 -0.1393
 9456W        W22870   7.965  10.098   3.430  0.0276  0.1441 -0.1063
 9457W        W22871   5.585  14.402   2.524  0.0315  0.1610 -0.0172
 9458W        W22872   0.942  13.365   6.200  0.0890  0.2256  0.3555
 9459W        W22873  10.060  13.644   1.605 -0.1940  0.0768 -0.0309
 9460W        W22874   2.878  11.074  14.137 -0.0024  0.3070 -0.0294
 9461W        W22875  11.151  13.153  12.432  0.0147  0.0602 -0.1704
 9462W        W22876   1.153  11.451   5.077 -0.1001 -0.1585  0.2771
 9463W        W22877  17.691   7.114   5.173 -0.0990  0.0588 -0.0206
 9464W        W22878   4.114   9.175  16.023 -0.0500  0.1950  0.0503
 9465W        W22879  10.513   7.189  13.474  0.2452 -0.0340 -0.0530
 9466W        W22880  10.433  12.565  12.117 -0.0255 -0.1446 -0.2326
 9467W        W22881   9.232  16.925   1.336 -0.2796 -0.2185 -0.0178
 9468W        W22882  17.209   1.324  13.488 -0.0504  0.4106 -0.1961
 9469W        W22883  15.739   7.422  12.092  0.1087  0.2348  0.1794
 9470W        W22884   9.558  16.800  14.508  0.1225  0.2229  0.1050
 9471W        W22885   9.209  15.207   5.330  0.4034 -0.1928  0.0377
 9472W        W22886   5.046   5.047  13.368 -0.2570  0.0059 -0.0092
 9473W        W22887  12.551  11.283  12.240  0.1766  0.1860  0.2225
 9474W        W22888   7.819   2.422   1.317 -0.2027  0.2775 -0.2177
 9475W        W22889  12.857  15.121  14.395 -0.0404  0.3413 -0.0979
 9476W        W22890   5.179  11.174   3.914 -0.0280  0.1527 -0.1208
 9477W        W22891   1.285   2.721  15.754 -0.1822 -0.0901 -0.0256
 9478W        W22892  14.957   3.027   2.062  0.1020  0.0454  0.0913
 9479W        W22893  15.628  11.045   6.649 -0.1345  0.4963  0.1470
 9480W        W22894  11.471  10.539   5.251  0.1891 -0.0610  0.0103
 9481W        W22895   0.708  16.817  11.176  0.2509 -0.0329 -0.1096
 9482W        W22896  14.606  11.398   5.811 -0.0057  0.0415  0.0146
 9483W        W22897   2.454  15.758  15.735 -0.2165 -0.2179  0.2290
 9484W        W22898   4.733  17.137  11.913  0.1420 -0.0395 -0.1367
 9485W        W22899   9.184  12.870  15.270 -0.1393 -0.2208 -0.0130
 9486W        W22900   1.973  12.887   2.613  0.0093 -0.1854  0.1283
 9487W        W22901  14.941  17.097   0.783 -0.1517 -0.2056 -0.1015
 9488W        W22902   8.807  10.363   0.836  0.0657  0.1162 -0.3022
 9489W        W22903   9.499  10.659   2.988 -0.1031 -0.0600 -0.0320
 9490W        W22904   9.256   0.451   0.889 -0.1987 -0.1815  0.1568
 9491W        W22905  18.004   8.454  15.253 -0.0669  0.2873  0.2646
 9492W        W22906  11.592   1.841   0.445  0.0139  0.1560  0.2425
 9493W        W22907   8.536   8.127  15.337 -0.0901 -0.2437  0.2467
 9494W        W22908   9.864   1.097   1.091 -0.2879 -0.0637  0.0863
 9495W        W22909   7.073   6.405  11.289 -0.2330  0.0755 -0.0454
 9496W        W22910  17.690   3.734   9.852 -0.1531 -0.1335  0.4907
 9497W        W22911  12.605  13.200   0.256 -0.1092  0.0614  0.2707
 9498W        W22912  12.201   6.809  11.909  0.0843  0.0350 -0.2992
 9499W        W22913   2.255   6.043   4.148 -0.1699 -0.0310  0.0358
 9500W        W22914   2.847   4.610   5.329  0.1124 -0.1198  0.0102
 9501W        W22915  18.372  16.777   2.414  0.1437  0.0922 -0.0585
 9502W        W22916   2.588  14.785   3.580  0.3272 -0.3962 -0.1369
 9503W        W22917   2.614  13.267   5.285 -0.3840 -0.1110  0.0419
 9504W        W22918  11.524   9.992  13.288 -0.1599 -0.1644  0.2472
 9505W        W22919   4.929  10.568   5.826  0.4167  0.0517  0.1355
 9506W        W22920  17.094  12.615  15.166  0.4117 -0.2021  0.0277
 9507W        W22921   7.922   5.308   6.273  0.0528  0.2069  0.3800
 9508W        W22922  13.674   3.992   5.649 -0.1112  0.0481  0.0574
 9509W        W22923  14.688  11.123   1.872  0.1458 -0.3788  0.1656
 9510W        W22924   5.202  12.738  12.968  0.1362  0.1317 -0.1236
 9511W        W22925  10.996   4.841  12.989 -0.2365  0.1591  0.0496
 9512W        W22926  16.371   2.979   2.305 -0.1550 -0.1282 -0.1729
 9513W        W22927   3.266   2.360  15.266  0.1112  0.2104 -0.0890
 9514W        W22928   3.923   2.285   3.758  0.0545 -0.1537 -0.2592
 9515W        W22929   0.066  10.888  10.506 -0.3294 -0.0544 -0.2761
 9516W        W22930   6.753   4.121  10.253  0.1510 -0.0960 -0.1077
 9517W        W22931  14.319   1.865  14.394 -0.3227 -0.0808  0.1265
 9518W        W22932   0.910   5.793  12.535 -0.1715 -0.2117 -0.1553
 9519W        W22933   5.319  12.440  12.566  0.0263  0.0068  0.0372
 9520W        W22934   0.803   9.247   5.498 -0.1018  0.0718 -0.2763
 9521W        W22935  12.507   7.821   1.268  0.0808  0.0349 -0.2833
 9522W        W22936  17.152   4.833   2.057 -0.0230  0.0175  0.0187
 9523W        W22937   9.087  10.923  12.397 -0.0434  0.1427  0.0062
 9524W        W22938   9.102  13.328   1.767  0.1996 -0.0156  0.0677
 9525W        W22939   7.674   5.891  15.367  0.0785  0.0264  0.3390
 9526W        W22940  15.647  13.795   6.504 -0.0083  0.1019 -0.1196
 9527W        W22941  16.476   5.067   5.153  0.1797 -0.4824 -0.0590
 9528W        W22942   9.277  13.435   1.321 -0.1023 -0.4085 -0.2389
 9529W        W22943  13.253   9.161  14.375 -0.0950 -0.3618 -0.1026
 9530W        W22944  13.476   0.094  16.187  0.0462 -0.1744  0.1562
 9531W        W22945   6.883   1.883   1.144 -0.0443  0.2385 -0.3018
 9532W        W22946   3.679   2.593   2.963  0.0294 -0.0878  0.1504
 9533W        W22947  16.110  10.908  15.529  0.1217 -0.4230 -0.0313
 9534W        W22948   7.353   5.513   2.069 -0.2733  0.2123 -0.2105
 9535W        W22949  10.964   4.804  15.619  0.1298 -0.0087  0.4009
 9536W        W22950  11.620   3.095  11.216 -0.0456  0.0880  0.0546
 9537W        W22951  15.463   7.673   1.887 -0.0304  0.2946 -0.1301
 9538W        W22952   1.100  12.921   1.586 -0.1703 -0.1006  0.1009
 9539W        W22953  17.342  10.923  15.322  0.0442 -0.0913  0.0782
 9540W        W22954   0.541   6.112   2.377  0.2774 -0.2167  0.1515
 9541W        W22955  10.662   7.719  10.398 -0.1425 -0.0148  0.0755
 9542W        W22956  13.999   4.978  13.887  0.2057 -0.2120 -0.2348
 9543W        W22957   8.098   7.818  11.869 -0.0161 -0.1128 -0.0383
 9544W        W22958   7.546  10.139   3.700  0.0195 -0.1070 -0.0495
 9545W        W22959  16.661  17.659  11.801 -0.2010  0.1895 -0.3283
 9546W        W22960   7.214  12.942   0.484  0.0976 -0.2025 -0.1964
 9547W        W22961   6.648  16.918   0.152  0.2975 -0.1159  0.3961
 9548W        W22962  17.077  13.502   4.767  0.0138  0.0563 -0.2583
 9549W        W22963   6.648  12.031  11.576 -0.1556  0.2718  0.0233
 9550W        W22964   8.346   5.227   0.836  0.2436 -0.0360 -0.4568
 9551W        W22965   2.961   6.694  13.020  0.0151 -0.1384  0.1547
 9552W        W22966   6.570   6.202   3.721  0.0326  0.2464 -0.1148
 9553W        W22967  13.245   8.475  10.643 -0.0126  0.0537  0.1855
 9554W        W22968  10.150  10.916   4.423  0.2040  0.1847 -0.1952
 9555W        W22969  12.702   7.040  13.162 -0.1574 -0.2794 -0.1210
 9556W        W22970   8.414  11.156  11.312 -0.1013  0.1864  0.0915
 9557W        W22971  10.808   9.597   1.426  0.2132 -0.2015  0.1996
 9558W        W22972   5.060  12.033   0.815  0.1598 -0.0889 -0.1688
 9559W        W22973   2.167   2.082  10.907 -0.2600 -0.0606  0.0596
 9560W        W22974   8.966   4.446  11.283  0.0144 -0.0862 -0.0822
 9561W        W22975  10.930   2.444   1.770 -0.0069 -0.1032 -0.2918
 9562W        W22976  10.479   1.358  15.177 -0.0326 -0.0860  0.0731
 9563W        W22977   7.015  17.375   0.258  0.1723  0.2870  0.3037
 9564W        W22978  16.131  10.100  15.803 -0.0151  0.0177 -0.0027
 9565W        W22979  12.805   6.834   3.679  0.2160  0.2718  0.1333
 9566W        W22980   7.317   8.598  12.147  0.1094 -0.0433  0.1019
 9567W        W22981   9.693   6.081   5.466  0.0667  0.0679  0.2491
 9568W        W22982  15.855   9.544   1.064  0.2814  0.2935  0.1264
 9569W        W22983  15.557   4.791  14.896 -0.0288  0.0519  0.1171
 9570W        W22984   5.909   8.356   5.666  0.1479 -0.0339 -0.0929
 9571W        W22985   9.979   4.662  13.959  0.1640  0.2879 -0.5427
 9572W        W22986  17.375   5.462  10.768  0.0262  0.2351  0.3787
 9573W        W22987   3.734  14.479   1.436  0.0631  0.1418  0.2440
 9574W        W22988   4.504  12.135  10.964  0.0192  0.1603  0.3560
 9575W        W22989   8.428   8.413   3.867  0.2240 -0.0278  0.0118
 9576W        W22990   4.912  17.768   4.378  0.0684  0.2153 -0.1558
 9577W        W22991   1.200   0.966   0.648  0.0397 -0.0354 -0.3697
 9578W        W22992  13.262  17.431   1.825  0.3207  0.1621  0.0125
 9579W        W22993   5.766   9.275   2.091 -0.1204  0.3562  0.1790
 9580W        W22994  10.055  16.351   1.876 -0.2057  0.2201  0.1814
 9581W        W22995   4.306  12.603   2.610 -0.1135  0.0417 -0.3409
 9582W        W22996   8.260   2.630  14.414 -0.1012  0.1151  0.1835
 9583W        W22997  15.380  11.312   3.926  0.0131  0.0709  0.2870
 9584W        W22998   3.121  10.836  11.430 -0.1934  0.0023 -0.1668
 9585W        W22999   5.027   7.822   5.986 -0.2304 -0.0381 -0.0142
 9586W        W23000   5.715   9.589   5.767  0.0910  0.0741 -0.3145
 9587W        W23001   5.819   6.218  16.465 -0.1529 -0.0877 -0.0257
 9588W        W23002   0.768  15.459   3.586 -0.2526 -0.1679 -0.2651
 9589W        W23003  13.401   5.764   2.422 -0.3908  0.0879  0.1008
 9590W        W23004   6.114   4.513   3.628 -0.1759 -0.0402  0.1470
 9591W        W23005   2.115   5.620   5.178  0.1865 -0.0295  0.2833
 9592W        W23006  12.789   2.892  15.813  0.1509  0.2017  0.0629
 9593W        W23007   2.358   2.127   4.268 -0.0149 -0.1276 -0.1589
 9594W        W23008  12.536  10.983  13.010  0.2806  0.1509 -0.4496
 9595W        W23009  10.545   6.552   0.630  0.1293  0.0673  0.0297
 9596W        W23010   0.361   5.775  11.437 -0.1413 -0.1864 -0.0129
 9597W        W23011   7.024   9.148  14.320  0.0153 -0.4714  0.1855
 9598W        W23012  16.626  13.620  11.658 -0.0262 -0.2213  0.0747
 9599W        W23013  13.566  10.640   5.373 -0.1856  0.0674 -0.3478
 9600W        W23014  16.405   8.329  13.915  0.0531  0.3997 -0.0775
 9601W        W23015   8.487   9.717  10.081 -0.0171  0.0252 -0.2377
 9602W        W23016   0.453   6.560   2.305  0.1478 -0.2026  0.0254
 9603W        W23017  16.101  16.882   6.219  0.1563 -0.0558 -0.0742
 9604W        W23018  10.297   9.714   1.655  0.0096  0.1530 -0.0628
 9605W        W23019  10.666  11.359  13.250  0.1769 -0.1133 -0.2513
 9606W        W23020   8.118   6.552   3.625  0.0615 -0.0995  0.1026
 9607W        W23021   7.849   5.525   1.998 -0.0064  0.0136 -0.3441
 9608W        W23022   4.533   1.947   0.096  0.2963 -0.2836 -0.2163
 9609W        W23023  18.011   4.461   3.497  0.0113 -0.0661  0.0549
 9610W        W23024   8.798  11.318  12.213  0.2723  0.0071  0.1954
 9611W        W23025  12.419  17.907   1.585  0.0811 -0.2281  0.0506
 9612W        W23026  16.344  12.005  11.672  0.1957 -0.0620  0.0013
 9613W        W23027  16.762   1.590   4.122  0.1919  0.1867  0.3912
 9614W        W23028   1.333  16.366   7.324  0.1140  0.1238  0.0944
 9615W        W23029   6.650   0.465   5.448 -0.0541  0.0537  0.3385
 9616W        W23030  16.887   0.073   5.317 -0.2959 -0.0241 -0.1184
 9617W        W23031   5.945  11.244   5.021 -0.1014 -0.3128  0.4185
 9618W        W23032  10.474   4.227   2.874 -0.2434 -0.2860  0.1497
 9619W        W23033   7.926   8.772  13.437 -0.1092 -0.0952  0.1946
 9620W        W23034   4.760   3.062   6.355 -0.3340  0.0003  0.0974
 9621W        W23035  11.554   0.356   2.802  0.1729  0.2236  0.1291
 9622W        W23036  11.034  11.129  11.828 -0.0326  0.1684  0.4182
 9623W        W23037   9.510   9.067  10.978  0.0547  0.2156  0.0952
 9624W        W23038   0.981   2.526  14.310 -0.1912  0.3237 -0.1326
 9625W        W23039   3.949  10.625   5.184  0.1519  0.2213 -0.1481
 9626W        W23040   9.599   7.288   0.659  0.0185  0.0299  0.0794
 9627W        W23041   1.199   3.717   2.996 -0.0591 -0.0079  0.0989
 9628W        W23042  16.211  12.268  12.873 -0.1430 -0.1184  0.2460
 9629W        W23043  12.061  11.342  13.685  0.0059  0.2285  0.0367
 9630W        W23044  11.555  18.068   0.119  0.1204 -0.1000 -0.3448
 9631W        W23045   3.024   6.730  13.915  0.1004 -0.2526  0.0815
 9632W        W23046  18.358   5.670   1.089  0.1594 -0.2326 -0.1500
 9633W        W23047   4.185  11.388  16.507  0.2242  0.1346  0.1504
 9634W        W23048  14.728   2.873  12.563  0.0689 -0.2176  0.3281
 9635W        W23049   2.343  12.244   0.067  0.1551 -0.0926  0.1240
 9636W        W23050   1.135   7.865  10.176 -0.0088  0.0260 -0.0446
 9637W        W23051  14.667   1.854  12.272 -0.1361  0.1923  0.0529
 9638W        W23052  14.080  13.872   1.991 -0.1091 -0.1025 -0.0357
 9639W        W23053  17.581   1.390   0.768 -0.0452  0.1609 -0.1210
 9640W        W23054   6.384  16.546   4.162  0.0665 -0.0301 -0.0091
 9641W        W23055   1.177  17.230  15.122 -0.1139  0.1981  0.2847
 9642W        W23056   1.618  12.032  12.160 -0.2128  0.2308  0.0839
 9643W        W23057   3.726   2.868   0.310  0.2570  0.2641  0.0844
 9644W        W23058  15.506   1.994  11.778  0.2013  0.0941  0.1505
 9645W        W23059   4.805  14.676  15.490 -0.1927 -0.0606 -0.1884
 9646W        W23060  13.441   9.147  11.379  0.2213 -0.1188 -0.1469
 9647W        W23061   1.306  16.843  16.123 -0.1852  0.2107  0.3647
 9648W        W23062   5.479   2.212   4.914  0.1154  0.1350  0.1960
 9649W        W23063  14.842  11.520   2.170  0.0621 -0.0686  0.0879
 9650W        W23064  12.272  10.909  14.277 -0.1317  0.0068  0.2792
 9651W        W23065  14.964  18.039   3.308  0.0771 -0.0398  0.0365
 9652W        W23066  14.582   0.072   1.779  0.1863 -0.1151 -0.0643
 9653W        W23067  10.597  14.732  11.613  0.0245 -0.3077  0.1637
 9654W        W23068   6.228  17.851   3.690  0.1130  0.1406  0.0726
 9655W        W23069   1.205   0.077  16.033 -0.0502  0.2387  0.2440
 9656W        W23070   3.919   8.552  11.101 -0.1079 -0.0566  0.1586
 9657W        W23071  15.475  12.573   5.181  0.0075  0.0955 -0.4037
 9658W        W23072   2.659   2.007   2.222  0.0227  0.3106  0.0291
 9659W        W23073  11.163   2.297   4.452  0.0202 -0.1923 -0.2615
 9660W        W23074   2.638  16.551  12.641  0.1320  0.1345  0.1108
 9661W        W23075   3.719   1.221   5.361  0.4597 -0.0787 -0.0048
 9662W        W23076  12.438   1.054   2.936 -0.0656  0.0173  0.1773
 9663W        W23077   9.540  15.140   0.196  0.0952  0.3505  0.1605
 9664W        W23078  12.707  13.154  16.259  0.0654  0.1620  0.2106
 9665W        W23079  10.356   2.072   3.938  0.2079 -0.0445 -0.2470
 9666W        W23080   4.863   7.194  11.465 -0.0458  0.1899 -0.3049
 9667W        W23081   5.682   6.142   3.197  0.0006  0.0837  0.0070
 9668W        W23082  12.101  12.265  13.550  0.1306 -0.0099  0.2874
 9669W        W23083   5.124   9.593   0.082  0.1952  0.1464 -0.0377
 9670W        W23084  14.869   1.098  15.507 -0.0856 -0.2094 -0.1859
 9671W        W23085   7.236   6.178  13.091 -0.1093  0.1624  0.3343
 9672W        W23086  14.712   2.983   3.916  0.0086  0.1176  0.0456
 9673W        W23087  11.650  13.398   3.202 -0.3266  0.0256  0.0357
 9674W        W23088  15.097   1.076  11.810  0.3242 -0.2288  0.0533
 9675W        W23089  18.231   2.249   5.802  0.0919 -0.1861 -0.2250
 9676W        W23090   6.045   3.325  10.918  0.3226 -0.2904 -0.2776
 9677W        W23091  17.708  16.410  13.202 -0.1792 -0.2870  0.0724
 9678W        W23092   8.891   3.470  16.015  0.0173  0.2426 -0.1832
 9679W        W23093   4.184  16.603  11.937  0.1737  0.1226 -0.3181
 9680W        W23094  14.458  15.985   4.853 -0.1247 -0.0265 -0.0007
 9681W        W23095   4.384  11.259   3.560  0.1077 -0.0782 -0.0976
 9682W        W23096   8.600   7.713  13.580 -0.1405  0.0215 -0.0547
 9683W        W23097   4.931  17.631   0.804  0.0760 -0.1386 -0.0763
 9684W        W23098   1.134  16.334   3.186  0.2109  0.0011 -0.0730
 9685W        W23099  13.447   8.740   1.180  0.0054  0.0111  0.0683
 9686W        W23100   6.920   2.158   5.794  0.2235  0.0369 -0.0812
 9687W        W23101  12.540  12.281  15.730  0.0964 -0.3707  0.1177
 9688W        W23102  13.460   9.885  10.414 -0.0573  0.0029  0.0333
 9689W        W23103   7.712  17.268  11.844 -0.2576  0.0031 -0.2551
 9690W        W23104   2.758   5.705  11.816 -0.1004 -0.0123  0.1903
 9691W        W23105   2.909  10.260  16.453  0.3110 -0.2806  0.2138
 9692W        W23106   0.078   7.547   5.145  0.1992 -0.1731 -0.1094
 9693W        W23107   1.044   2.932   1.006 -0.0634  0.2350 -0.0626
 9694W        W23108  17.194   9.897   3.493  0.2988  0.0229 -0.0428
 9695W        W23109  11.449   4.702   2.180 -0.0484 -0.1782 -0.0851
 9696W        W23110   0.375  12.324   5.511  0.2214 -0.0162 -0.2118
 9697W        W23111   9.559  11.146  14.532  0.1164  0.1160 -0.1603
 9698W        W23112  14.459   3.674  14.165 -0.0238  0.2757  0.0163
 9699W        W23113   1.378   4.399   3.708  0.0833 -0.2037  0.1149
 9700W        W23114   8.778   3.265  12.741 -0.0596 -0.1988  0.2010
 9701W        W23115  12.556  13.127  14.046  0.1122  0.0758 -0.0774
 9702W        W23116   0.629   3.877  14.914 -0.1313 -0.1693 -0.4104
 9703W        W23117  17.743   4.246   2.588  0.1791  0.1231 -0.1239
 9704W        W23118  12.367  17.149  15.716  0.1039 -0.3980 -0.2523
 9705W        W23119  10.912  16.135  11.470 -0.1003 -0.0936  0.0211
 9706W        W23120  14.179   2.321   2.310  0.0053 -0.2002 -0.0380
 9707W        W23121   6.010   1.539   1.565  0.0542  0.1974 -0.1979
 9708W        W23122   5.401   8.386  10.577  0.2871 -0.0918  0.5852
 9709W        W23123   6.924  15.788  14.784  0.1187  0.4834  0.2346
 9710W        W23124  12.735  10.635  11.263  0.0487 -0.5157  0.1579
 9711W        W23125  14.901   1.390   1.442 -0.2979 -0.0779  0.2308
 9712W        W23126   2.134   0.977   2.000 -0.0380 -0.1092 -0.1117
 9713W        W23127   8.415   4.502   5.118 -0.1300 -0.0787 -0.0698
 9714W        W23128   0.837  18.062   1.453 -0.0755  0.0130 -0.0915
 9715W        W23129   3.530   3.357   4.242  0.1266 -0.2281 -0.0651
 9716W        W23130  13.584   9.578  12.747 -0.0739  0.2223  0.2930
 9717W        W23131   7.506   2.431   3.774 -0.0994  0.0269  0.1411
 9718W        W23132   7.847  14.323   1.951  0.2135  0.0162 -0.2802
 9719W        W23133  18.349   9.446   2.901  0.1925 -0.1970  0.1396
 9720W        W23134   2.483  15.533  13.229 -0.0935 -0.1635 -0.1159
 9721W        W23135   5.524   8.923   1.696 -0.1398  0.0153  0.0371
 9722W        W23136   2.444   0.790   0.245  0.0545  0.0706  0.1603
 9723W        W23137  17.086   4.708  13.880 -0.1647  0.1451 -0.1761
 9724W        W23138   0.980  11.450   0.230  0.1430  0.1500 -0.0243
 9725W        W23139  11.162   9.621   4.879  0.0582  0.2152  0.2789
 9726W        W23140   8.496   1.348   4.936 -0.0350  0.0849  0.3379
 9727W        W23141   5.578  17.317  15.342  0.2478  0.1067  0.2159
 9728W        W23142  10.098  10.696  15.460  0.1615  0.3552 -0.0718
 9729W        W23143  10.694  14.070   1.095  0.0690 -0.1084 -0.2126
 9730W        W23144   6.465  15.475  16.012  0.1399  0.1129  0.1610
 9731W        W23145   7.256  17.298  12.048 -0.1133  0.2351 -0.0757
 9732W        W23146  12.628  10.860   5.358  0.0610  0.0148  0.1183
 9733W        W23147   0.195   7.540   3.501  0.3700  0.0690  0.1794
 9734W        W23148  12.687   2.332   4.942  0.0607 -0.2613 -0.0850
 9735W        W23149   1.802  12.373  12.853  0.1192  0.1477  0.0349
 9736W        W23150  11.083  13.581   1.393 -0.0592  0.1576  0.0617
 9737W        W23151   1.570  10.737   4.261 -0.1735  0.3612  0.1259
 9738W        W23152   7.477  10.152  13.065 -0.2591  0.2884 -0.0891
 9739W        W23153   3.459   7.915  14.487  0.3257  0.0807  0.2692
 9740W        W23154   5.180  18.055  11.137  0.1230 -0.2452 -0.0176
 9741W        W23155   7.512  10.779  14.841  0.0828  0.1323  0.1206
 9742W        W23156   2.711   6.272   4.140  0.3555  0.1016 -0.0226
 9743W        W23157   9.368   1.299   1.274 -0.0485  0.1235  0.0791
 9744W        W23158  11.160   6.897  11.035  0.2975 -0.0394 -0.1548
 9745W        W23159  15.908   1.983   1.461 -0.0156  0.0385 -0.1039
 9746W        W23160  12.059  11.002   3.402 -0.1426 -0.3395  0.0902
 9747W        W23161  16.518  15.867  14.252  0.4355 -0.1723  0.0448
 9748W        W23162  13.594  10.560   0.133  0.2271 -0.1228 -0.0161
 9749W        W23163   1.622   1.340  10.762 -0.1874  0.3161 -0.1153
 9750W        W23164   3.795   4.518   1.486 -0.1887  0.1112  0.1283
 9751W        W23165   9.734  16.352  13.342  0.3442 -0.0862 -0.2689
 9752W        W23166   4.218   9.166   0.355  0.3085  0.1151  0.1307
 9753W        W23167   6.343  15.085  16.343  0.0678 -0.0011  0.1204
 9754W        W23168  10.632   8.575  11.982  0.1699 -0.1598 -0.2243
 9755W        W23169   0.484   4.871  11.280 -0.2392 -0.1381  0.2101
 9756W        W23170  11.831   2.116  11.014 -0.0267 -0.0779  0.0809
 9757W        W23171   0.683  16.707   0.249  0.1543  0.2221 -0.2014
 9758W        W23172   3.777  15.208   6.231 -0.1728  0.0353 -0.2762
 9759W        W23173   0.712  13.897   5.349 -0.1862 -0.0042 -0.3305
 9760W        W23174  13.924   4.907  10.785  0.1331 -0.0039 -0.1371
 9761W        W23175   3.031   9.853  10.255  0.2378  0.0041 -0.2306
 9762W        W23176  14.407   8.532   3.680  0.1496  0.1582  0.1873
 9763W        W23177   4.418  11.423   1.522  0.0768  0.2070  0.0183
 9764W        W23178   4.892   0.443   2.160  0.1663 -0.0394 -0.1567
 9765W        W23179  15.296   5.733   1.218 -0.0906 -0.0665  0.1274
 9766W        W23180   4.787  10.041   0.868  0.3491 -0.0591 -0.1574
 9767W        W23181   0.482  10.505  14.483 -0.2304  0.1375 -0.1045
 9768W        W23182  14.760  12.490   3.653 -0.0541  0.1171  0.2662
 9769W        W23183   1.041  10.076   3.572  0.1360 -0.1845  0.0393
 9770W        W23184  10.329   5.960   4.618  0.3478 -0.3771  0.0783
 9771W        W23185   2.704  13.458   4.747  0.1872 -0.0625 -0.1354
 9772W        W23186  18.186  12.353  10.556 -0.4091  0.0013 -0.2112
 9773W        W23187   7.330  14.263   4.273  0.2980 -0.1781 -0.1871
 9774W        W23188   6.100   0.146   5.772  0.0166  0.2086 -0.0921
 9775W        W23189  10.334   8.999  14.148 -0.0272 -0.2233  0.0699
 9776W        W23190   9.241   2.766  11.839  0.0591 -0.0726 -0.2838
 9777W        W23191   9.137  11.381  15.977  0.0446  0.0321  0.1260
 9778W        W23192  15.157   3.818  12.268 -0.0443  0.1376 -0.0348
 9779W        W23193  10.927   8.126   4.833 -0.1793  0.0056  0.2405
 9780W        W23194   1.539   1.850   4.171  0.0735 -0.2113 -0.0179
 9781W        W23195  18.313   7.933   4.441  0.2803 -0.0596 -0.0181
 9782W        W23196   9.741   9.724  16.228 -0.3487 -0.2644  0.0471
 9783W        W23197   8.238   1.735   0.063 -0.1766  0.0088 -0.1624
 9784W        W23198   9.732  17.390  11.459  0.0178  0.2031  0.1338
 9785W        W23199  16.357  13.587  14.849  0.2522  0.4308  0.1122
 9786W        W23200  12.244   5.049   9.909  0.1243  0.2417  0.0633
 9787W        W23201  12.697   4.165   2.961  0.0700  0.2506 -0.0666
 9788W        W23202   2.717   3.941  14.549  0.1128  0.2151  0.0541
 9789W        W23203   7.887  15.688  12.485 -0.2857  0.1510  0.0455
 9790W        W23204  16.248   5.446   1.763  0.0083  0.1151  0.3960
 9791W        W23205   6.110   6.444  15.944  0.1248 -0.0410 -0.1177
 9792W        W23206   0.988   5.767  14.035 -0.2099 -0.2235  0.3091
 9793W        W23207  13.531   1.303  12.806 -0.2980  0.0024  0.1354
 9794W        W23208  18.014   3.909   5.194 -0.0421  0.0344  0.0531
 9795W        W23209  18.184  16.962   4.254 -0.1010  0.0871  0.0011
 9796W        W23210   2.523   5.300  10.786 -0.2787 -0.0316  0.1699
 9797W        W23211   6.350   7.134  14.551 -0.2901 -0.2710 -0.1565
 9798W        W23212  12.518  10.981   4.552 -0.2130 -0.0528  0.2729
 9799W        W23213  10.604   4.555  12.223 -0.0055 -0.0086 -0.0323
 9800W        W23214  15.162  16.618  16.101  0.1617 -0.3229 -0.1337
 9801W        W23215   8.874   0.045   3.192 -0.0308 -0.0252 -0.2742
 9802W        W23216   9.922  17.216   1.184  0.0309 -0.0872  0.1346
 9803W        W23217  13.441  13.342   2.547  0.1682  0.2692  0.2457
 9804W        W23218  14.908   9.559  15.763 -0.0605 -0.0801 -0.1530
 9805W        W23219  13.825  14.849   6.477  0.4105 -0.3074 -0.2673
 9806W        W23220   1.283   5.109  13.554 -0.0609  0.0191  0.0701
 9807W        W23221  11.970   6.393   1.470  0.1480 -0.3351 -0.2316
 9808W        W23222  11.696   4.309  15.570  0.0821  0.0392  0.1918
 9809W        W23223   4.467  14.707  12.824 -0.0081  0.1128  0.2529
 9810W        W23224   6.189  16.925   2.123 -0.2758 -0.2048  0.3015
 9811W        W23225   7.046   9.044  15.246 -0.0902  0.2810  0.4209
 9812W        W23226   0.180   0.098   5.630 -0.1367 -0.0934 -0.0051
 9813W        W23227  13.746  17.959   5.596  0.1874  0.1745 -0.0664
 9814W        W23228  11.902   8.000   2.576 -0.0562  0.4041 -0.0998
 9815W        W23229   2.290  15.546   6.112 -0.1429  0.0199 -0.2362
 9816W        W23230   9.503  13.084   1.015  0.0969  0.1125 -0.1679
 9817W        W23231  14.301   6.538  14.243  0.2195 -0.2055  0.1060
 9818W        W23232   2.864  14.326   4.799 -0.0484  0.0061  0.1790
 9819W        W23233  10.531  12.198  12.859 -0.0467 -0.0410 -0.2281
 9820W        W23234  17.876  17.529  14.249  0.0881 -0.2040 -0.1567
 9821W        W23235  12.673  14.312  10.865  0.2274 -0.0741 -0.2799
 9822W        W23236  10.064  15.145   0.100 -0.0632 -0.2816  0.1228
 9823W        W23237   7.350   3.272   5.774  0.0034  0.2357  0.0085
 9824W        W23238   9.495  15.938   5.880 -0.0336 -0.1304  0.1838
 9825W        W23239  13.362  15.056   0.080 -0.0500  0.3335 -0.1463
 9826W        W23240   0.880   7.178   2.695  0.0496  0.1659 -0.2608
 9827W        W23241   0.323   3.780   1.643 -0.0923  0.2777  0.3759
 9828W        W23242   6.629   0.122   4.681 -0.0026 -0.2076  0.0790
 9829W        W23243   6.082  16.527  15.644 -0.2536 -0.2939 -0.2484
 9830W        W23244  11.903   3.079  13.774 -0.0536  0.0080  0.3687
 9831W        W23245  12.832   0.663   2.592 -0.2918  0.1738  0.4333
 9832W        W23246  13.319  11.011   3.203 -0.1665 -0.2153 -0.3721
 9833W        W23247  13.440  12.830  15.485  0.2112 -0.2555  0.0755
 9834W        W23248  10.471   0.157  13.226 -0.2605 -0.0003 -0.3197
 9835W        W23249  12.395   7.481   4.095  0.1657  0.0789 -0.3821
 9836W        W23250   0.478   9.342   2.374 -0.1046 -0.0097 -0.0774
 9837W        W23251   2.489   7.983  13.462  0.3417 -0.0919 -0.1008
 9838W        W23252   3.453   5.604  10.535 -0.1027 -0.4148 -0.0073
 9839W        W23253  15.198  14.463   1.883  0.3153 -0.1586  0.0160
 9840W        W23254  16.475   4.349   4.327 -0.1609  0.2037  0.2148
 9841W        W23255   2.679   5.526  13.486  0.0037  0.2602 -0.2386
 9842W        W23256   5.317   5.643   1.718  0.2243  0.3171  0.0291
 9843W        W23257  16.270  15.652   5.544  0.2403  0.0095  0.1015
 9844W        W23258   5.347  14.280   4.720 -0.2486 -0.1559  0.1804
 9845W        W23259   3.343  12.655   5.021 -0.1275 -0.0473  0.0620
 9846W        W23260   1.680   0.777   0.558 -0.1780  0.3211  0.2523
 9847W        W23261  11.510   5.121  14.704 -0.1157 -0.0107 -0.0691
 9848W        W23262   8.664  11.825  12.467 -0.3075 -0.0984 -0.2636
 9849W        W23263   9.957  15.401   1.678 -0.2475  0.2743 -0.4511
 9850W        W23264   1.852  10.245   0.822 -0.0195  0.0047 -0.1075
 9851W        W23265  14.315   1.942   4.547 -0.1323 -0.2908  0.2639
 9852W        W23266   3.318   2.924  12.148  0.0801  0.1975 -0.0756
 9853W        W23267  10.142   4.985   9.853 -0.1770  0.0751  0.1292
 9854W        W23268   9.335  11.687   5.082  0.1934 -0.0681  0.4197
 9855W        W23269   6.624  13.430   1.890  0.3460  0.2021  0.0324
 9856W        W23270   9.045  13.979  15.376 -0.1177 -0.1366  0.0341
 9857W        W23271   6.309   8.947  12.948  0.2958 -0.3178  0.0824
 9858W        W23272   9.332   3.078   1.614 -0.4482 -0.1519 -0.1780
 9859W        W23273  13.960  10.919   4.513 -0.0547 -0.2271 -0.1685
 9860W        W23274  14.083   2.033   1.867  0.0254 -0.2372 -0.0912
 9861W        W23275  17.311  15.810  12.673 -0.0038 -0.1610 -0.2489
 9862W        W23276   4.431   0.257  13.448  0.2774 -0.0508  0.0776
 9863W        W23277   5.956  17.796  13.237 -0.0499 -0.0506 -0.2125
 9864W        W23278  15.062  12.881   0.549  0.1678  0.2300 -0.1698
 9865W        W23279   2.717  10.546   1.721  0.2129 -0.2972  0.2028
 9866W        W23280   6.986   3.798   1.765 -0.0520 -0.0144  0.3606
 9867W        W23281   6.931   6.802  14.359 -0.1299  0.2021 -0.0220
 9868W        W23282   6.411   2.250  16.072  0.2744  0.1138  0.1383
 9869W        W23283   1.286  11.143   0.410 -0.0344 -0.0273 -0.3162
 9870W        W23284  14.416  11.397  12.474 -0.0750  0.1448  0.0191
 9871W        W23285  15.097  15.070   6.591  0.4092 -0.0165 -0.1134
 9872W        W23286  15.058   7.260  16.031 -0.0290  0.0128 -0.2390
 9873W        W23287   5.949   0.116  11.447 -0.0081 -0.0663 -0.0435
 9874W        W23288   9.921  17.695   3.549  0.1759 -0.4487 -0.3829
 9875W        W23289   4.286   6.702  11.885  0.0013 -0.0345  0.2074
 9876W        W23290   5.777  14.774  11.355 -0.1357  0.1692 -0.0801
 9877W        W23291   1.174  16.720   5.221 -0.1424 -0.0401  0.0419
 9878W        W23292   5.747   9.448   4.173  0.1619  0.0313  0.0197
 9879W        W23293  10.981  10.526  13.664  0.0835 -0.4396  0.1478
 9880W        W23294   1.487   0.755  13.114 -0.1814 -0.0263 -0.1106
 9881W        W23295   3.216   2.421  11.686 -0.4173 -0.2882 -0.0748
 9882W        W23296   6.617  12.904  10.385 -0.0886 -0.0197 -0.0443
 9883W        W23297   2.638  11.268  14.548 -0.4032 -0.3053  0.0661
 9884W        W23298   5.917   9.179   4.560  0.3495  0.0382  0.1525
 9885W        W23299  15.548  14.365  14.947 -0.4451  0.2186 -0.0843
 9886W        W23300   2.637   7.810  10.593 -0.1126 -0.0976  0.1839
 9887W        W23301   1.423   8.746  11.190  0.0497  0.1604  0.3526
 9888W        W23302   9.408  10.973   0.284  0.3408  0.1100  0.1253
 9889W        W23303  16.031  13.878  10.677  0.0601  0.5500  0.3261
 9890W        W23304  16.517   6.323  15.262 -0.4428  0.0486 -0.2999
 9891W        W23305   4.182   3.710   4.401 -0.2989 -0.0387  0.2085
 9892W        W23306   7.674  14.081   4.579  0.0661  0.1188  0.4230
 9893W        W23307   4.862   9.171  11.144 -0.0120 -0.1618  0.0117
 9894W        W23308   0.530  15.243  13.966  0.0174  0.5108  0.2941
 9895W        W23309   0.383  14.645   3.036  0.2101  0.3137 -0.1829
 9896W        W23310   1.702  13.631  12.472  0.2908  0.0598 -0.1676
 9897W        W23311  13.202  10.363   3.095  0.2869  0.0802  0.0444
 9898W        W23312   9.615  10.451  14.585 -0.2802  0.0838  0.0278
 9899W        W23313   2.555  11.512  10.809  0.1262 -0.1927  0.2031
 9900W        W23314   5.545   3.474  16.097  0.1453 -0.0837  0.1017
 9901W        W23315  11.158  12.037   4.359  0.2283 -0.0097 -0.0812
 9902W        W23316   2.495  11.491  13.515  0.2024 -0.0257 -0.1955
 9903W        W23317  12.269  13.545  13.802  0.1035 -0.1625 -0.1350
 9904W        W23318  11.693   9.877  16.110 -0.0516 -0.1884 -0.1114
 9905W        W23319   6.190  16.447   0.867 -0.1895 -0.0926 -0.0821
 9906W        W23320  10.981   3.594   0.022  0.1227  0.3945 -0.4996
 9907W        W23321  15.879   1.400   5.201 -0.1972  0.1752  0.0311
 9908W        W23322   8.520   0.335   1.840  0.3622  0.1577 -0.0453
 9909W        W23323   4.391   8.926  14.520  0.1987 -0.1577  0.2432
 9910W        W23324   6.989   9.364  11.417 -0.0336 -0.0460 -0.4209
 9911W        W23325  12.952   4.266   1.572  0.1793 -0.3070 -0.4097
 9912W        W23326   6.924   0.512  15.454  0.1081  0.2413  0.2129
 9913W        W23327  10.762  13.542   5.387  0.0489 -0.0927 -0.1435
 9914W        W23328  12.353  10.989  15.538 -0.2208  0.4060 -0.2792
 9915W        W23329  15.420   3.077  14.136 -0.4934  0.0689 -0.3671
 9916W        W23330  18.321  10.226  10.122 -0.2734 -0.0386  0.1090
 9917W        W23331   9.442  15.234   1.002 -0.0360 -0.0951  0.0288
 9918W        W23332   9.847   5.409  11.684  0.0955  0.0428  0.2422
 9919W        W23333   4.167   8.901   3.586  0.1164  0.0529 -0.0303
 9920W        W23334  15.550   8.871   2.838 -0.0313  0.0964  0.1797
 9921W        W23335  17.115   9.973   5.176  0.0005  0.2814  0.2344
 9922W        W23336   1.839   7.009  14.230  0.1521 -0.3832 -0.0791
 9923W        W23337   5.202  17.687  15.381 -0.1035  0.2250  0.3531
 9924W        W23338   2.959   8.944   5.656  0.0036  0.0123  0.2489
 9925W        W23339  17.497  17.684   5.513 -0.0519  0.0137 -0.0000
 9926W        W23340   7.639  10.338  15.103  0.2056 -0.2453 -0.1699
 9927W        W23341  12.020   7.238  14.743 -0.0520 -0.2168  0.1186
 9928W        W23342   6.117   9.556  14.108 -0.1563 -0.1249 -0.1083
 9929W        W23343  11.086  13.815  15.170 -0.2473  0.1045 -0.0657
 9930W        W23344   6.355  10.262  12.145 -0.1303  0.0735  0.1529
 9931W        W23345   8.084  15.065   3.097 -0.0407  0.0267 -0.2321
 9932W        W23346  15.635  18.364   4.122  0.0520  0.0200 -0.2075
 9933W        W23347   8.020   3.471   2.738 -0.0483 -0.2004  0.2145
 9934W        W23348  14.503   2.871   3.107 -0.0633 -0.0175  0.2633
 9935W        W23349  16.552  10.869   4.409 -0.0864  0.1276  0.0675
 9936W        W23350   9.288   7.413  15.467 -0.0151  0.2440  0.0861
 9937W        W23351   5.165  16.767  12.223  0.2524 -0.0430  0.1912
 9938W        W23352   3.186   8.931   3.234 -0.0024 -0.3626 -0.2772
 9939W        W23353   0.732  10.252   1.849  0.1546 -0.0751  0.1483
 9940W        W23354  10.340  14.606   0.286 -0.0288 -0.2198 -0.1288
 9941W        W23355  13.824   3.360  11.958 -0.3089  0.4148 -0.1206
 9942W        W23356   0.736   3.914  14.070 -0.3784 -0.0166  0.0760
 9943W        W23357  11.019  17.394  16.202  0.0448 -0.4199 -0.2415
 9944W        W23358   1.991  18.097  12.752  0.1094 -0.0161  0.0120
 9945W        W23359   2.632  10.055   1.742  0.2489 -0.0070  0.1544
 9946W        W23360   3.974  17.951  16.107 -0.0282  0.0776 -0.2512
 9947W        W23361  16.605  17.766   3.324  0.0013  0.1472 -0.0559
 9948W        W23362  10.565  12.649  12.656  0.4139  0.0836  0.0953
 9949W        W23363  16.010  18.033  13.376  0.0212  0.1056  0.2708
 9950W        W23364   9.873   2.847  10.924  0.0701  0.3021  0.0642
 9951W        W23365  16.582  10.887   2.266 -0.2703 -0.0925 -0.2329
 9952W        W23366   5.685   0.825  13.699 -0.1181  0.0736 -0.1966
 9953W        W23367   9.582   2.394   5.141  0.1152  0.0538 -0.1313
 9954W        W23368  12.389   6.253  13.786 -0.1751  0.1225  0.1647
 9955W        W23369   1.044  14.771   4.393  0.0407 -0.2141  0.0100
 9956W        W23370  14.756   1.494   0.947 -0.2188  0.1383  0.0938
 9957W        W23371  16.709   4.325   3.026 -0.1165 -0.0242  0.3261
 9958W        W23372   4.253   1.052   1.038  0.2435  0.1113  0.0331
 9959W        W23373   5.235   9.676   0.917  0.1434  0.0038 -0.0642
 9960W        W23374   9.078  12.369   3.481  0.2821  0.3413  0.0822
 9961W        W23375  16.200  12.765   1.923 -0.4850  0.1355 -0.0487
 9962W        W23376  13.001   7.987   4.327  0.0379 -0.1631  0.1812
 9963W        W23377  12.019  11.904  11.883  0.0757  0.2504 -0.2589
 9964W        W23378  15.710   2.648  16.255  0.2108  0.0463 -0.2176
 9965W        W23379  10.859   8.341  15.671 -0.0562 -0.1930 -0.1720
 9966W        W23380  14.285   5.928   0.800  0.0386 -0.0596 -0.0087
 9967W        W23381   9.144   7.703   5.204  0.2299 -0.3528 -0.4180
 9968W        W23382  12.112   9.904  14.246  0.0413  0.0484  0.1986
 9969W        W23383  12.284   0.476   4.694 -0.2145 -0.1753  0.1255
 9970W        W23384  13.070  14.748  11.742  0.2896  0.1121 -0.0647
 9971W        W23385   2.495  17.796  13.583  0.0802  0.1847 -0.1193
 9972W        W23386  13.202   8.956   0.706 -0.0503  0.1129  0.0824
 9973W        W23387  10.715   9.893   0.870  0.0931 -0.1864 -0.2818
 9974W        W23388   5.537   2.876   0.144 -0.1196  0.2617  0.1514
 9975W        W23389  14.516   5.038  15.730  0.0924  0.1026 -0.1557
 9976W        W23390  10.462  17.216   2.260 -0.3302 -0.3627  0.1308
 9977W        W23391   7.977   6.190   1.134  0.0124 -0.1886  0.4843
 9978W        W23392  10.194   1.499   0.204  0.0827 -0.1551 -0.0420
 9979W        W23393  12.748  16.003   4.682 -0.1113  0.1344  0.2044
 9980W        W23394  11.502  18.011  11.094 -0.2469  0.1147  0.0413
 9981W        W23395  13.426  11.231   4.758 -0.2180 -0.0591 -0.0851
 9982W        W23396  18.248   9.401  16.075 -0.1254 -0.0444  0.0139
 9983W        W23397  15.413   3.848   4.113  0.0357  0.1184 -0.0928
 9984W        W23398   3.697   7.642  12.559 -0.0913 -0.1955 -0.1763
 9985W        W23399  15.672   4.652  13.130  0.0670  0.1855  0.0568
 9986W        W23400   5.825  18.091   2.850 -0.1569  0.0186 -0.0591
 9987W        W23401  14.112   9.938   2.297  0.1851  0.0380  0.0322
 9988W        W23402   5.245   2.482  13.968  0.0024  0.3037  0.2159
 9989W        W23403  17.792   9.777   6.080  0.0973  0.2190 -0.0889
 9990W        W23404  15.035   2.481  12.865  0.1719  0.0081  0.0098
 9991W        W23405  13.866  14.952   4.440  0.2378 -0.0320  0.3833
 9992W        W23406  12.223  15.751   2.701 -0.1323  0.0161  0.0225
 9993W        W23407  16.095  12.751  14.583 -0.0529  0.1097 -0.2485
 9994W        W23408   0.731   5.432  14.781 -0.0739 -0.1165 -0.0506
 9995W        W23409  14.349   5.906  16.387  0.2237 -0.0038 -0.1641
 9996W        W23410  12.212   1.152   5.511  0.2407  0.1991  0.0215
 9997W        W23411  17.687   9.779   2.908 -0.3030  0.1627 -0.3847
 9998W        W23412   8.545   6.393  13.703 -0.1089 -0.1029 -0.0368
 9999W        W23413   4.456   3.903  10.726  0.0065 -0.1544 -0.2022
10000W        W23414   3.662  16.999   6.669 -0.0281  0.2170 -0.1742
10001W        W23415   3.250  17.914   2.070  0.1809  0.2915 -0.1524
10002W        W23416  12.156   9.424  10.659  0.0438 -0.1487 -0.3667
10003W        W23417  12.251  13.071  15.001  0.0801  0.1232  0.2496
10004W        W23418  10.919   8.644   2.105 -0.1503  0.1801  0.0032
10005W        W23419  11.828  16.762   2.268  0.1389  0.2468 -0.1491
10006W        W23420   0.205   5.205  10.298  0.2688 -0.1291  0.1105
10007W        W23421  11.552  17.130   6.000 -0.2846 -0.2386 -0.1836
10008W        W23422   4.344   5.534   4.838 -0.1773  0.2317  0.4655
10009W        W23423   8.291  12.946  11.011  0.1837 -0.0921  0.1362
10010W        W23424   7.764   9.831   5.479  0.1990  0.1123 -0.2023
10011W        W23425  11.973  10.854  10.495  0.0350 -0.2045 -0.3737
10012W        W23426   5.340  10.177  14.023  0.1238 -0.2459 -0.0900
10013W        W23427   5.423   7.268   3.471 -0.1057  0.0491  0.0309
10014W        W23428   4.590   9.840  13.645  0.0345 -0.0443 -0.0525
10015W        W23429   8.803  10.048  13.863  0.3614  0.1377  0.0133
10016W        W23430  13.845   4.618   5.350  0.0522 -0.0829 -0.0286
10017W        W23431   0.448  17.945  16.277 -0.3364 -0.1188 -0.4457
10018W        W23432  17.902   2.928  13.458 -0.0334  0.0207 -0.0659
10019W        W23433  17.318  18.330   0.059  0.1137  0.3083  0.0369
10020W        W23434  13.083   9.496   0.696  0.3311 -0.1495 -0.2605
10021W        W23435   8.648  14.258  16.186 -0.0570  0.3779 -0.3254
10022W        W23436   7.465  11.453   2.050  0.1121 -0.1304 -0.1822
10023W        W23437   2.355   3.080  13.368  0.2754 -0.0420  0.0806
10024W        W23438   1.289   1.668  14.948  0.1891  0.2520 -0.2180
10025W        W23439  14.736   2.483   3.276 -0.0678 -0.0277 -0.1246
10026W        W23440  14.430   4.471  12.429 -0.1612  0.3827 -0.1236
10027W        W23441  13.071   4.035  10.241 -0.0139 -0.0028 -0.0351
10028W        W23442   4.621  12.505   4.412 -0.2500  0.3529 -0.0263
10029W        W23443   1.362  10.509  13.721  0.1259  0.2210 -0.2205
10030W        W23444   6.717   0.427   9.542  0.1376 -0.5159  0.2118
10031W        W23445   5.833  10.284  13.017 -0.1239 -0.0450  0.0760
10032W        W23446   2.019   0.212   6.167  0.3754  0.2116 -0.2650
10033W        W23447  17.099   9.264   1.183  0.2369  0.0293 -0.0662
10034W        W23448  11.283   7.971  12.951  0.2880  0.1731 -0.0299
10035W        W23449  14.748   1.520   0.473  0.1826 -0.0794  0.0742
10036W        W23450  12.471   6.017   1.127 -0.0468  0.0115 -0.1364
10037W        W23451   9.347   8.500   0.943  0.0442 -0.0459  0.0370
10038W        W23452  16.686   9.646  15.348 -0.0179 -0.2382 -0.0393
10039W        W23453  18.321  16.687   0.959 -0.1230  0.2046  0.3103
10040W        W23454  16.113   2.246   5.328 -0.0312 -0.0627 -0.0894
10041W        W23455   1.356  13.902   1.675  0.1264 -0.0990 -0.0735
10042W        W23456   0.332  10.568   1.027 -0.2784  0.0048  0.1453
10043W        W23457  13.677   8.049  13.123  0.2573 -0.1042 -0.3697
10044W        W23458   2.045   6.452   5.346  0.0117  0.0035 -0.0228
10045W        W23459  14.651   6.062  11.952  0.0980  0.0235 -0.5235
10046W        W23460   3.485  13.434   5.574 -0.2366 -0.4348 -0.3690
10047W        W23461   4.901  13.050  12.642 -0.2784 -0.0388 -0.0475
10048W        W23462  16.346  11.810   0.457 -0.1071 -0.2336  0.0856
10049W        W23463  12.399   1.807  12.818 -0.0279 -0.1189  0.1773
10050W        W23464   2.153  13.733   6.765  0.1677  0.2767  0.3682
10051W        W23465   5.512   5.227   1.960  0.0076 -0.0380 -0.0552
10052W        W23466   1.324  10.077  13.403  0.0384  0.1933  0.0749
10053W        W23467   3.542   5.123  13.662  0.0898 -0.2342 -0.1596
10054W        W23468  15.711   4.546   4.852 -0.0758 -0.2269 -0.0282
10055W        W23469   1.355   2.145  11.887 -0.4023 -0.0378 -0.2645
10056W        W23470  14.918  16.749  11.216  0.1493 -0.2129 -0.1115
10057W        W23471  15.310   3.993  11.801  0.0050  0.0640 -0.3043
10058W        W23472   0.399   5.048   4.554 -0.1413  0.1363 -0.1213
10059W        W23473   6.740  17.964  11.649  0.2622  0.0798  0.1179
10060W        W23474  14.245   8.920  16.474  0.2839 -0.1234 -0.1310
10061W        W23475   9.676   0.371  16.088 -0.1052 -0.0898 -0.1351
10062W        W23476  13.754  14.488  15.321  0.0059  0.1996  0.2000
10063W        W23477  14.735   0.630   2.034 -0.1521 -0.1359  0.1688
10064W        W23478   2.734  12.795  10.991  0.0981 -0.0668 -0.0754
10065W        W23479   5.214   7.189   2.867  0.0377  0.3354 -0.1467
10066W        W23480  13.917   2.057   5.822  0.2095 -0.4426 -0.1682
10067W        W23481  13.530  13.100   3.343 -0.0370 -0.1607  0.2414
10068W        W23482  16.446   7.522  14.430  0.2660  0.1034 -0.1559
10069W        W23483   0.578   7.236  12.038 -0.0160  0.0905  0.1119
10070W        W23484   6.928   7.059   3.974 -0.2800 -0.2117  0.1315
10071W        W23485  12.373  16.785   5.817  0.0310  0.1765 -0.1067
10072W        W23486   7.745  11.701  12.933 -0.1080 -0.1571  0.1193
10073W        W23487  17.936  14.602   2.458  0.2705 -0.2436  0.2357
10074W        W23488  12.941  14.771   0.320 -0.3138 -0.0992 -0.0396
10075W        W23489   4.011  17.102  13.007 -0.3524  0.0426  0.0227
10076W        W23490   2.095   4.017   0.109  0.0753  0.0482  0.1664
10077W        W23491  12.556  11.518  13.091  0.2047 -0.0487 -0.1149
10078W        W23492   7.937   1.729  14.359  0.0143  0.0162 -0.3893
10079W        W23493   7.790  15.505   3.045 -0.2218  0.1503  0.2322
10080W        W23494   3.519   5.199   0.395  0.3335  0.2936  0.0933
10081W        W23495   8.974   3.932  13.836  0.0355 -0.0750 -0.3759
10082W        W23496  11.916  17.163   3.030  0.1165  0.1214  0.3333
10083W        W23497  14.685  15.553   5.348 -0.1012 -0.0281  0.0130
10084W        W23498  16.954   2.829  15.454 -0.3390  0.0746 -0.1094
10085W        W23499   8.524   7.602  15.785  0.1048  0.1156 -0.1547
10086W        W23500   0.144   6.936   2.279 -0.1340  0.1859  0.1047
10087W        W23501   1.257  17.824  14.257  0.1995  0.0002 -0.0592
10088W        W23502  15.149  12.956   2.014  0.0157 -0.0429 -0.0008
10089W        W23503  14.281  11.937   1.543 -0.2146  0.3260  0.0900
10090W        W23504   5.798  11.243  15.439 -0.1220  0.0922 -0.4169
10091W        W23505  12.369  14.181  12.249 -0.0815  0.0740  0.0868
10092W        W23506   9.314   1.816  10.705 -0.2998  0.2399  0.1225
10093W        W23507  17.258   2.541  13.884 -0.0753  0.0210 -0.0695
10094W        W23508   1.902  17.390   4.740  0.0407 -0.2196  0.1004
10095W        W23509  11.542   1.786  15.077 -0.1302 -0.0760  0.2149
10096W        W23510  12.559   0.104  14.371 -0.1314 -0.0807 -0.0804
10097W        W23511   9.094  14.062   2.505 -0.0252  0.2280  0.1105
10098W        W23512  15.582  16.512   6.323  0.1190 -0.0448  0.2504
10099W        W23513   6.917  17.410  10.415 -0.2532 -0.1859 -0.1336
10100W        W23514  11.622  13.101   3.638 -0.0645 -0.3366  0.0370
10101W        W23515  10.887  13.230   1.775  0.2571  0.3129  0.1890
10102W        W23516  16.364   8.839  13.822 -0.1535  0.0071 -0.0810
10103W        W23517  10.037   0.173  15.881  0.2187  0.1456  0.2060
10104W        W23518  10.330   9.595  12.565 -0.0353  0.4319 -0.1022
10105W        W23519  12.782  11.449   5.286 -0.2811  0.1354  0.2035
10106W        W23520   0.402  13.119   5.332 -0.3632 -0.1492 -0.2601
10107W        W23521   9.064   9.135  10.804 -0.1323 -0.0363 -0.0469
10108W        W23522   2.719  12.320   3.418  0.0223 -0.1089  0.0285
10109W        W23523   1.114  16.332   5.564 -0.0948  0.0659 -0.1259
10110W        W23524  11.771   0.019   3.096  0.2672  0.0532  0.1094
10111W        W23525   9.019  17.868  14.259  0.1682  0.0556 -0.4300
10112W        W23526  16.690   4.650  12.570 -0.0330  0.0154  0.2340
10113W        W23527   6.258  10.012   3.054 -0.3019 -0.1149  0.2903
10114W        W23528   0.578   1.534  15.815 -0.2734 -0.1300  0.0183
10115W        W23529   9.692   3.846  10.492  0.2996  0.0421  0.0709
10116W        W23530   2.863   6.256   2.076  0.0125 -0.1457  0.2928
10117W        W23531  11.033   0.928  13.226 -0.2330  0.3922 -0.0135
10118W        W23532  15.711  13.677   7.002  0.1503 -0.2149  0.0520
10119W        W23533   0.095   4.813   3.634 -0.2793  0.0759  0.0820
10120W        W23534   3.263  10.817  14.306 -0.0221 -0.1875 -0.2437
10121W        W23535  10.389   9.033   3.940  0.3745  0.1068  0.4023
10122W        W23536   4.496   3.890  15.936 -0.0297 -0.1311  0.0902
10123W        W23537  14.500   2.721  13.021  0.1955 -0.0751 -0.2322
10124W        W23538  13.741  17.772   0.522 -0.0846 -0.1082  0.0957
10125W        W23539   7.393   3.332  15.112 -0.1113 -0.1305  0.1494
10126W        W23540  11.844   1.442   4.421  0.0038  0.1124 -0.2668
10127W        W23541   7.506   3.603  13.826  0.2242 -0.0384  0.1359
10128W        W23542   8.372   8.217   1.039 -0.0402  0.1812  0.0188
10129W        W23543   2.255  13.949   5.955 -0.0770  0.0719 -0.3981
10130W        W23544  18.027   6.429   5.082 -0.1234  0.2198  0.1752
10131W        W23545   3.606  10.535   1.002  0.0025  0.0235 -0.3467
10132W        W23546  12.371  15.496  13.841 -0.0048  0.1056 -0.0489
10133W        W23547  14.979  17.576  12.287 -0.1628 -0.1883  0.1694
10134W        W23548   7.041   6.540  14.863  0.1132  0.0100  0.0510
10135W        W23549   3.503   8.332   3.553  0.2815 -0.3162  0.1037
10136W        W23550  10.312  18.202   2.269  0.0277 -0.0343 -0.1678
10137W        W23551  15.542  13.398   6.191 -0.1291  0.2031  0.0540
10138W        W23552  10.893  15.701   2.257 -0.0361  0.0196 -0.2837
10139W        W23553   0.077   4.788   6.055  0.1967  0.0132 -0.2655
10140W        W23554   7.364   5.199  11.226  0.1572 -0.0761 -0.0117
10141W        W23555  16.301   4.938  16.017  0.2188 -0.0000  0.1320
10142W        W23556  17.085  10.136  13.855 -0.0286  0.2393 -0.2175
10143W        W23557   6.553   4.005   2.173 -0.0519  0.4126  0.0995
10144W        W23558   4.165  15.424   1.588 -0.2411 -0.3687 -0.2543
10145W        W23559   8.991  11.302  13.225 -0.0465 -0.1953  0.2558
10146W        W23560   5.879   9.044   1.239  0.1821  0.2232  0.1274
10147W        W23561  15.751  11.893   4.570  0.1566 -0.3274  0.0506
10148W        W23562   9.926  13.345   5.652  0.2713 -0.0583  0.1710
10149W        W23563  17.708  11.682   5.171 -0.2803 -0.0353  0.1505
10150W        W23564  17.026   0.346   0.183 -0.0618 -0.0365  0.0861
10151W        W23565  13.721  18.080   2.784 -0.1364  0.0336  0.0937
10152W        W23566   0.163  13.585   0.154 -0.1386  0.0217 -0.1709
10153W        W23567   0.930   2.775  13.742  0.2283 -0.1433  0.1438
10154W        W23568   0.822   6.005  13.514  0.2520 -0.2203  0.1975
10155W        W23569   0.774   4.913  16.268  0.1363 -0.0464 -0.5440
10156W        W23570  15.796  12.776   4.838  0.1685 -0.0880  0.0521
10157W        W23571  13.285   5.169  13.902  0.4960  0.1817  0.2032
10158W        W23572  11.854  13.970   2.233 -0.3391  0.1646 -0.0306
10159W        W23573  18.266  11.004  11.742  0.1808 -0.1358 -0.1956
10160W        W23574   0.107   8.657  12.433 -0.2517  0.1814  0.0386
10161W        W23575  16.273   1.599   2.741 -0.1164 -0.1182 -0.4712
10162W        W23576  10.380  11.716   2.185 -0.0814 -0.3176  0.2519
10163W        W23577   0.033   7.046  10.820 -0.0321 -0.0844 -0.0039
10164W        W23578   5.244   2.548   1.508  0.1120  0.0856 -0.3727
10165W        W23579  17.648  15.546   2.740 -0.0849  0.1732 -0.1345
10166W        W23580  12.640  13.066   3.975  0.2005 -0.1580  0.1393
10167W        W23581  15.924  14.660   4.278 -0.0939 -0.4218  0.2049
10168W        W23582   0.640  11.660  15.228  0.1091  0.0271 -0.2783
10169W        W23583   1.512   6.651  15.155 -0.2079 -0.1983 -0.0097
10170W        W23584   0.608  17.608   5.644 -0.0244 -0.0158 -0.0254
10171W        W23585   4.021  16.954  13.982 -0.2443 -0.1893 -0.1136
10172W        W23586   2.415   6.950   1.384 -0.0595 -0.1741  0.1410
10173W        W23587   2.590   9.781   0.767  0.3618  0.0378 -0.2512
10174W        W23588  10.167   2.856   2.833  0.1364  0.0830  0.0041
10175W        W23589  10.919  13.634   0.850 -0.0917  0.0994  0.2128
10176W        W23590   8.017   4.845  16.089  0.0438  0.1634 -0.0774
10177W        W23591   0.312  15.759   2.268  0.0714 -0.2082 -0.0022
10178W        W23592  13.609   2.108   3.489  0.0850  0.0186  0.4395
10179W        W23593  16.538  15.300  15.501 -0.2400 -0.2090  0.1419
10180W        W23594  17.003   1.607  10.523 -0.3504 -0.0853  0.0388
10181W        W23595  18.142   3.354   5.414 -0.0780 -0.1089  0.0354
10182W        W23596  16.513  12.774  14.314 -0.1406 -0.1087  0.1134
10183W        W23597  14.610   9.666  11.870  0.1976  0.2578 -0.0217
10184W        W23598  17.780  10.846  12.370 -0.1784 -0.0997 -0.3050
10185W        W23599   3.984   2.726  14.578 -0.0366 -0.3400  0.0614
10186W        W23600  11.092  12.979  14.160  0.2972 -0.4638 -0.3747
10187W        W23601   1.532   8.058   4.236 -0.0085 -0.4042 -0.1080
10188W        W23602  16.767  17.138  15.106  0.0422 -0.0571  0.0753
10189W        W23603  11.296   9.784  15.702 -0.1800 -0.0397 -0.0245
10190W        W23604   2.335   8.192  10.405  0.1762 -0.2410 -0.2669
10191W        W23605   2.561  18.353  14.371  0.0861 -0.2079  0.2377
10192W        W23606  11.559  14.350  14.859 -0.2611  0.0047  0.0245
10193W        W23607  14.540   1.511  12.749 -0.1561 -0.1126 -0.0676
10194W        W23608   4.276   4.317   1.723 -0.2407  0.0004  0.1756
10195W        W23609  11.671  14.490   6.111 -0.0563  0.1742 -0.0623
10196W        W23610  14.999   2.599  14.271  0.0193 -0.0757  0.1163
10197W        W23611   3.298   0.012  10.742  0.2755  0.3878  0.0990
10198W        W23612  12.212   0.136   5.622 -0.0031  0.4284 -0.0249
10199W        W23613  11.857  15.368  12.032 -0.1208  0.1049 -0.1488
10200W        W23614   4.388  11.888   5.908  0.3302  0.0943 -0.0401
10201W        W23615  11.736  18.011   6.222  0.1464  0.2174 -0.1286
10202W        W23616   8.599   9.374   2.986  0.2337 -0.0717  0.2164
10203W        W23617   9.514   2.907  12.213 -0.2765  0.1279  0.1696
10204W        W23618  14.869  10.713   1.386 -0.4036  0.1165 -0.1089
10205W        W23619  17.615   3.449  12.851  0.0701 -0.1607  0.4016
10206W        W23620   6.420  14.555  13.132 -0.0274  0.2395 -0.0661
10207W        W23621   7.023  15.289  15.379 -0.1997  0.1227  0.2044
10208W        W23622   3.089   7.813  11.472  0.0279 -0.0132 -0.1477
10209W        W23623  14.671  17.986   5.211  0.0140 -0.1213 -0.0731
10210W        W23624  17.617  13.707   3.020 -0.0411  0.1748 -0.1414
10211W        W23625   6.068   9.044  13.373 -0.3346 -0.1256 -0.1926
10212W        W23626  11.902   5.530  13.903 -0.0387  0.0900  0.0550
10213W        W23627  14.253  14.696   1.625 -0.1525  0.0424 -0.0500
10214W        W23628   2.590   3.867   3.484  0.1262  0.2396  0.4134
10215W        W23629   4.015  11.538  11.160 -0.1221  0.0632  0.0895
10216W        W23630  16.780   8.754   2.004 -0.1702 -0.1832 -0.1492
10217W        W23631   9.436   7.523   4.473 -0.0569 -0.2039  0.0388
10218W        W23632   0.120  10.499  14.182 -0.0455  0.1946  0.4421
10219W        W23633   0.752   3.512  11.259  0.2798  0.0915 -0.0297
10220W        W23634   6.431   8.165  11.515  0.0001  0.1078 -0.2406
10221W        W23635   8.208   2.501   2.574  0.2892 -0.0202  0.1188
10222W        W23636   1.739  14.357  15.761  0.1253 -0.1751 -0.2857
10223W        W23637   1.305  16.404   1.208 -0.1484  0.2770  0.2280
10224W        W23638   7.107   9.831   3.496 -0.1346 -0.3254  0.2839
10225W        W23639  13.455   5.460   2.915 -0.3527 -0.1833  0.0217
10226W        W23640  11.434   0.984   0.756  0.1864 -0.0435  0.0930
10227W        W23641   7.016  16.816   4.797  0.1017 -0.1134 -0.1832
10228W        W23642   7.606  14.630   4.671 -0.4331  0.1213  0.2799
10229W        W23643  18.181  16.670  12.027 -0.1262 -0.2671 -0.1095
10230W        W23644   4.019   0.060   4.061  0.2074  0.2632 -0.2852
10231W        W23645   1.894  11.846   3.387 -0.0772 -0.1873 -0.0400
10232W        W23646   6.349  17.331   4.462 -0.1222 -0.2364  0.2477
10233W        W23647  14.564  11.960   0.912 -0.2424 -0.0819  0.2516
10234W        W23648  13.553   4.996   5.129 -0.0798  0.0779 -0.1628
10235W        W23649  11.197  10.941   0.816 -0.0784 -0.1249  0.1793
10236W        W23650   9.338  16.414   3.276 -0.0745  0.0322 -0.1769
10237W        W23651  14.622  13.606  15.286  0.0445  0.3792 -0.1066
10238W        W23652   0.795   4.014  16.512  0.3083  0.1195 -0.0897
10239W        W23653   3.172   7.989  15.871 -0.0349 -0.0187 -0.0244
10240W        W23654   6.399   9.600   3.957  0.0104  0.1851 -0.4798
10241W        W23655   8.832   8.624  15.375  0.2206 -0.2940 -0.1734
10242W        W23656  14.315  11.337  10.803  0.0882 -0.0035  0.3591
10243W        W23657  15.956   0.978   4.277  0.4901 -0.0231  0.1665
10244W        W23658   5.264  15.223  16.073  0.1272  0.2064  0.0654
10245W        W23659   4.165   4.180   4.088 -0.0335 -0.2931 -0.0630
10246W        W23660   9.383  16.088   0.621 -0.1320  0.0777  0.0551
10247W        W23661   6.015  17.728  13.769  0.0158  0.0520  0.0594
10248W        W23662  17.011   6.242   3.527  0.0442 -0.3265  0.2032
10249W        W23663  15.311  12.937   5.502 -0.0568  0.3656  0.1506
10250W        W23664   6.824   6.068  11.048 -0.0431  0.1345  0.2919
10251W        W23665  15.144   1.693   5.006 -0.2920  0.3877 -0.1429
10252W        W23666  12.935  14.287  12.123 -0.0065 -0.2641  0.0941
10253W        W23667   7.572   9.680   4.518  0.2601 -0.1436  0.1120
10254W        W23668  16.016  13.890   4.909  0.2188 -0.1239 -0.0067
10255W        W23669  17.342   8.798   1.399  0.0949 -0.0886 -0.2487
10256W        W23670   9.689   3.980   0.375 -0.3806  0.3413  0.1837
10257W        W23671   5.596  17.024  12.322  0.0522  0.1438  0.0821
10258W        W23672  10.760  13.245   1.173  0.0978 -0.0392  0.1299
10259W        W23673  13.712  15.577  15.492  0.0687  0.1029  0.3948
10260W        W23674   9.402  12.569   4.150 -0.2620 -0.2570  0.0008
10261W        W23675  12.687   6.417  13.392 -0.3572  0.0244 -0.1050
10262W        W23676   5.085   6.423   1.831 -0.1770  0.1147  0.1551
10263W        W23677   6.371   8.578   2.373 -0.1473  0.2803  0.0254
10264W        W23678   0.438   4.607  13.693 -0.1968 -0.3758  0.0478
10265W        W23679  14.731  14.921   0.562 -0.0101  0.2102 -0.2516
10266W        W23680   6.181  14.111   4.944  0.4005 -0.0690 -0.0648
10267W        W23681   1.088   8.766  11.570 -0.3663 -0.0736  0.0546
10268W        W23682   0.945  16.980  12.372 -0.1260 -0.3042 -0.1072
10269W        W23683   8.440  13.660   0.170 -0.3318 -0.0407 -0.0287
10270W        W23684  13.285  17.147  13.694  0.2506  0.3090 -0.1259
10271W        W23685   1.819   3.486  11.612  0.0932  0.1366  0.2607
10272W        W23686   5.560   1.198   6.192  0.0279 -0.1288 -0.0976
10273W        W23687  12.332   1.568   5.769  0.4401 -0.0203 -0.1674
10274W        W23688  10.048   4.765  15.496 -0.0558  0.0424  0.0741
10275W        W23689   9.067  18.173  12.736 -0.2329  0.2104 -0.3181
10276W        W23690  14.806   7.971   9.936 -0.1308 -0.0655  0.0867
10277W        W23691   4.630  12.667   0.094  0.2489  0.0468 -0.1217
10278W        W23692  15.244  13.026  14.582  0.0943  0.0573 -0.2125
10279W        W23693   2.020   8.218   3.549 -0.3376 -0.0056 -0.1311
10280W        W23694   2.605  12.950   1.180 -0.2819  0.3022 -0.3585
10281W        W23695  14.765   8.801  10.636  0.0916 -0.1461  0.1374
10282W        W23696  16.111   7.280  12.846 -0.0102 -0.2006 -0.0835
10283W        W23697   1.179   8.851   4.594  0.0070 -0.2861 -0.1593
10284W        W23698   6.594  14.755  13.687 -0.0855  0.3336 -0.3806
10285W        W23699   2.984  12.963  13.676 -0.1270  0.1800 -0.3130
10286W        W23700  16.506  12.240  15.755 -0.0757 -0.1843  0.3056
10287W        W23701   9.835   0.829  12.254  0.0400  0.3357 -0.1325
10288W        W23702   7.067  10.648   3.157  0.1035 -0.0751 -0.1547
10289W        W23703  15.329   3.830   9.852 -0.1804  0.1304  0.0466
10290W        W23704  14.835   6.782  13.245  0.1033  0.2053  0.5429
10291W        W23705  12.209  13.783  12.031 -0.3745  0.1596  0.2817
10292W        W23706  13.294  14.069   3.401 -0.1852  0.1038  0.0001
10293W        W23707   2.545   8.898   4.380  0.0361  0.3673  0.1615
10294W        W23708   4.931   6.776   4.979 -0.0882  0.2782 -0.1324
10295W        W23709   5.038   9.059   1.610  0.1162 -0.1445  0.0395
10296W        W23710  13.091   6.292   3.945 -0.1408 -0.0503 -0.0670
10297W        W23711   6.377  15.335   5.950 -0.2513 -0.1280 -0.2984
10298W        W23712  16.255  10.044  12.261  0.2153 -0.0496 -0.3195
10299W        W23713   8.339  18.092   5.985 -0.2923  0.3150  0.1549
10300W        W23714   7.386   1.271   3.400 -0.0340  0.0377  0.3945
10301W        W23715   3.948   9.580   1.503  0.1623  0.0698  0.0186
10302W        W23716  17.217  16.416   1.741 -0.0929 -0.0121 -0.0650
10303W        W23717  18.239  16.036  11.945  0.1782  0.0591  0.1196
10304W        W23718  16.181   2.548   1.663 -0.2958 -0.2166  0.3411
10305W        W23719  13.974   0.882   4.846 -0.2881  0.1000  0.1333
10306W        W23720   2.747  10.422   3.385 -0.1464  0.0236  0.0386
10307W        W23721  12.819  17.699   5.417 -0.0138  0.1243 -0.0342
10308W        W23722  17.225  17.366   4.151 -0.1374  0.1076  0.0599
10309W        W23723  14.840   6.343  16.077 -0.0406 -0.2862 -0.0744
10310W        W23724  14.446  14.379  14.998 -0.0667 -0.0718 -0.1751
10311W        W23725   3.093  12.695   2.238  0.1008 -0.0279 -0.2606
10312W        W23726  17.891   0.098  11.983 -0.3128  0.1427  0.1662
10313W        W23727  10.996   0.368  10.060 -0.0949  0.1580 -0.2726
10314W        W23728   3.518  16.569  13.853 -0.1197 -0.0970  0.1233
10315W        W23729   5.945  10.815  10.355 -0.1111 -0.0788 -0.2121
10316W        W23730  11.601  14.389   1.003  0.1353  0.0351  0.0822
10317W        W23731   6.376  15.026  15.791  0.0766 -0.2200 -0.2033
10318W        W23732   6.536  15.795  14.098  0.2474  0.2565 -0.0095
10319W        W23733  10.032   5.581   0.689  0.0130 -0.0021  0.1977
10320W        W23734   9.936   5.704  13.583 -0.2446 -0.1937 -0.3053
10321W        W23735   0.068   2.494  10.877 -0.0547  0.0782 -0.1351
10322W        W23736  17.611   2.492  11.377 -0.1221 -0.0193 -0.0918
10323W        W23737  14.232  14.536   2.532 -0.0804 -0.0537  0.0686
10324W        W23738   2.871   0.360   1.445  0.0728 -0.1083 -0.0990
10325W        W23739   6.858   5.276  13.657 -0.2731  0.1696  0.1406
10326W        W23740  17.644   8.471  12.696  0.0107  0.1882 -0.0732
10327W        W23741  12.949   9.928  14.725 -0.2183 -0.1743 -0.1353
10328W        W23742   2.684   9.069  15.832 -0.0066 -0.1714 -0.1431
10329W        W23743  15.229   4.179   2.796 -0.2035  0.1303  0.0940
10330W        W23744   9.210  16.068   2.955 -0.1093  0.1586 -0.0796
10331W        W23745  10.448  16.995  13.305  0.0313  0.1359  0.3265
10332W        W23746   1.828   0.897  12.748  0.1361 -0.1247  0.1030
10333W        W23747  18.201  16.457   7.620 -0.1391  0.1744 -0.2220
10334W        W23748   7.805  11.446   3.714 -0.0284 -0.2320  0.0018
10335W        W23749   7.840  11.527  14.271 -0.0822  0.0600  0.3774
10336W        W23750   7.653   4.444   1.872 -0.0638 -0.1002 -0.1181
10337W        W23751   7.235   6.064   4.993  0.0978  0.0550  0.3029
10338W        W23752   3.858   7.717   2.232 -0.0361  0.1112 -0.0473
10339W        W23753   5.374  17.632  15.832  0.1054 -0.1238 -0.3152
10340W        W23754   8.581  17.482   3.981 -0.4990 -0.2737 -0.2549
10341W        W23755   0.618   7.805   2.241 -0.1010 -0.0372 -0.0669
10342W        W23756   2.390  11.771  11.708  0.1924  0.1235  0.0968
10343W        W23757  18.066  18.326  15.967 -0.3115 -0.2199  0.1617
10344W        W23758   4.462  11.696  15.789  0.3382  0.1928 -0.1494
10345W        W23759  12.925   9.228  10.376  0.2178  0.2309 -0.3785
10346W        W23760   6.790   1.710   0.702  0.1090 -0.1215 -0.0740
10347W        W23761   0.908   2.046   0.748  0.2091 -0.1143  0.0295
10348W        W23762   0.629  15.711   6.261  0.2108  0.3356 -0.0647
10349W        W23763  15.788   0.977   0.591 -0.1659 -0.1302 -0.1012
10350W        W23764  11.232  14.015   0.950 -0.0847  0.0313  0.1843
10351W        W23765  11.390  10.900   2.598  0.2604  0.0052  0.1002
10352W        W23766  15.744   0.182  14.462  0.2430  0.2237  0.1059
10353W        W23767   2.220  17.450  15.201  0.2626 -0.3160 -0.1746
10354W        W23768  16.138  10.080  15.077  0.2328 -0.0732  0.3268
10355W        W23769   1.282   9.602  11.246  0.0173 -0.2173  0.1381
10356W        W23770  15.281   7.104  10.363  0.1448 -0.4928  0.0782
10357W        W23771  17.649  14.049   0.766 -0.0284 -0.0896 -0.1322
10358W        W23772   6.272  15.502  13.711  0.1367 -0.2353 -0.0612
10359W        W23773  10.715   0.994  11.110 -0.0711 -0.0572 -0.2950
10360W        W23774   3.495   1.605  14.119 -0.1320  0.0244 -0.2930
10361W        W23775  17.569  16.567  12.662 -0.0393 -0.0164  0.3159
10362W        W23776   8.839   4.233   3.761 -0.3438 -0.2492 -0.3241
10363W        W23777   9.129   4.746   1.257  0.0744  0.3379 -0.0723
10364W        W23778   1.589   7.385   2.070  0.3386 -0.4923 -0.1395
10365W        W23779  15.224  10.778  11.031 -0.2255  0.0983 -0.0906
10366W        W23780  15.922   1.176  11.232 -0.0068 -0.4816  0.0840
10367W        W23781   2.317  11.553  15.618 -0.3050 -0.0354 -0.0871
10368W        W23782   1.683   7.257   6.055  0.0337 -0.2148  0.0722
10369W        W23783   2.475  13.291   0.198  0.2607  0.1590  0.2000
10370W        W23784   9.171  18.047   1.592  0.0720  0.4309 -0.2667
10371W        W23785   1.558  14.550  11.933  0.2865  0.1296 -0.3692
10372W        W23786   3.296   6.544   1.879  0.0756  0.2864  0.0595
10373W        W23787   5.840  12.792   2.140 -0.2745  0.2671 -0.0566
10374W        W23788   3.142  12.140   2.808 -0.1584 -0.1261  0.0340
10375W        W23789   6.451  12.867   1.835 -0.3575 -0.1397  0.3405
10376W        W23790   9.351   9.363   3.712  0.0907  0.2630  0.2495
10377W        W23791  11.584   2.247  12.768  0.0848 -0.4167  0.0745
10378W        W23792  11.079  17.809  13.578 -0.0923 -0.0778  0.0848
10379W        W23793   3.803   4.891  14.023 -0.3166 -0.2356 -0.1745
10380W        W23794  14.887  14.258  15.906 -0.1746  0.0306  0.3283
10381W        W23795   9.331  10.253   0.743  0.1609  0.0348  0.1519
10382W        W23796  11.447   3.072  15.014  0.0998  0.0758 -0.4569
10383W        W23797  11.128   5.985  10.100 -0.3366 -0.0772 -0.0407
10384W        W23798   6.580  14.843  14.787 -0.0632 -0.1032 -0.0968
10385W        W23799   4.007   8.497   1.477 -0.4448 -0.1233 -0.0700
10386W        W23800  13.206   7.471   1.845  0.0389  0.1282  0.0913
10387W        W23801  17.577   5.576   2.216 -0.0437  0.2364  0.1310
10388W        W23802  10.249  13.161   5.359 -0.1822 -0.0334 -0.0974
10389W        W23803   3.209   6.006   2.372  0.1277  0.3086 -0.1095
10390W        W23804   0.528   1.542   6.611 -0.1791 -0.1002  0.0421
10391W        W23805   1.392   8.211   0.508  0.2945 -0.0407 -0.2121
10392W        W23806   7.465   3.252  13.312  0.0904  0.0540 -0.1694
10393W        W23807  14.751  10.969  12.390  0.1115  0.1173 -0.1481
10394W        W23808  10.676   8.825  15.879 -0.3233 -0.0161  0.0754
10395W        W23809   4.117  11.979   5.430  0.0865 -0.2154 -0.0621
10396W        W23810   6.006   3.121   0.993 -0.0973  0.0237 -0.1858
10397W        W23811  15.342  13.963  13.178  0.3286  0.0396 -0.2353
10398W        W23812  18.193  13.895   4.250  0.3192  0.2423  0.1410
10399W        W23813  16.140  13.418   1.438 -0.1413  0.1683  0.4451
10400W        W23814   4.370   2.523   2.197  0.0465 -0.0430 -0.1295
10401W        W23815   2.027   4.508  16.424 -0.1309  0.1886  0.0541
10402W        W23816  14.678   3.829   4.685 -0.0683  0.2481  0.0537
10403W        W23817  14.025  17.602   1.428 -0.1235 -0.2782  0.2209
10404W        W23818   0.963   6.548   5.265  0.2303  0.3402  0.4203
10405W        W23819  15.795  16.375  13.199 -0.2008  0.0123 -0.1463
10406W        W23820   7.929  15.869   2.111  0.3681 -0.1969  0.2095
10407W        W23821  10.540  16.514   5.190  0.1138  0.0556  0.0025
10408W        W23822  17.950  11.555  11.648  0.2118  0.2678  0.3106
10409W        W23823   4.288   4.119   3.102  0.0392 -0.0387 -0.0324
10410W        W23824   5.031  16.689   0.560  0.0888  0.2387 -0.0825
10411W        W23825  17.297   9.869   2.525 -0.4257  0.0354 -0.1077
10412W        W23826  15.787   7.156   5.236 -0.1692 -0.3057 -0.2608
10413W        W23827  18.176  13.479  15.223 -0.0811 -0.1413 -0.0602
10414W        W23828   1.041   5.912   2.092 -0.2175 -0.0306  0.2368
10415W        W23829  14.441  13.617  14.762  0.0458  0.0769  0.0344
10416W        W23830  15.869  15.272   5.292 -0.1909  0.2075 -0.0016
10417W        W23831   0.980  14.785  15.784  0.2521  0.0049 -0.1991
10418W        W23832   2.533   6.130  13.299 -0.0361  0.0175  0.1296
10419W        W23833   1.674   0.093   1.556  0.1947 -0.0457  0.1513
10420W        W23834   9.771   4.419  11.848 -0.2838 -0.0023 -0.1427
10421W        W23835  17.624   6.125   0.602  0.1670 -0.1542 -0.0794
10422W        W23836  17.440   3.120  11.447 -0.1463  0.0892 -0.0802
10423W        W23837  18.371  16.744   1.909 -0.1402 -0.2749 -0.1926
10424W        W23838   3.767   3.520  15.294  0.4161  0.2352  0.0267
10425W        W23839   7.225  16.527   3.921 -0.1392  0.2527  0.0092
10426W        W23840  14.632   6.399   2.359  0.0324  0.0194  0.0960
10427W        W23841  18.104  15.931   1.523  0.4337  0.1814 -0.2165
10428W        W23842   9.507  12.837  12.035 -0.1941 -0.1262  0.4505
10429W        W23843   6.349  10.647  15.070  0.3391  0.1029  0.1228
10430W        W23844   4.794   9.006   3.014 -0.1084  0.3179 -0.0575
10431W        W23845  15.892  13.593  14.639  0.2831 -0.3774 -0.3844
10432W        W23846   0.873   3.467   2.752  0.1570  0.1736 -0.4227
10433W        W23847   3.675   4.107   3.956 -0.0417 -0.0794 -0.1704
10434W        W23848  10.728   1.233   9.833 -0.3542 -0.0029  0.0386
10435W        W23849  12.508   4.506   0.272 -0.0484 -0.0405  0.3480
10436W        W23850  16.433   8.421  11.227 -0.1658  0.3846  0.0570
10437W        W23851   4.368   2.202  11.628  0.0489 -0.1464  0.2100
10438W        W23852  16.134  13.955   0.787 -0.1440 -0.1229 -0.0096
10439W        W23853  17.209  17.219   6.049 -0.1427  0.0681 -0.1518
10440W        W23854  12.705  17.781  14.975 -0.0663 -0.1508 -0.0039
10441W        W23855  14.370  17.574  14.441 -0.2009  0.1302  0.1164
10442W        W23856   2.453  10.892  11.408 -0.0414 -0.2330 -0.3662
10443W        W23857  11.456  15.349   3.197 -0.0304 -0.2143  0.1620
10444W        W23858  12.740   6.187  10.379 -0.2468  0.2023  0.2602
10445W        W23859   2.486   8.737   1.309  0.0559 -0.1204 -0.0236
10446W        W23860   2.133  10.063   2.472 -0.0046  0.0339 -0.1461
10447W        W23861  11.914  10.025   1.047  0.0147  0.3047 -0.0670
10448W        W23862   2.855  12.906   1.716  0.0407  0.1394  0.1095
10449W        W23863   5.034  12.450   6.015  0.0511  0.0165  0.0628
10450W        W23864  12.871  13.999  12.690  0.0318  0.3035  0.0064
10451W        W23865   3.390  15.082  14.146  0.2284 -0.2493  0.6654
10452W        W23866   6.575   3.253  15.844 -0.0575  0.4235  0.1378
10453W        W23867   3.740   0.146  12.797 -0.1650 -0.0707 -0.2119
10454W        W23868  10.928  10.524   2.594  0.2153  0.1503  0.3175
10455W        W23869   1.209  17.956   6.604  0.0574 -0.0570 -0.3028
10456W        W23870   5.956  13.071   1.709  0.0775 -0.1600  0.0065
10457W        W23871  15.699  14.112   4.438  0.2534 -0.2294  0.2389
10458W        W23872   2.260   0.757   1.574 -0.2150 -0.0278 -0.1486
10459W        W23873  13.403   0.949  13.300 -0.3103  0.1617  0.2525
10460W        W23874   8.948   0.249   1.560 -0.0786  0.0597  0.1234
10461W        W23875  17.719   9.540   0.589  0.3145  0.1207  0.0084
10462W        W23876   7.665  11.753  15.265 -0.1795  0.0558 -0.2472
10463W        W23877  14.669  10.198   4.362 -0.1173 -0.1206  0.1383
10464W        W23878   3.586   0.834  13.754 -0.3358 -0.0169 -0.3764
10465W        W23879  10.107  12.491   1.109  0.2480  0.3421  0.1721
10466W        W23880   6.682   5.332   0.631 -0.1207 -0.3043 -0.0518
10467W        W23881   2.987   2.300  11.113  0.1370 -0.0050 -0.2379
10468W        W23882  17.420   3.732   5.202  0.1310  0.2070  0.3563
10469W        W23883   8.006   9.319   3.993  0.1531  0.0334 -0.1728
10470W        W23884   6.460   9.008   3.912 -0.1583  0.4658  0.0348
10471W        W23885  12.079  12.269   5.184 -0.4048  0.1658 -0.0536
10472W        W23886   9.131  15.743   1.925  0.2594 -0.0187 -0.3876
10473W        W23887   5.870  15.053  15.714 -0.0893  0.1250 -0.2283
10474W        W23888   7.765   6.578   0.078 -0.0053 -0.0860 -0.2176
10475W        W23889   2.949  14.732   1.792 -0.0104  0.1917  0.0703
10476W        W23890   4.328  16.027  13.615 -0.0084  0.1469  0.0894
10477W        W23891  11.402  17.954   4.437  0.2893 -0.1090  0.1088
10478W        W23892   6.263   5.665  12.948 -0.0810 -0.2158 -0.0638
10479W        W23893  16.572  12.764  12.185 -0.0766 -0.0669  0.0122
10480W        W23894   9.865  12.770  11.351 -0.0770 -0.0071  0.1753
10481W        W23895   7.747  11.066   1.350  0.0502 -0.1391  0.0953
10482W        W23896   1.774   0.676  15.789  0.1497 -0.0005 -0.1455
10483W        W23897   1.260   1.565   4.916  0.0613  0.1776 -0.3249
10484W        W23898   7.309   6.351  10.872 -0.0108  0.0126  0.7726
10485W        W23899  15.083  12.733  11.148  0.1897  0.2166  0.1143
10486W        W23900   6.921   1.551  12.461  0.1247 -0.1645 -0.1322
10487W        W23901  11.714   0.070   4.060 -0.0282 -0.0192  0.0630
10488W        W23902  14.934  17.755  15.651  0.4571  0.1550 -0.1031
10489W        W23903  13.510  12.041   0.746 -0.1022  0.1879  0.0336
10490W        W23904  13.102  12.196   0.079 -0.3008  0.1180 -0.2192
10491W        W23905   3.183  10.718   0.753  0.0933  0.0516 -0.0359
10492W        W23906   9.293   4.151  13.555  0.0940  0.0914 -0.1977
10493W        W23907  12.189   3.264   5.601 -0.2722 -0.0358  0.0559
10494W        W23908   3.039  15.337   2.284  0.1674 -0.0073 -0.0525
10495W        W23909  15.497  13.616   3.247 -0.1060 -0.4136  0.0932
10496W        W23910   5.835  14.827  10.692 -0.0442  0.0052  0.0562
10497W        W23911  16.834  14.252   5.279  0.2462  0.0394 -0.1787
10498W        W23912   1.647  14.591  13.475  0.1491  0.1934  0.1238
10499W        W23913  11.061  15.131  12.085 -0.1959  0.1506  0.0905
10500W        W23914   7.660   5.208   2.414 -0.0449  0.1477  0.1898
10501W        W23915  16.862   9.640   2.481  0.2055 -0.1240 -0.2023
10502W        W23916   0.538  11.723   1.501  0.1090  0.1998 -0.1298
10503W        W23917   2.869   7.564   3.182 -0.0526  0.0287  0.0907
10504W        W23918   9.939  13.583  13.400 -0.1082 -0.0377  0.0163
10505W        W23919   6.158   2.123   1.588 -0.1340  0.0905  0.2137
10506W        W23920   7.312  13.441  16.068 -0.1872 -0.1040  0.0890
10507W        W23921  18.263   6.055   1.516  0.3169 -0.0731 -0.0751
10508W        W23922  11.158  15.448   6.117  0.0725  0.0838  0.1888
10509W        W23923   9.295   2.896  12.702  0.1833  0.1408  0.2432
10510W        W23924  14.537  16.108  15.452  0.0203  0.2266 -0.2196
10511W        W23925  16.709   9.193  14.080 -0.2351 -0.0877 -0.3211
10512W        W23926   7.086  16.407  13.033  0.0373  0.2553 -0.0796
10513W        W23927   0.071   4.549   2.153 -0.1533 -0.0558  0.1642
10514W        W23928   2.167   8.959  16.102 -0.3058  0.4479 -0.0357
10515W        W23929  16.401   0.164   5.125  0.0505 -0.1450  0.1601
10516W        W23930  14.812   6.289   0.081  0.0294 -0.1401 -0.0474
10517W        W23931  12.150   5.495   0.134 -0.0740  0.0103  0.0165
10518W        W23932   1.972  18.042   2.771 -0.1095 -0.0337  0.0853
10519W        W23933  16.190  12.972  16.401  0.4445  0.1843 -0.0726
10520W        W23934   2.149   9.941  14.150 -0.2839  0.7515  0.0238
10521W        W23935  10.910   8.158  10.372 -0.0545  0.0645 -0.0964
10522W        W23936   2.873  14.336   4.257  0.1964 -0.2582  0.2569
10523W        W23937  13.579   4.411  16.512  0.3868  0.0623 -0.0300
10524W        W23938   9.415   5.416  15.938 -0.1276  0.0111  0.2705
10525W        W23939   0.692   3.146  12.147 -0.1503 -0.0404 -0.0315
10526W        W23940  16.013  16.462  15.749 -0.2515 -0.0780  0.0057
10527W        W23941   7.544   8.594   1.006  0.1194 -0.1150 -0.1335
10528W        W23942  16.193  11.435  13.208  0.0398 -0.1085  0.0195
10529W        W23943   7.930   8.132  14.054  0.1250  0.0132  0.0134
10530W        W23944  15.465  14.102  15.841  0.1358 -0.0992 -0.4478
10531W        W23945  13.005   5.224   1.705  0.2653 -0.0993 -0.2253
10532W        W23946  11.871  14.733  13.726  0.3146 -0.0371  0.3283
10533W        W23947   0.186  10.283  15.640 -0.2279 -0.0913 -0.0329
10534W        W23948   1.326  18.094   1.769  0.3726  0.0961 -0.1001
10535W        W23949   1.407   1.485   5.411  0.1864  0.0571  0.1339
10536W        W23950  10.601  15.019   0.379 -0.3156 -0.1377  0.1918
10537W        W23951   9.017  14.595   0.428 -0.1445 -0.4785  0.3989
10538W        W23952   0.329   7.190   5.471  0.0434  0.2377  0.0933
10539W        W23953  16.221   9.276   5.824 -0.1664  0.3047  0.0008
10540W        W23954  13.948   5.531   2.917  0.4269  0.1994  0.1264
10541W        W23955   0.230  10.463  12.068  0.0893 -0.0260  0.0866
10542W        W23956  14.729   6.348   4.099 -0.2521 -0.0508  0.1290
10543W        W23957   8.585   8.179   2.904  0.0391  0.4378  0.1682
10544W        W23958   9.824   8.501  13.366 -0.1352  0.1687  0.0747
10545W        W23959   6.588  18.307  13.286  0.0719 -0.1909 -0.1605
10546W        W23960   5.585  11.560   4.095 -0.0547  0.0476 -0.1725
10547W        W23961   9.285   8.463  16.235  0.1582 -0.0973 -0.1996
10548W        W23962  11.366  14.689   5.656 -0.0057 -0.1483 -0.0652
10549W        W23963   3.325   0.729  12.031  0.0279 -0.2799  0.1079
10550W        W23964   7.761  10.708   1.015 -0.0133  0.3800  0.0280
10551W        W23965   1.172   9.988  13.917  0.0905  0.1101  0.2185
10552W        W23966   4.537  13.913   0.355  0.1411 -0.2064  0.2330
10553W        W23967  16.495   1.985   3.528  0.1472 -0.3700  0.1345
10554W        W23968   3.113  15.710  12.111 -0.0393 -0.2433  0.2041
10555W        W23969   2.829   7.469  14.780  0.1954 -0.1991  0.1752
10556W        W23970   8.733   1.892  13.784 -0.2249 -0.1271 -0.4755
10557W        W23971  13.773  18.211  13.512 -0.0192 -0.0488  0.0078
10558W        W23972   4.631   3.393  10.822 -0.2551  0.5392 -0.2152
10559W        W23973   1.928   2.702  13.382  0.2278  0.2165 -0.1309
10560W        W23974  10.415   4.833  11.022 -0.0642 -0.0573 -0.1001
10561W        W23975  13.732   1.628   2.174 -0.3862  0.1339 -0.1042
10562W        W23976   4.466   8.004  11.492  0.0134 -0.1638 -0.3499
10563W        W23977  12.545  15.819  12.226 -0.0190 -0.5680 -0.1179
10564W        W23978  17.870  10.459  15.973 -0.2139  0.1709 -0.2936
10565W        W23979  11.211   8.656   3.473 -0.0085  0.1041  0.0142
10566W        W23980   4.079   8.790  16.484 -0.1448  0.2438 -0.0203
10567W        W23981  12.911  16.888   0.406  0.0493 -0.0912  0.5123
10568W        W23982   0.762   8.888   0.090  0.2297 -0.0996 -0.3623
10569W        W23983  12.906   3.346   4.092 -0.0970 -0.0547  0.4778
10570W        W23984   5.218   8.177  13.717 -0.0235  0.0513 -0.2572
10571W        W23985  17.177   9.102  10.981  0.0023  0.1426 -0.0664
10572W        W23986  16.027  17.731   7.146 -0.2811  0.0235  0.1053
10573W        W23987  14.226   9.644   0.937 -0.0743  0.1296 -0.2664
10574W        W23988   2.395   0.230   1.092 -0.1760  0.2418 -0.2419
10575W        W23989  16.899  12.826   2.752 -0.0682 -0.0162 -0.3875
10576W        W23990   2.297   5.382  15.470 -0.0117 -0.0693  0.1704
10577W        W23991  11.227   4.248  12.883 -0.0842 -0.1693 -0.1617
10578W        W23992  12.114  17.700   1.241 -0.1404  0.1512  0.1146
10579W        W23993   7.386  11.603  11.947 -0.0059 -0.1897 -0.2447
10580W        W23994   7.918   6.134   5.347  0.2930 -0.1003  0.2815
10581W        W23995   8.579  10.643   4.720 -0.2202  0.2188  0.1338
10582W        W23996  11.446   0.396  12.989  0.0277 -0.2161  0.1757
10583W        W23997   8.296   0.910  12.179 -0.1789  0.3971 -0.1753
10584W        W23998  11.205  13.900   4.543 -0.1650 -0.1047 -0.1645
10585W        W23999  10.905   9.366  13.543  0.0189  0.1362 -0.0595
10586W        W24000  15.794   2.895   3.558 -0.3807  0.1251  0.1698
10587W        W24001   6.402  17.695  14.132  0.3857  0.1217 -0.2516
10588W        W24002  11.002   0.447  16.077  0.2587 -0.2929 -0.0113
10589W        W24003  18.360  16.035   2.368  0.2666 -0.1017 -0.0280
10590W        W24004  17.570   1.498  14.288  0.0927 -0.0406 -0.1873
10591W        W24005  11.770  14.268  15.818 -0.4573 -0.5042 -0.1672
10592W        W24006   8.646  14.238   3.609  0.1370  0.1206  0.1695
10593W        W24007  17.475   1.383   2.868  0.0811  0.4034 -0.2555
10594W        W24008   3.254   1.777  12.234 -0.1256  0.1090  0.0233
10595W        W24009   4.069  16.236   1.240 -0.1169 -0.0461  0.1419
10596W        W24010   7.867  11.733   6.154  0.1587  0.0169 -0.0686
10597W        W24011   1.109  15.714  15.002  0.0114 -0.1365 -0.2152
10598W        W24012  12.751   0.021   4.954  0.0289 -0.1450 -0.1321
10599W        W24013   2.820  11.284   6.320 -0.3448 -0.1665 -0.0078
10600W        W24014   6.963   8.223  11.359 -0.3089 -0.1435 -0.0970
10601W        W24015  14.910   1.576  11.853 -0.1903  0.0067 -0.2658
10602W        W24016  10.341   6.554   3.266 -0.1261 -0.2605  0.2473
10603W        W24017  13.143  17.974  15.197 -0.2030 -0.2355 -0.0260
10604W        W24018  17.768   5.322   3.611  0.0027 -0.2917  0.0051
10605W        W24019  17.716  14.787   3.812 -0.1377 -0.1009  0.2930
10606W        W24020   8.085   3.197   9.783  0.0395  0.0524  0.1939
10607W        W24021  16.485   4.933  15.068 -0.4985  0.0232  0.3138
10608W        W24022  17.246   0.643  14.817  0.5077 -0.2561 -0.1300
10609W        W24023   6.051  18.382   1.326 -0.0148  0.1252 -0.0900
10610W        W24024   0.225  16.307  13.703  0.1005  0.0894  0.1720
10611W        W24025  15.255   0.279   4.907  0.2336  0.0220  0.0431
10612W        W24026   0.736  10.433   3.747 -0.2157 -0.2166  0.2289
10613W        W24027  16.324   7.696   1.306 -0.0369  0.3232  0.2932
10614W        W24028   5.530   8.076   3.953 -0.1813  0.0867  0.0129
10615W        W24029   0.668  14.759   6.508 -0.1420 -0.2195 -0.1998
10616W        W24030   4.141  17.299  11.792 -0.0069  0.1144  0.2123
10617W        W24031  18.151   6.870  11.739  0.2057  0.0055 -0.0104
10618W        W24032   8.178   2.239  11.881  0.1250  0.2102  0.1127
10619W        W24033   8.384   4.206   2.460  0.2345  0.0165 -0.1028
10620W        W24034  12.564   7.068  10.129  0.2948  0.1919 -0.1774
10621W        W24035   1.277   5.214   3.291  0.0538 -0.2624  0.2261
10622W        W24036  13.337  11.676   4.605  0.0719 -0.0794  0.0198
10623W        W24037  17.575  16.430  15.088 -0.0609 -0.0439  0.2152
10624W        W24038  11.370   9.560  11.762 -0.0526  0.0184  0.0621
10625W        W24039   1.187   4.135  12.770 -0.2180  0.0068  0.0768
10626W        W24040   5.881   8.709  13.759  0.1731  0.3165 -0.3199
10627W        W24041  14.950   2.894  16.463  0.0411  0.1524 -0.0853
10628W        W24042  14.764  12.381   1.258 -0.4088 -0.1500  0.0839
10629W        W24043   8.381   0.012   4.168 -0.1057 -0.1965  0.1915
10630W        W24044   2.456   0.889  10.411 -0.1763 -0.0114  0.4327
10631W        W24045   6.620   8.036   5.185 -0.1699 -0.0325  0.1443
10632W        W24046   6.789   3.967   3.409  0.2706  0.1567 -0.1518
10633W        W24047   8.886  14.799   5.285 -0.1110  0.2397 -0.2882
10634W        W24048   1.836  12.690   4.330 -0.2138  0.2852 -0.1703
10635W        W24049  11.447  13.684   5.908  0.1940  0.1187 -0.4267
10636W        W24050   7.261  11.342   4.489 -0.1841  0.3366  0.0580
10637W        W24051  17.471   4.884   0.287  0.0482 -0.1349 -0.0981
10638W        W24052   7.148  18.100  11.268  0.2750 -0.0788 -0.2426
10639W        W24053  14.135  12.721   2.094  0.4748  0.0545  0.2441
10640W        W24054  17.300  17.608   2.817 -0.3311  0.2410 -0.3316
10641W        W24055  15.246  18.315   2.558 -0.2147 -0.0858  0.2427
10642W        W24056   2.887  11.161  11.062  0.1831  0.2485  0.0702
10643W        W24057  12.980  13.319   6.274 -0.2341 -0.0885  0.0311
10644W        W24058  14.328  10.878   2.278 -0.3233  0.0188  0.3428
10645W        W24059  16.570  17.403   4.761  0.1052  0.0627 -0.1617
10646W        W24060   7.387  13.734   4.349 -0.0213 -0.2276  0.1647
10647W        W24061  15.442   4.929  10.825 -0.1879  0.3556 -0.1853
10648W        W24062  17.635   6.807   1.551  0.3835 -0.1103  0.2528
10649W        W24063  16.274  11.755   2.198  0.0699 -0.1856  0.0135
10650W        W24064   7.162   6.382  11.796  0.0919 -0.0879  0.0135
10651W        W24065   8.436   7.469  14.011  0.0125 -0.0695  0.2634
10652W        W24066   5.550   3.566  10.716  0.2165 -0.1282  0.0457
10653W        W24067  15.667  16.830   2.931 -0.1007 -0.2083 -0.1608
10654W        W24068   0.130  12.068  12.912 -0.2109 -0.1824  0.1358
10655W        W24069  11.880  17.045  16.420  0.0456  0.1695 -0.0230
10656W        W24070   1.875   9.510  10.239 -0.0033 -0.2112  0.3378
10657W        W24071  10.718  15.321  11.043  0.0218 -0.0005 -0.2361
10658W        W24072   3.668   7.919  13.086 -0.1115  0.1383  0.1189
10659W        W24073  12.775   5.186   0.488 -0.0885 -0.2894 -0.2922
10660W        W24074   7.812   4.306   3.323  0.2578  0.0981  0.0473
10661W        W24075   9.019   2.531  11.281  0.4927 -0.1121  0.0986
10662W        W24076   1.536   2.215  14.058  0.1829 -0.3882 -0.1572
10663W        W24077   8.699   3.289  15.069 -0.3018 -0.2689 -0.1766
10664W        W24078  13.142   5.661  16.433  0.0237  0.3446 -0.0282
10665W        W24079   3.314   1.160   5.923  0.0730 -0.0239 -0.2308
10666W        W24080   5.474   6.986  14.337  0.0713 -0.1192 -0.0926
10667W        W24081   6.336  11.250   2.981  0.2077 -0.0753  0.0458
10668W        W24082   6.161  13.607  11.506  0.0442 -0.0320  0.3335
10669W        W24083   8.877  16.090  14.022  0.0773 -0.0458  0.1295
10670W        W24084   3.328   1.509  16.232 -0.2137 -0.0439 -0.2359
10671W        W24085   9.896  10.227   4.545 -0.1410 -0.0180 -0.0542
10672W        W24086   4.668   9.595   1.079  0.0723 -0.1319 -0.0693
10673W        W24087  11.306   4.303   1.725 -0.3809 -0.1008  0.1651
10674W        W24088  16.751  17.077  11.178  0.1227 -0.4022  0.0090
10675W        W24089  11.673   4.047   0.008 -0.3375 -0.1722  0.0300
10676W        W24090  11.308   5.768   4.360  0.1139 -0.0118 -0.2306
10677W        W24091   6.151   9.877  13.201 -0.0984 -0.2919 -0.0145
10678W        W24092  18.002   4.603  15.233 -0.0604 -0.1967  0.0415
10679W        W24093   4.393  13.035   2.347 -0.1284 -0.0184  0.0209
10680W        W24094  10.991   4.063   2.706 -0.3898 -0.1854  0.0984
10681W        W24095  18.235  13.602   0.551 -0.1866  0.3464  0.1318
10682W        W24096   8.327  15.803  11.270 -0.1563  0.0059 -0.1197
10683W        W24097  13.855   3.283  10.935 -0.1111 -0.0043 -0.0090
10684W        W24098   4.136   6.205  15.260 -0.0259 -0.2132 -0.1034
10685W        W24099   9.473  17.778  11.888 -0.0389  0.2028  0.0846
10686W        W24100  12.983   1.156  14.629 -0.1909 -0.3890 -0.0211
10687W        W24101   0.192   9.018  14.101 -0.3246  0.0822  0.0388
10688W        W24102   4.254  13.090  11.263  0.0202  0.2695 -0.2317
10689W        W24103  17.545  16.851  15.290 -0.2172  0.1906 -0.1033
10690W        W24104   6.421   9.449   2.402 -0.1964 -0.4451  0.1268
10691W        W24105  15.529   9.086   0.835  0.1939 -0.1284  0.2172
10692W        W24106   4.032   0.855   4.341 -0.0381 -0.2346  0.1697
10693W        W24107   9.213   6.429   0.800 -0.3475  0.1846 -0.0079
10694W        W24108  14.105   3.191  15.917 -0.2452  0.4097 -0.2325
10695W        W24109   7.798   0.075   1.510 -0.1137 -0.1843 -0.2509
10696W        W24110   5.829   4.744  16.312 -0.0964 -0.3006 -0.0357
10697W        W24111   8.655  14.141   1.213 -0.2610 -0.0832  0.0485
10698W        W24112   6.267  11.253   2.353 -0.0863 -0.1127 -0.0060
10699W        W24113   3.746  12.504   0.303 -0.0417  0.0152 -0.1171
10700W        W24114   3.991   4.696  10.970 -0.0330  0.1384 -0.2463
10701W        W24115  16.650  15.944  12.231 -0.3712  0.1668 -0.1655
10702W        W24116  13.215   1.490   9.769  0.1734 -0.3032 -0.0035
10703W        W24117   3.676   8.508  16.334  0.0976 -0.0837 -0.0615
10704W        W24118  18.050  17.167   6.360  0.0235 -0.5538 -0.0105
10705W        W24119   1.321   3.692   0.744 -0.1016  0.1476 -0.0557
10706W        W24120   2.721  15.825  11.312 -0.1787 -0.0615 -0.0892
10707W        W24121   4.657  11.325   1.094 -0.0642  0.3114 -0.1612
10708W        W24122   5.794  16.226  16.281  0.0653 -0.1129  0.0120
10709W        W24123   4.766  15.071   3.348  0.1315 -0.0360 -0.3300
10710W        W24124   6.695   2.627   1.930 -0.0203 -0.1885 -0.0000
10711W        W24125   0.849  16.461   0.696 -0.0021 -0.1613 -0.0730
10712W        W24126   2.981  13.175   5.616  0.1947  0.0511  0.1129
10713W        W24127  15.042   3.598   5.858 -0.0063 -0.3448  0.1070
10714W        W24128   1.594   4.810  13.294  0.2513 -0.3259  0.1556
10715W        W24129   7.162  14.163  13.782 -0.3293 -0.4099  0.1713
10716W        W24130   2.050  17.467  12.923 -0.2333 -0.1237 -0.1468
10717W        W24131  12.309   7.384  11.166  0.1053  0.2548  0.1006
10718W        W24132  13.725   3.710  15.287 -0.1068 -0.0411 -0.0422
10719W        W24133   5.694   8.004  10.817  0.2387  0.0733  0.0241
10720W        W24134  17.031  15.968   0.929 -0.3431 -0.2159 -0.3958
10721W        W24135   1.740   9.178  16.254 -0.0745 -0.2458  0.2775
10722W        W24136   2.934   0.163  13.015 -0.4553  0.2837 -0.3178
10723W        W24137  14.259   2.932   0.874 -0.2339  0.0856  0.1425
10724W        W24138   3.738   8.821   5.798  0.3076  0.1584  0.1953
10725W        W24139  16.551  12.632  12.698 -0.0588 -0.0295  0.2994
10726W        W24140   2.294  14.416  10.418 -0.0735 -0.1140 -0.0456
10727W        W24141   0.505   8.515   2.788  0.0969  0.1063  0.2016
10728W        W24142   9.745   2.773  13.779  0.0108  0.2017 -0.3504
10729W        W24143  12.894  13.424   3.271  0.1310 -0.0327  0.2271
10730W        W24144   8.124   4.088  12.525 -0.4652 -0.0186 -0.0765
10731W        W24145  12.305  12.713   6.320 -0.2137  0.2160 -0.0787
10732W        W24146  16.749  13.756   5.369  0.0296 -0.0792  0.1818
10733W        W24147   6.071   1.418  13.356  0.0335 -0.1422  0.0194
10734W        W24148  14.510   2.319   3.996  0.1741 -0.1161 -0.2931
10735W        W24149   4.053   0.837   1.985 -0.0239 -0.2724 -0.0476
10736W        W24150  18.364   8.802   5.017 -0.1662  0.1134 -0.3540
10737W        W24151  14.705   5.537   3.373 -0.1366  0.1399 -0.3159
10738W        W24152  10.746   0.204  12.593 -0.1559 -0.0440 -0.0401
10739W        W24153  15.956  11.590   2.513 -0.0504  0.1680 -0.1448
10740W        W24154   0.362  16.302   0.151  0.0860 -0.2077 -0.1856
10741W        W24155  13.000   3.466  11.467 -0.0318  0.0580  0.3897
10742W        W24156  12.480   7.290   4.566  0.2247  0.1055 -0.0590
10743W        W24157  17.966   8.357   0.238 -0.0905 -0.3207 -0.1373
10744W        W24158   8.886   8.655  13.967  0.2500 -0.3323  0.0187
10745W        W24159   7.492  11.833   2.838  0.0214  0.0769 -0.1564
10746W        W24160  14.995   1.583   2.207  0.0262  0.0216 -0.1694
10747W        W24161   8.968   9.887  16.430  0.0291  0.1758  0.3332
10748W        W24162   6.106   8.393   1.870 -0.0876 -0.0036  0.0694
10749W        W24163  10.635  12.971   6.243  0.0361  0.2529  0.1035
10750W        W24164   9.237   4.252  15.131 -0.0933  0.0550 -0.0167
10751W        W24165  15.913   5.007   4.705  0.0819  0.0784  0.1636
10752W        W24166   1.966  15.334  11.842  0.1168  0.1100 -0.0926
10753W        W24167   5.208   7.927   0.217  0.2187 -0.0724  0.0049
10754W        W24168   9.530  14.347  15.706  0.0682  0.1434 -0.1076
10755W        W24169  14.146   1.519  11.443 -0.2243  0.0366 -0.1484
10756W        W24170  16.573  15.881  15.344  0.4438  0.4264 -0.2019
10757W        W24171  14.245  15.886   0.959  0.1093  0.1270  0.1903
10758W        W24172   4.620  16.742   1.476 -0.0689 -0.1383 -0.0163
10759W        W24173   1.457  16.160  14.860  0.0599  0.0788 -0.0677
10760W        W24174   8.165   3.500  13.801 -0.1602 -0.2412  0.3434
10761W        W24175   2.241   0.921  14.094  0.0866 -0.3770  0.2636
10762W        W24176   8.164   7.809  15.096 -0.0856 -0.0830 -0.2054
10763W        W24177   8.980  13.825  12.385 -0.0672  0.0594 -0.3854
10764W        W24178   2.916  10.981  11.910 -0.0534  0.2611  0.1366
10765W        W24179   3.986   1.447   1.256 -0.0805  0.2431 -0.2370
10766W        W24180  11.078   4.465  12.035  0.1538  0.1405  0.0172
10767W        W24181   5.160  14.581  15.011 -0.3106  0.2516  0.1189
10768W        W24182   0.233   4.444   2.758 -0.1946  0.0584  0.0979
10769W        W24183   4.150   2.906   1.735 -0.1074 -0.1285 -0.0327
10770W        W24184   9.441  15.988  10.748 -0.0992  0.1032  0.0337
10771W        W24185   3.882   8.677  11.564  0.0037  0.1136 -0.1405
10772W        W24186   3.781   6.457   0.128 -0.2059 -0.0811  0.2185
10773W        W24187  18.018   2.615  12.699  0.0626 -0.1288 -0.0787
10774W        W24188   2.143   6.564  15.828 -0.2533 -0.3847 -0.1431
10775W        W24189  14.851  15.504   1.466  0.3427  0.0323  0.2325
10776W        W24190  16.907   7.467   4.671  0.1728 -0.2933  0.1247
10777W        W24191   6.795  17.069   3.436  0.1953 -0.2593 -0.1427
10778W        W24192  11.259   6.268   1.661 -0.1478 -0.1916 -0.0277
10779W        W24193   8.129   1.116   4.735  0.3557 -0.1329 -0.1528
10780W        W24194   0.046   9.515  14.480  0.0056  0.0807  0.2647
10781W        W24195  16.589   3.207   5.283 -0.2164  0.3335  0.1276
10782W        W24196  11.903   0.802  14.399 -0.0162 -0.2351  0.0586
10783W        W24197   6.604  17.905  10.433  0.0186  0.0439 -0.1890
10784W        W24198  14.497   7.277   4.266  0.2079  0.2276 -0.2028
10785W        W24199  15.871   8.195   9.946 -0.0029 -0.1710 -0.1905
10786W        W24200   9.049  13.429  16.251  0.1881 -0.3066  0.2507
10787W        W24201   6.539   3.544  13.262 -0.3908  0.0975  0.0953
10788W        W24202  16.643   3.094  10.977  0.1203 -0.0716 -0.2400
10789W        W24203  16.355   8.727   5.761  0.3087 -0.0446 -0.2862
10790W        W24204   1.936  10.707   1.355  0.0195 -0.0300 -0.0840
10791W        W24205  17.023   5.806   4.134  0.0811 -0.0368  0.2840
10792W        W24206   5.147  10.571  14.264 -0.2192  0.1405  0.1859
10793W        W24207  14.333   5.302   1.459 -0.1731 -0.2537 -0.4171
10794W        W24208  16.195  17.935  15.659 -0.1118 -0.1280  0.1823
10795W        W24209  13.868   1.210  15.324  0.0376 -0.1141  0.0856
10796W        W24210  13.814   9.508   4.908  0.1442  0.0675 -0.1343
10797W        W24211  16.621  16.435   2.871  0.0529 -0.1803 -0.1677
10798W        W24212  12.321   2.741   2.396 -0.1153  0.2808  0.0993
10799W        W24213   7.435   2.986   3.475 -0.0311 -0.1403  0.2686
10800W        W24214   0.369   7.170   0.771 -0.0958 -0.0435  0.3294
10801W        W24215   3.613   4.919  12.437 -0.0546 -0.0238  0.1109
10802W        W24216  10.564   4.641  15.275 -0.0298  0.0920 -0.3264
10803W        W24217   2.764   1.460   2.527  0.1230  0.4074  0.0936
10804W        W24218   3.916  16.027   0.424  0.1033  0.1013  0.0342
10805W        W24219  16.075  16.442   4.067  0.0731  0.3657 -0.0254
10806W        W24220  11.497  13.941  16.091 -0.0216  0.1303 -0.1218
10807W        W24221  11.933  13.652  11.040 -0.2397 -0.1355  0.0300
10808W        W24222  11.460   1.742  12.441 -0.2856 -0.0725  0.0065
10809W        W24223  14.827  18.041   1.791  0.4316  0.2398 -0.0214
10810W        W24224  16.362  14.637  16.061 -0.1449  0.0433 -0.0939
10811W        W24225  18.293  11.719  14.793  0.0345 -0.1086  0.2066
10812W        W24226   2.175   8.343   0.988 -0.0138  0.0310 -0.1502
10813W        W24227  17.406  15.835  15.510 -0.0064  0.0372  0.0522
10814W        W24228   5.288  14.722   1.074  0.2149  0.0325 -0.1554
10815W        W24229  15.039  14.482  13.027  0.2797 -0.0944  0.0611
10816W        W24230   4.712   9.263  10.167  0.0443  0.1138  0.0458
10817W        W24231  14.429   2.592   1.251 -0.1219  0.1669 -0.2574
10818W        W24232   0.231   8.096   1.139  0.1750  0.1926 -0.0064
10819W        W24233  11.199   8.226   1.917  0.0952 -0.1772  0.1705
10820W        W24234  13.456   9.525   3.497 -0.0242  0.0708  0.2927
10821W        W24235  12.026  15.500   1.911 -0.2935  0.0506  0.1780
10822W        W24236  15.166  18.378   5.334  0.1128  0.3906 -0.3009
10823W        W24237  14.018   4.100  14.961  0.0060  0.0572 -0.0045
10824W        W24238  16.497  10.056  14.084 -0.0708  0.1292 -0.0254
10825W        W24239  14.173  11.170   2.925 -0.0246 -0.0232  0.3233
10826W        W24240  12.250  11.540  14.700 -0.1402 -0.1855 -0.1824
10827W        W24241   4.656   9.308  14.817 -0.1624  0.1383  0.0913
10828W        W24242   9.089  10.701   0.600  0.1330  0.0395  0.1044
10829W        W24243   0.165   6.578  15.382 -0.4147  0.0238  0.0506
10830W        W24244   7.560   6.106  14.786  0.0349  0.3260 -0.0400
10831W        W24245  17.384   7.743   1.498  0.1017 -0.1435  0.0322
10832W        W24246   4.896   0.056   3.142  0.0255  0.2337  0.0975
10833W        W24247   0.732  10.629   2.293  0.0550 -0.1950 -0.1859
10834W        W24248   9.570   8.172   2.925 -0.2799 -0.2029 -0.0060
10835W        W24249  15.613  12.080  10.512 -0.2996  0.0681  0.0047
10836W        W24250  12.528  16.202  12.572  0.1322  0.0509 -0.0219
10837W        W24251   6.350  14.377  16.001 -0.0527 -0.1316 -0.1196
10838W        W24252   8.756   3.552   2.010 -0.0920 -0.2810  0.2503
10839W        W24253   7.615   3.952  12.490  0.1402 -0.0628  0.2247
10840W        W24254   6.370  12.503   2.679  0.0563 -0.0319  0.0162
10841W        W24255   3.157  15.908   3.373  0.1908  0.1266 -0.1753
10842W        W24256  14.653   2.882  11.403  0.1274 -0.1380 -0.0189
10843W        W24257  15.442   2.940   5.494  0.0422 -0.3005 -0.1026
10844W        W24258   4.248  16.147   2.636  0.2241  0.2766  0.2218
10845W        W24259   6.159  15.374   5.359  0.1536  0.2711 -0.1787
10846W        W24260  14.213  11.805  11.053  0.0749 -0.2180 -0.2937
10847W        W24261  15.101   8.291   4.664 -0.1754  0.4232 -0.1914
10848W        W24262  13.500   6.981   5.417  0.1123  0.1474 -0.1206
10849W        W24263   2.974  18.111   6.149  0.0807 -0.0021  0.2363
10850W        W24264  11.134  13.066   4.847 -0.0436 -0.0720 -0.2101
10851W        W24265   7.649  18.256   3.552  0.0098 -0.3619  0.3363
10852W        W24266  16.616   6.090  14.378  0.0698 -0.1117  0.0513
10853W        W24267   0.990   1.398   3.657  0.0729 -0.0683  0.1058
10854W        W24268  10.846  15.995  16.409 -0.0643 -0.0692  0.0666
10855W        W24269   1.796   7.196   4.421 -0.2553 -0.0128 -0.1575
10856W        W24270   5.334   7.991  14.347  0.2293  0.1236 -0.0201
10857W        W24271   3.195  16.993   2.840  0.3437  0.3448 -0.2003
10858W        W24272  12.438   0.904  14.551 -0.0071 -0.0336 -0.2301
10859W        W24273   1.028  16.047   0.995 -0.4376  0.0772 -0.0334
10860W        W24274   2.127   4.051   3.237 -0.0950  0.1608 -0.2750
10861W        W24275   1.547  13.119   3.570  0.1720 -0.0871 -0.1027
10862W        W24276   5.635   9.359   5.243  0.0576  0.0382 -0.0726
10863W        W24277  13.564   3.452   1.567 -0.0084 -0.1132  0.1212
10864W        W24278   4.587   9.858   2.283  0.0335  0.1256  0.0424
10865W        W24279  15.408   5.959  12.481 -0.1394 -0.1179  0.4652
10866W        W24280   5.087   6.171  13.644 -0.1207  0.5219 -0.0125
10867W        W24281  16.850   2.679  10.807 -0.2900  0.0428 -0.5093
10868W        W24282  12.676   8.583   2.578  0.1479  0.1693 -0.1859
10869W        W24283   0.972   4.777   3.530  0.2195  0.3307  0.2174
10870W        W24284   0.884  14.638   3.805 -0.1842 -0.1812 -0.0034
10871W        W24285  15.233  16.579   2.899  0.1660  0.2410 -0.3624
10872W        W24286   8.734   9.886   0.682  0.1613  0.0055 -0.0831
10873W        W24287   0.732  17.124   7.470  0.1734 -0.3860  0.0991
10874W        W24288  17.058   2.036   4.237  0.0804  0.3245 -0.1989
10875W        W24289   5.191   0.659  13.857  0.2551  0.1073  0.2135
10876W        W24290  13.519  14.618   0.467  0.0740 -0.0475  0.0331
10877W        W24291  10.577  14.181  16.164 -0.0005 -0.2186  0.1607
10878W        W24292  10.306   4.990  14.576  0.0477  0.2065 -0.4882
10879W        W24293  17.960   1.452   5.789  0.0391  0.4219  0.1266
10880W        W24294  11.560   4.278   3.634  0.0193  0.2536  0.4105
10881W        W24295  10.019   8.078   3.137 -0.0106  0.0862  0.1145
10882W        W24296   5.905  10.845   5.333  0.1218  0.1917  0.1383
10883W        W24297  13.736   8.416  10.816  0.1048  0.1191  0.2238
10884W        W24298   5.026   6.487  10.723  0.0981  0.0189  0.1270
10885W        W24299   1.312  12.380   0.222  0.0726  0.1556 -0.1103
10886W        W24300   3.568   1.113  11.763 -0.0937  0.0013 -0.0290
10887W        W24301   1.295  14.481   0.302 -0.0152  0.2095 -0.1122
10888W        W24302   0.405  12.440   0.183 -0.4291 -0.0340 -0.3382
10889W        W24303   7.194  17.003   3.721 -0.0002  0.0731  0.2001
10890W        W24304   8.714   4.556   2.377 -0.0847  0.1055  0.2012
10891W        W24305   1.992  14.871  16.056  0.3423  0.0616 -0.0947
10892W        W24306   1.897   2.069  13.041 -0.1222 -0.2823 -0.1163
10893W        W24307   3.449   8.033   0.640 -0.0420  0.0023  0.2946
10894W        W24308   1.022  11.226  11.861 -0.2691  0.1652 -0.2095
10895W        W24309   7.790   8.298  13.273 -0.1795 -0.0291  0.1878
10896W        W24310  16.394   4.316  12.829 -0.0995 -0.0638 -0.3784
10897W        W24311   2.995  11.081   1.350 -0.0202 -0.1466  0.0837
10898W        W24312   1.898  17.583   2.931  0.1270 -0.1717 -0.0707
10899W        W24313  15.517  11.343   1.657 -0.1494  0.1807  0.0933
10900W        W24314   7.845  15.128  10.281 -0.0172  0.0302  0.0592
10901W        W24315  14.158  16.609   4.706  0.0002 -0.1678  0.0740
10902W        W24316   0.452  15.700   5.326  0.0868 -0.4249 -0.0986
10903W        W24317   5.322  16.569  12.747  0.1427  0.1295  0.3798
10904W        W24318   5.266  13.283   1.062  0.2407  0.0598  0.2705
10905W        W24319   2.449  13.105  15.577  0.0828 -0.0873  0.0949
10906W        W24320   3.867   6.587   1.025 -0.0904 -0.5121  0.0933
10907W        W24321   2.412   5.383  14.178  0.3689  0.2717  0.3866
10908W        W24322  16.369   7.227  15.169  0.4049  0.1099 -0.1321
10909W        W24323  16.445   1.758   5.303  0.0931 -0.1454 -0.0205
10910W        W24324   0.666  13.471   1.859 -0.2434  0.0239 -0.2821
10911W        W24325   0.591   7.552  13.549 -0.3580  0.1036 -0.2366
10912W        W24326  13.004   9.764   3.635  0.1428 -0.0126 -0.2967
10913W        W24327   5.687   4.751  14.767 -0.0125 -0.1661  0.2125
10914W        W24328   0.644   9.408   4.007 -0.0520  0.3742 -0.0599
10915W        W24329   9.365   3.206   4.700 -0.0859 -0.1350  0.0044
10916W        W24330  11.525   6.436  13.883  0.0007  0.0522  0.0873
10917W        W24331  10.429   5.801  13.358  0.3081  0.2399 -0.0114
10918W        W24332   8.174   3.836  13.370 -0.0744  0.2339  0.0020
10919W        W24333   3.427   1.489   1.949 -0.0242 -0.1739  0.0729
10920W        W24334   3.510  14.761  11.806  0.6684  0.1717 -0.2013
10921W        W24335  10.386   2.451  14.442  0.1573 -0.3411  0.2406
10922W        W24336  16.572   5.243   2.072 -0.3792  0.1956 -0.0488
10923W        W24337   1.429  17.691   4.042  0.0701 -0.2582  0.3253
10924W        W24338   4.913   5.052  11.322  0.1672 -0.1011  0.1764
10925W        W24339  12.624   7.922   3.932 -0.2591  0.0849  0.0451
10926W        W24340   9.398  10.601  13.609  0.0759  0.0325  0.2017
10927W        W24341  10.353  10.979  16.340  0.0292 -0.3332  0.0573
10928W        W24342  16.496  13.377   0.163 -0.0736 -0.2615 -0.2977
10929W        W24343  12.169   5.106  11.090 -0.0339 -0.0791  0.2006
10930W        W24344  17.635  15.686   4.289  0.0010 -0.0860  0.0067
10931W        W24345  14.875  14.026  11.882  0.1245  0.0960  0.1031
10932W        W24346  10.675   2.302  12.695  0.0360 -0.0243 -0.1591
10933W        W24347  15.556   6.766   5.093  0.0382 -0.0961  0.2625
10934W        W24348  17.918   1.539   4.764  0.0309  0.4986  0.0257
10935W        W24349  11.395   1.300   5.999  0.0508  0.1015 -0.1884
10936W        W24350  14.721  13.106   5.370  0.0197  0.0602  0.2734
10937W        W24351   3.728  14.892   1.017 -0.0668  0.0677  0.3251
10938W        W24352  17.691  17.422  15.147 -0.1504  0.1152  0.3565
10939W        W24353   0.762   0.310   0.687 -0.3049 -0.1504  0.1874
10940W        W24354   5.049   9.759  15.739 -0.0937  0.0879 -0.1859
10941W        W24355  14.264   5.104   5.808 -0.2200 -0.0107 -0.3322
10942W        W24356  14.419   0.305   3.776 -0.0652  0.0537 -0.4598
10943W        W24357  17.861   8.560  16.202 -0.1075  0.0562  0.3946
10944W        W24358  10.967   9.205  12.979 -0.0563 -0.4834 -0.1194
10945W        W24359  13.948   2.937  15.454 -0.0802 -0.1209 -0.4189
10946W        W24360   6.770  17.984  14.300  0.0299 -0.0015  0.1137
10947W        W24361   3.699  10.618  13.077 -0.1572  0.0609  0.0368
10948W        W24362   4.093  11.772   3.315  0.1764  0.1072  0.1011
10949W        W24363   4.826   0.891   2.415  0.3629  0.0501 -0.0999
10950W        W24364  18.064   3.155   2.995  0.1698 -0.0500  0.0214
10951W        W24365   6.984   4.456   3.048  0.2596  0.2927  0.1825
10952W        W24366  10.733   0.435   4.567  0.2294 -0.0549  0.0286
10953W        W24367  10.649  12.493   1.996 -0.3612 -0.2197  0.3997
10954W        W24368   9.335   2.155   3.761 -0.1263 -0.0990  0.2302
10955W        W24369  15.166   0.525   3.158  0.0798  0.0484 -0.0297
10956W        W24370  17.879   2.521   1.426  0.1457  0.2302  0.1621
10957W        W24371  12.378  15.300  11.789 -0.0981  0.3033  0.0395
10958W        W24372   7.025   1.723   0.256 -0.0970 -0.1707 -0.2092
10959W        W24373  15.288   1.287  16.000  0.1386  0.0952 -0.1535
10960W        W24374   8.645   9.125   0.200 -0.1484 -0.0404  0.0345
10961W        W24375   8.120   0.386   0.438  0.2064  0.0696  0.0534
10962W        W24376   8.883   1.168  12.971 -0.2408 -0.2386  0.0571
10963W        W24377   7.674   3.774  13.324  0.1946  0.0321  0.3019
10964W        W24378  18.383   2.327   4.524  0.1549 -0.2415 -0.1215
10965W        W24379  17.491  10.689  13.038  0.1676 -0.0405  0.1491
10966W        W24380   5.411   8.435   3.435 -0.0137  0.0402  0.1362
10967W        W24381   1.480   8.904   0.212  0.0960 -0.1476  0.0299
10968W        W24382  10.527  14.820   5.331  0.0741 -0.2328 -0.0879
10969W        W24383   0.888  13.125  11.965  0.0997 -0.2400  0.1806
10970W        W24384  10.805  16.699  14.409 -0.0601 -0.0553  0.0896
10971W        W24385  14.548   4.947  16.203 -0.0979 -0.2034 -0.0078
10972W        W24386   2.300   7.167  13.452 -0.2020 -0.0977  0.3171
10973W        W24387   2.790   1.268   6.636 -0.3051 -0.0855 -0.1766
10974W        W24388  11.064   1.045   6.288  0.0669 -0.0746  0.1764
10975W        W24389   9.281   7.187  14.063  0.0192 -0.3303 -0.1340
10976W        W24390  13.147   4.008   4.194  0.1285  0.1141  0.1041
10977W        W24391  17.887   2.824  15.585  0.2417  0.0892  0.1050
10978W        W24392  14.081  12.499   2.659 -0.0283  0.1069 -0.0257
10979W        W24393   2.923  17.007   4.718 -0.0045  0.0469 -0.1715
10980W        W24394   8.564   0.593  13.534 -0.2575  0.1974 -0.1831
10981W        W24395   3.307  15.404  12.427  0.1044 -0.2445 -0.1383
10982W        W24396   5.544   3.834  12.379  0.0041 -0.0094  0.2123
10983W        W24397   9.087  14.306   5.328 -0.1392 -0.2066  0.0908
10984W        W24398   3.497  10.317  15.253 -0.0784  0.0786 -0.0725
10985W        W24399   0.116  10.487   0.524  0.0684  0.2312  0.1112
10986W        W24400   5.711   3.442  14.697 -0.0885 -0.3306  0.0681
10987W        W24401   5.808   3.469  12.653  0.0994 -0.3336 -0.2471
10988W        W24402   6.506  17.434  11.293  0.2129  0.0869  0.1041
10989W        W24403   9.639   4.428   2.688 -0.2696 -0.3800  0.0024
10990W        W24404   9.430  15.673  14.535  0.3098  0.1231 -0.0061
10991W        W24405  14.354   0.555  14.492 -0.2204 -0.0042  0.1363
10992W        W24406   7.726  15.260   4.056  0.0251  0.2392  0.0192
10993W        W24407  18.363   2.743   3.649  0.0329  0.1051 -0.0258
10994W        W24408   4.774  15.534   3.622 -0.0761 -0.3224  0.0800
10995W        W24409   9.041   5.492   3.968  0.0320  0.0522 -0.0358
10996W        W24410  15.551   9.572   0.624  0.0254 -0.0216  0.1824
10997W        W24411  14.748   0.064  15.584 -0.2326  0.3793  0.0675
10998W        W24412   1.015  11.167   3.241  0.0862  0.0591  0.1037
10999W        W24413   6.150   7.251   2.268 -0.0488 -0.0905 -0.1979
11000W        W24414   7.833   3.094  15.037 -0.0466  0.0999 -0.4198
11001W        W24415   3.969  16.050   4.115  0.1240 -0.0127  0.1391
11002W        W24416  11.269  16.262  13.141 -0.1473  0.1556  0.2507
11003W        W24417  11.012  13.379   3.253  0.2716  0.2977 -0.1120
11004W        W24418  11.131   0.463   2.953  0.1786  0.0380  0.0832
11005W        W24419   0.603   2.244  16.305  0.0531 -0.1930 -0.1733
11006W        W24420  15.287   3.119   3.688 -0.0219 -0.0566 -0.3067
11007W        W24421   9.532  17.923   3.253 -0.0170  0.0540  0.0288
11008W        W24422  13.604  14.566  11.786 -0.1294  0.0959 -0.1330
11009W        W24423   7.615   1.582  14.799  0.2204  0.0503  0.1038
11010W        W24424  15.222   6.211  14.483  0.0514 -0.0295  0.0315
11011W        W24425   1.601  11.854   0.856 -0.4448 -0.1743  0.1617
11012W        W24426  16.573  18.120   1.125  0.0403 -0.1296 -0.0912
11013W        W24427  16.629  10.068  15.569  0.2079  0.0619  0.2013
11014W        W24428   0.156   4.854   0.654  0.0104  0.2579  0.1061
11015W        W24429  12.084  18.232  14.208  0.0701 -0.0906 -0.2390
11016W        W24430   8.975   1.782  16.502 -0.0032 -0.4538 -0.1488
11017W        W24431   1.734   7.483  14.648 -0.1048  0.2274  0.0296
11018W        W24432   1.792   5.167   0.799 -0.2325  0.2797 -0.1637
11019W        W24433   2.811  17.607   3.372 -0.0339  0.0665  0.0624
11020W        W24434   7.168   1.619  11.061  0.0699 -0.1013 -0.1594
11021W        W24435   9.357  17.790   3.730 -0.0918  0.1028  0.0044
11022W        W24436   9.831  15.937  11.715  0.2953 -0.2417 -0.2841
11023W        W24437   1.126  12.078   1.915 -0.3384 -0.2277  0.1232
11024W        W24438  16.499  18.321   4.086  0.0898  0.2144 -0.1645
11025W        W24439  14.935  10.715  14.436  0.3375 -0.2876  0.0758
11026W        W24440  15.578   0.258   0.358  0.3658  0.1156 -0.2416
11027W        W24441   5.991  16.391   1.859 -0.0562  0.0862 -0.1314
11028W        W24442  18.155  13.193   2.211  0.0523  0.0977 -0.0561
11029W        W24443  10.819  11.775  11.167 -0.1060 -0.0510  0.1000
11030W        W24444   2.973  13.592   5.222  0.1985  0.3463 -0.0227
11031W        W24445   7.454  10.059   4.927 -0.0916 -0.1723 -0.2562
11032W        W24446  14.802   4.283   5.500  0.0945 -0.0094 -0.2936
11033W        W24447  16.127  16.758  13.032 -0.3655  0.0480 -0.3738
11034W        W24448  16.482  10.063   5.554 -0.0832 -0.0181 -0.1556
11035W        W24449  12.972   3.013   4.508  0.0412  0.1508  0.1805
11036W        W24450  14.513   3.535   2.534  0.1747 -0.1169 -0.2415
11037W        W24451   9.964   5.882   1.069 -0.3063  0.2715  0.2172
11038W        W24452   8.645   1.519   9.999 -0.3049 -0.1967 -0.1761
11039W        W24453   3.886  15.025   6.778 -0.0769  0.2432  0.2306
11040W        W24454   8.376   8.273   0.136 -0.1525  0.0810  0.1873
11041W        W24455  11.582   1.175  14.202 -0.0916  0.2437 -0.1137
11042W        W24456   9.400   1.796   9.788 -0.0433  0.2603  0.1413
11043W        W24457  13.291   0.352  15.553  0.0410  0.0641  0.1653
11044W        W24458   0.271   8.596  15.906  0.0657 -0.1888  0.0841
11045W        W24459  16.594   3.602   5.777 -0.2446  0.1996 -0.0604
11046W        W24460  15.519   1.784  12.597 -0.1190 -0.1680  0.0960
11047W        W24461   9.789   8.857   5.165 -0.0463  0.2168 -0.0432
11048W        W24462  11.369  17.543  10.524 -0.1029 -0.1458 -0.0587
11049W        W24463   2.616   2.369  10.777  0.5090  0.0387  0.1023
11050W        W24464   1.965   2.840  11.646 -0.0224 -0.0018  0.1198
11051W        W24465   5.326  18.394   2.877 -0.0188  0.1592  0.0514
11052W        W24466  18.239  10.192  13.427  0.0985  0.2093 -0.2048
11053W        W24467   7.574   7.032  10.201  0.0353  0.1533 -0.0800
11054W        W24468  17.714  11.259  12.793 -0.1499 -0.4221  0.3596
11055W        W24469  12.552   2.874   5.663  0.1044  0.2239 -0.1305
11056W        W24470   5.419   3.069   0.720 -0.0436  0.0954  0.1656
11057W        W24471   4.675  15.060  13.840 -0.2009  0.0635  0.1182
11058W        W24472   0.799   8.333  13.606 -0.1056  0.0617  0.0580
11059W        W24473  18.026  13.760   0.141 -0.1005  0.0668  0.0726
11060W        W24474   1.824  15.464   6.196  0.1884  0.0892 -0.3708
11061W        W24475  10.243   2.460   3.608  0.2413  0.2988 -0.0047
11062W        W24476  11.629  17.202   5.507 -0.3396  0.2805  0.0526
11063W        W24477  10.036  12.080  12.010 -0.0385  0.2168 -0.2665
11064W        W24478   4.540  16.758   5.771 -0.0648 -0.0006  0.1007
11065W        W24479   3.319  11.800   1.869  0.1651  0.3788 -0.0869
11066W        W24480   5.154   1.851   4.970  0.0933 -0.0211 -0.0984
11067W        W24481   0.642   6.185  16.215 -0.1042  0.0578  0.2489
11068W        W24482  13.712   0.500  11.888 -0.1102 -0.1587 -0.1127
11069W        W24483  12.410  14.019   6.224 -0.2705 -0.0067  0.3649
11070W        W24484   5.715   7.918   0.362  0.3104 -0.1814 -0.0321
11071W        W24485  17.296  14.362   1.907 -0.2045  0.0594  0.1314
11072W        W24486   5.532  14.178   3.773 -0.0304  0.1018 -0.0214
11073W        W24487   0.195  14.856   5.546 -0.1661 -0.2992 -0.1574
11074W        W24488   8.844   8.759   0.680 -0.1918 -0.5640  0.1203
11075W        W24489   0.991  13.398  14.748  0.1238  0.0529 -0.3175
11076W        W24490  14.574   6.170  12.929 -0.0274 -0.1643  0.1150
11077W        W24491   5.279  16.390   0.105  0.0167 -0.2935 -0.0084
11078W        W24492  18.251  17.359   4.597  0.1058 -0.1321  0.0656
11079W        W24493  11.157   2.133   6.312  0.2311  0.1334 -0.1535
11080W        W24494   3.141   7.357  15.228  0.2042  0.1353 -0.4332
11081W        W24495   3.994   7.198   5.163  0.1086 -0.0564  0.2653
11082W        W24496   1.606  13.019   1.828  0.1600 -0.1954 -0.5012
11083W        W24497   4.961  17.657   3.894  0.3931  0.2124 -0.1085
11084W        W24498   4.022   3.252   2.330  0.0243  0.0508 -0.2692
11085W        W24499   5.124   4.964  15.545 -0.1143 -0.0929 -0.1669
11086W        W24500   3.082  15.620   0.840  0.1858 -0.2145  0.4010
11087W        W24501  11.725   5.570  14.562 -0.0152  0.0036  0.1574
11088W        W24502   2.393   2.244   2.646  0.1030 -0.1603  0.4775
11089W        W24503   5.720   8.507  11.077  0.0425  0.2252 -0.1365
11090W        W24504   7.934   4.952   2.032 -0.2221 -0.3153 -0.0718
11091W        W24505  16.736  13.209  11.427 -0.0909  0.1285  0.2734
11092W        W24506   9.714   5.093  10.850 -0.2804  0.0620 -0.2473
11093W        W24507  17.183  15.145   0.436 -0.1521  0.0629 -0.0029
11094W        W24508  13.813   6.452   2.727  0.1426 -0.0608  0.0901
11095W        W24509   0.346   5.261   3.688 -0.1372  0.2001 -0.0258
11096W        W24510  14.725  13.438   0.061  0.2591 -0.0337  0.1394
11097W        W24511  12.756  16.275  12.057  0.1274 -0.0521 -0.1661
11098W        W24512   2.131   7.222  14.613  0.0803 -0.4928 -0.2759
11099W        W24513   3.435   2.652   3.731  0.2146  0.0699 -0.1876
11100W        W24514  10.731   3.162   0.329  0.0089 -0.0788 -0.0009
11101W        W24515  18.285   0.456  15.276 -0.0833  0.2351  0.0882
11102W        W24516   3.056  14.394  12.605  0.0596  0.4923  0.3524
11103W        W24517  15.104   7.047   4.797  0.1765  0.1256 -0.1250
11104W        W24518   3.770  16.067  12.928 -0.0274 -0.0302 -0.1897
11105W        W24519   8.853   7.310   3.029 -0.2436  0.0155 -0.3753
11106W        W24520   0.379   7.578   1.080 -0.1237  0.0148  0.0411
11107W        W24521   1.556  14.074  13.369 -0.3266 -0.1882 -0.1697
11108W        W24522  10.250   5.227   0.352 -0.1177 -0.3215  0.1637
11109W        W24523  16.272   5.328   0.108  0.0811 -0.2314  0.2850
11110W        W24524  18.081  14.099   2.513  0.1912  0.1717 -0.1486
11111W        W24525   9.353   5.677  11.518 -0.1973 -0.0474  0.0031
11112W        W24526  13.129   1.292   0.951  0.2088 -0.1328 -0.2309
11113W        W24527  13.209  10.736   4.804  0.1489 -0.0102 -0.1359
11114W        W24528   0.890   6.446  14.541  0.1001  0.0193 -0.3073
11115W        W24529  14.013   6.594   0.122 -0.0205  0.1835  0.0271
11116W        W24530  15.547   1.644   4.773 -0.2168  0.1045  0.1067
11117W        W24531   6.747   2.580  12.981 -0.4053  0.0069 -0.0796
11118W        W24532   1.328  16.137  16.476 -0.3417  0.0915  0.1070
11119W        W24533  13.381  10.892  15.244 -0.0127 -0.1165  0.2321
11120W        W24534  14.752   6.679   1.180  0.1317 -0.0960  0.5225
11121W        W24535   0.217  17.503  16.345 -0.1883 -0.1399 -0.1325
11122W        W24536  12.626   3.793   0.090 -0.1417  0.2499  0.1178
11123W        W24537   3.670   8.236   5.922  0.1375 -0.3406 -0.2693
11124W        W24538  13.805   5.227   3.312  0.0487 -0.1290  0.0291
11125W        W24539   1.327  11.598   2.185 -0.0510 -0.2557 -0.1133
11126W        W24540   6.376   3.192   3.499 -0.1652  0.1446 -0.2155
11127W        W24541  17.207   7.873   2.798  0.2039  0.1117  0.2506
11128W        W24542   1.845   1.874   0.679 -0.1691  0.1562  0.2812
11129W        W24543   5.678  13.694  16.124 -0.0516 -0.0577 -0.2450
11130W        W24544  13.012   7.755   1.357 -0.3470  0.0012 -0.0039
11131W        W24545  15.097  14.222   2.833 -0.1810  0.0786  0.0401
11132W        W24546   4.990  14.906   6.228 -0.0316  0.2908  0.0962
11133W        W24547   6.019   2.494  11.725 -0.0604  0.0284 -0.1549
11134W        W24548  15.219  14.303   3.317 -0.1084 -0.0677  0.1618
11135W        W24549   3.319   3.639   0.007  0.0099 -0.1059  0.3081
11136W        W24550   8.719  12.811  12.858 -0.0118 -0.1897 -0.0561
11137W        W24551  11.633  16.703   4.623  0.3373 -0.1796  0.0860
11138W        W24552   2.040   3.590  12.872 -0.0166 -0.0572 -0.1662
11139W        W24553  17.252   9.869   0.681  0.0326 -0.1517 -0.2048
11140W        W24554  17.228   0.737  11.507 -0.1103  0.0472 -0.2131
11141W        W24555  12.958  17.682  12.001 -0.3307  0.0614  0.1002
11142W        W24556   2.469   2.602  15.937 -0.0696  0.0505  0.1879
11143W        W24557   3.444   3.488  14.398  0.0834 -0.0483  0.2014
11144W        W24558  15.756  11.259  13.529 -0.1286 -0.5272  0.2003
11145W        W24559  17.451  14.720   0.252 -0.0157 -0.3663  0.2732
11146W        W24560   1.886   9.568   2.255 -0.0336 -0.0542  0.0733
11147W        W24561  16.830   6.007   1.427 -0.1901 -0.0232 -0.1188
11148W        W24562   1.518  17.976  14.800  0.2290  0.1106  0.0374
11149W        W24563  17.769  11.814  14.946 -0.0889 -0.1684 -0.1385
11150W        W24564   2.402  16.371   4.774 -0.0797  0.0130  0.0734
11151W        W24565   3.361   3.084  10.727 -0.1314  0.0320 -0.0658
11152W        W24566   2.753  16.363   5.735 -0.2803  0.0662  0.2793
11153W        W24567  13.006   8.557  11.786 -0.1408  0.2251  0.1901
11154W        W24568   0.065  13.426  10.951 -0.2454  0.0277  0.3209
11155W        W24569   4.461   2.002   1.409  0.4105  0.3881 -0.1893
11156W        W24570   6.714  14.990  14.302 -0.0301 -0.0915 -0.0062
11157W        W24571   7.327   8.518   5.042 -0.2281  0.0017 -0.1784
11158W        W24572   0.690   0.478   2.681 -0.0905 -0.2814  0.4479
11159W        W24573  13.482  11.362   0.385 -0.0031 -0.0807  0.1936
11160W        W24574   4.115   5.925   2.514 -0.0438  0.0182  0.0415
11161W        W24575   9.509  16.825   3.628 -0.1843 -0.3254  0.1718
11162W        W24576  12.786   1.670  11.567  0.0755  0.0182 -0.1461
11163W        W24577  11.485  13.504  14.823 -0.2629 -0.4033 -0.2994
11164W        W24578  16.563   4.027  12.419 -0.1232  0.3130  0.3188
11165W        W24579   4.510  10.851   5.723  0.3067  0.0133 -0.1321
11166W        W24580  12.006  16.795  12.400 -0.2009  0.1590  0.0567
11167W        W24581  16.699  11.010   2.788  0.2815 -0.1527 -0.1378
11168W        W24582  14.081  13.956  15.606 -0.0502 -0.3483  0.0074
11169W        W24583   6.327  13.210   1.424  0.1249  0.0020  0.0700
11170W        W24584   7.297  16.073   2.387  0.3841 -0.1341  0.1160
11171W        W24585   1.151  10.310   1.514 -0.0235 -0.4189  0.3927
11172W        W24586  14.705  16.850  16.027 -0.1405 -0.1804  0.0445
11173W        W24587   6.587   2.293   1.422  0.0375 -0.1081  0.2469
11174W        W24588  10.582  14.221   1.582 -0.1768  0.2693 -0.0281
11175W        W24589  10.363  10.094   1.329  0.1285 -0.0599 -0.1006
11176W        W24590   6.396  12.181   3.039  0.0771 -0.0681 -0.1297
11177W        W24591  16.670  16.115  12.717 -0.2098  0.0228  0.0387
11178W        W24592   5.842   9.243  15.917  0.0187  0.0977 -0.0162
11179W        W24593  10.932  10.296  12.162 -0.0309  0.1267 -0.4372
11180W        W24594   4.219   5.569   0.515  0.1651  0.2093  0.2279
11181W        W24595   8.492   7.591   1.710  0.0363  0.1760 -0.0782
11182W        W24596  13.396  10.796  13.717  0.2345 -0.1415  0.3569
11183W        W24597   8.075   5.875  14.644 -0.0322 -0.0617 -0.1119
11184W        W24598   7.314  13.915   3.636  0.1712  0.0351  0.3678
11185W        W24599   3.735  14.274   2.298  0.0428  0.2183  0.2611
11186W        W24600   1.382  11.127  13.642 -0.2583 -0.1248 -0.0564
11187W        W24601  16.662  18.370   1.530 -0.1223 -0.5304  0.2593
11188W        W24602  16.830   5.486   1.731  0.0079 -0.0409  0.0356
11189W        W24603   3.168   9.615  12.056  0.2606  0.1885 -0.4464
11190W        W24604   1.963  10.421   4.376 -0.0800 -0.2150  0.0500
11191W        W24605  12.656   9.287   2.467 -0.3348  0.1088 -0.0624
11192W        W24606   0.581  13.766   2.457 -0.1663 -0.1230 -0.1863
11193W        W24607  15.437  16.220  16.136 -0.2062 -0.1215 -0.1416
11194W        W24608   3.514   7.765  11.710 -0.2293  0.0516  0.2411
11195W        W24609   1.404   9.212  11.565  0.0044  0.0279  0.1453
11196W        W24610   8.849   6.687  13.381 -0.0634  0.1318 -0.1927
11197W        W24611  15.979  15.706   0.134 -0.0774  0.0717 -0.1420
11198W        W24612   1.521  11.901   5.045  0.2773  0.3182 -0.2120
11199W        W24613   1.879  13.969  16.379 -0.2409 -0.0159 -0.2378
11200W        W24614   7.078   2.313   1.708 -0.4535  0.4211 -0.1889
11201W        W24615  13.165  10.925  15.932  0.3440 -0.0725 -0.1413
11202W        W24616  11.157   6.860   2.609 -0.1705  0.0497  0.4489
11203W        W24617   8.655   1.441   3.964 -0.1964 -0.0316  0.0994
11204W        W24618   2.938  12.065   0.415  0.1630  0.1192 -0.2982
11205W        W24619   3.164  13.255   4.622  0.0773 -0.0158  0.1953
11206W        W24620  14.406   3.145  10.512  0.1129 -0.0371 -0.2238
11207W        W24621   7.526  13.000  11.425 -0.4163  0.0580 -0.0792
11208W        W24622   3.842  13.426   4.108  0.0437  0.2132 -0.1121
11209W        W24623  13.057  11.081  10.462 -0.2234  0.0959  0.0746
11210W        W24624   1.265   4.263   2.084  0.3191  0.1540 -0.1158
11211W        W24625  11.036   5.967  15.765 -0.0604  0.1290  0.2931
11212W        W24626   4.369  12.366  14.464 -0.2206  0.1071 -0.0800
11213W        W24627   6.221   2.167  15.524  0.2509 -0.0966  0.0671
11214W        W24628  13.456  15.268   0.973 -0.1585  0.2270  0.3627
11215W        W24629  11.983   6.786  14.540 -0.1287  0.0836  0.0744
11216W        W24630  11.553  11.023   6.538  0.1319  0.3741 -0.0122
11217W        W24631  15.877  13.165  12.897  0.0333  0.1524  0.0218
11218W        W24632   4.363  15.885   0.991  0.2461 -0.1406 -0.1191
11219W        W24633   8.768   3.960  16.300  0.0259 -0.0612  0.3232
11220W        W24634   0.651   0.801   1.053  0.2147 -0.1951 -0.0517
11221W        W24635  17.600  15.298   2.290  0.4190  0.1651  0.2847
11222W        W24636   5.398   0.918  13.292 -0.4093  0.0659  0.3763
11223W        W24637   5.212  13.296   2.848 -0.0668 -0.0559  0.0892
11224W        W24638   3.048  14.890  14.942  0.2747 -0.0378  0.1163
11225W        W24639   6.732   5.477   4.404  0.1741  0.0807 -0.0729
11226W        W24640  15.048   0.539   1.148 -0.2417 -0.1489 -0.1149
11227W        W24641  18.263   5.666  14.105 -0.0511 -0.1909 -0.0615
11228W        W24642  12.466   6.898  12.429 -0.0607  0.2214 -0.0154
11229W        W24643   2.885  12.805   0.704  0.0062 -0.0878 -0.1737
11230W        W24644   4.767   9.537   1.920 -0.2596 -0.2539 -0.0059
11231W        W24645  18.047   3.698   0.615 -0.0025 -0.0049 -0.1012
11232W        W24646  16.371   8.920  11.409 -0.1011 -0.1061 -0.0326
11233W        W24647  13.265  13.702   6.439  0.0205 -0.0891 -0.3498
11234W        W24648   7.704   2.179  14.814 -0.3096  0.1178  0.1156
11235W        W24649  10.672   7.418   0.730  0.2819 -0.2899 -0.1206
11236W        W24650   6.325   9.053  15.689 -0.2698 -0.1568  0.1539
11237W        W24651  15.748   9.796  15.986  0.2886 -0.1152 -0.1417
11238W        W24652  14.657   6.537  12.174 -0.0797 -0.2705  0.0315
11239W        W24653  11.694  12.310   2.116 -0.4772 -0.1232  0.1027
11240W        W24654   9.700   3.661  13.048  0.0636  0.1794  0.0657
11241W        W24655   2.883   4.601   2.626  0.0209 -0.0681  0.0495
11242W        W24656   7.472  15.925  10.001  0.2484 -0.3520  0.0108
11243W        W24657   9.639  14.703   2.279  0.2716  0.0418 -0.0856
11244W        W24658   8.266   0.738   2.828  0.2597  0.1581 -0.0505
11245W        W24659   8.168   6.723   4.944  0.0452  0.3645  0.2755
11246W        W24660   6.834   6.842  15.246  0.2866 -0.0489  0.0944
11247W        W24661   4.957  13.772   2.185  0.0967 -0.0978  0.0357
11248W        W24662   6.366   8.566   5.344  0.1550  0.0900 -0.2872
11249W        W24663  13.462  13.714  15.330  0.0912 -0.0615 -0.0531
11250W        W24664   5.105  13.512   6.782  0.0193 -0.0405 -0.0340
11251W        W24665   4.340  17.243   6.027 -0.1285  0.1783 -0.1109
11252W        W24666  16.476   0.879  12.035  0.1859  0.1522 -0.0710
11253W        W24667  10.309   4.293  10.937  0.2752 -0.0762  0.1006
11254W        W24668   1.876   6.636   0.828 -0.0085  0.1591  0.2603
11255W        W24669   8.938   5.482   9.803 -0.1387 -0.1801  0.3876
11256W        W24670   0.516   4.307   2.332 -0.1120 -0.1439 -0.0447
11257W        W24671   7.722  14.013   4.016  0.0635  0.2775 -0.2015
11258W        W24672   3.448   9.755   1.166  0.1835  0.2602 -0.0919
11259W        W24673   3.370  13.817   3.354  0.0457  0.0814 -0.1716
11260W        W24674   3.446  10.050  14.792 -0.1466  0.0611 -0.0841
11261W        W24675  11.438   1.057   0.206  0.2650 -0.3150 -0.1885
11262W        W24676  17.656   7.758  13.971 -0.1671  0.1466  0.1511
11263W        W24677  15.191   4.785  16.279  0.0782  0.0591  0.1415
11264W        W24678  13.017  18.148   5.839 -0.1215 -0.3749 -0.2215
11265W        W24679  11.318   9.253   0.809  0.0794  0.1335  0.0049
11266W        W24680  11.087   9.751   0.636 -0.3031  0.2368  0.1960
11267W        W24681   0.126   2.114  16.424 -0.1838  0.1736 -0.0040
11268W        W24682   0.996   7.444  11.166 -0.1648  0.0881  0.1143
11269W        W24683  18.366  17.048  13.053  0.1814 -0.0967 -0.1743
11270W        W24684   8.921   9.366  16.323 -0.0256  0.3424  0.1778
11271W        W24685   0.432   9.046  13.268 -0.1710  0.1550 -0.1317
11272W        W24686  17.273  14.596   5.412 -0.2102  0.3035 -0.1119
11273W        W24687   4.348   2.432  14.261 -0.1242 -0.1884 -0.0441
11274W        W24688  15.114  12.484   4.769  0.0627  0.0062  0.0235
11275W        W24689  14.878  13.992  13.112  0.0445  0.0020 -0.2959
11276W        W24690   5.366  11.224   0.755  0.1246  0.2771  0.2337
11277W        W24691   1.597  13.676  13.065  0.0533  0.2247  0.1103
11278W        W24692  13.777   1.073   2.044 -0.2826  0.0500 -0.2658
11279W        W24693   6.061   6.043  13.138  0.0361 -0.0122 -0.2706
11280W        W24694   0.647  16.984  15.449 -0.1752  0.1031 -0.0622
11281W        W24695  12.913  13.444   2.785  0.0284 -0.0562 -0.1736
11282W        W24696  14.058  15.864   2.487 -0.4145 -0.0344 -0.0379
11283W        W24697   1.760   6.061   4.427  0.0519  0.3523  0.1155
11284W        W24698  17.369   4.966   6.300  0.1240  0.0970  0.0047
11285W        W24699   2.938  17.967  11.559 -0.0475  0.3333  0.0944
11286W        W24700  10.063   9.823   4.332  0.0253 -0.0820  0.0823
11287W        W24701  10.146  18.047  16.162 -0.2765 -0.1233  0.0222
11288W        W24702  15.724   9.054   9.638 -0.1429 -0.3334 -0.1518
11289W        W24703  13.507  10.254  12.021 -0.2153 -0.2678  0.2263
11290W        W24704  14.083  15.103   3.650 -0.1725 -0.1993  0.0078
11291W        W24705   3.221  15.736   5.968  0.0590  0.0743  0.0088
11292W        W24706  10.989   4.611   5.176 -0.0661  0.1284 -0.3517
11293W        W24707  10.678  18.235   1.908  0.0533 -0.2644 -0.0094
11294W        W24708   8.267  13.361   5.310 -0.2761  0.0043 -0.3207
11295W        W24709   7.117   1.082   2.455  0.2025 -0.1411 -0.3884
11296W        W24710   4.774  16.497   0.093 -0.2280 -0.2685  0.1212
11297W        W24711   2.006   9.727  12.015 -0.2471 -0.0668 -0.1648
11298W        W24712   4.724   0.042  14.541  0.0395 -0.1629  0.2245
11299W        W24713   9.463   0.627   1.992  0.2822 -0.0127 -0.0325
11300W        W24714  10.904   5.670  14.124 -0.2849 -0.1458 -0.0773
11301W        W24715  15.099   9.116   5.933 -0.0536  0.2276  0.0610
11302W        W24716  14.421  13.598   2.297 -0.1157 -0.3179  0.0271
11303W        W24717   7.180  13.395   0.077  0.1852  0.1110 -0.0464
11304W        W24718  18.102  12.207  14.704  0.2751  0.5060 -0.2211
11305W        W24719   6.074   1.847   4.704 -0.1473 -0.3009 -0.0838
11306W        W24720   6.593  10.361   0.380 -0.1130 -0.2861  0.1017
11307W        W24721   9.099   1.928  14.141 -0.0648 -0.0377 -0.0052
11308W        W24722   3.352   6.752  16.291  0.2757  0.1338 -0.0484
11309W        W24723   3.422  17.405   2.009 -0.1247 -0.1048 -0.0559
11310W        W24724   4.247   8.674  13.284  0.0240  0.0920  0.0900
11311W        W24725  16.467  17.897  13.311 -0.1003 -0.1120  0.4098
11312W        W24726  10.024   9.813   2.745  0.2617  0.1229  0.0452
11313W        W24727   6.070  10.951  14.171 -0.0673 -0.2832  0.4061
11314W        W24728   4.056   6.570   3.500 -0.0041  0.3334  0.3914
11315W        W24729  15.902  15.540   3.209 -0.0414 -0.1225 -0.0067
11316W        W24730  10.295   9.916  15.868 -0.0368  0.0624 -0.1176
11317W        W24731   7.838  12.540  15.772 -0.0365 -0.1663 -0.3140
11318W        W24732  13.551  14.519   5.302  0.0513 -0.2495 -0.2571
11319W        W24733  14.222  16.160   6.209  0.2946 -0.1440 -0.1729
11320W        W24734  17.125  10.528   9.923 -0.0437 -0.0021 -0.1840
11321W        W24735   9.428  10.079  16.385  0.0615 -0.0064  0.2766
11322W        W24736   6.844   7.131  10.768  0.2063  0.0027 -0.1855
11323W        W24737   7.810   8.406  10.087  0.0106  0.0008  0.0107
11324W        W24738   5.149  15.113   2.945 -0.3237 -0.1195  0.1765
11325W        W24739   4.343   4.750   4.901 -0.0373  0.1669  0.0789
11326W        W24740   8.901   7.197   2.544  0.0249 -0.4202 -0.2073
11327W        W24741  14.354   3.401   0.805 -0.1592  0.1235  0.2339
11328W        W24742   9.464   5.210   1.929  0.1451 -0.0136 -0.0652
11329W        W24743  11.843  16.569   0.973  0.1088 -0.0620 -0.0416
11330W        W24744  16.426   7.305   1.028  0.1483 -0.0544  0.0122
11331W        W24745   2.639  12.332  12.419 -0.0966 -0.0127 -0.0378
11332W        W24746  13.814  13.915   4.667  0.0740 -0.0350  0.2976
11333W        W24747  10.375  13.325  16.362 -0.2361  0.0030 -0.0733
11334W        W24748   7.248  17.043   9.562  0.2449 -0.0795  0.1936
11335W        W24749   6.359  11.677   1.368 -0.4381 -0.2584 -0.0475
11336W        W24750  14.667  14.325  16.336 -0.1524 -0.2053  0.0151
11337W        W24751  13.580   1.148   3.137 -0.1338  0.0543 -0.0961
11338W        W24752   1.598  10.114  15.878 -0.0475 -0.4128  0.1154
11339W        W24753   7.628   3.743   1.063 -0.0351  0.1877 -0.3499
11340W        W24754   3.445   2.255  15.761 -0.0140  0.0229 -0.2285
11341W        W24755   5.428   1.101   3.663 -0.0274 -0.0833  0.1711
11342W        W24756  12.268  11.334  12.633 -0.0980 -0.2086  0.0869
11343W        W24757  17.202   1.703   3.938 -0.1132  0.0663  0.0287
11344W        W24758   3.802   4.916   2.865 -0.1991  0.2138  0.2068
11345W        W24759   9.194   3.628   1.699 -0.1975  0.0498  0.0987
11346W        W24760  11.480   7.989   0.616  0.0553  0.0736 -0.2598
11347W        W24761   0.366  10.842  12.388 -0.1454  0.1099  0.1244
11348W        W24762   8.032  16.951  11.708 -0.0980 -0.1467 -0.0222
11349W        W24763  11.929   9.213  11.049  0.0186  0.0541  0.0129
11350W        W24764  13.166  17.399  15.643 -0.0932  0.4835 -0.0118
11351W        W24765   1.364   1.817   0.826 -0.0039  0.2193 -0.0873
11352W        W24766  11.887   4.675  11.012  0.1370  0.0940  0.0453
11353W        W24767   7.752   8.622  11.410 -0.2753 -0.1211 -0.4321
11354W        W24768  15.665  17.451   6.220  0.1666  0.3108  0.1380
11355W        W24769  11.049   2.219  14.846  0.0403 -0.2085 -0.0023
11356W        W24770   3.652   3.616  10.121  0.0926 -0.0131  0.1733
11357W        W24771   5.617  15.481   2.815 -0.2083  0.0611  0.0318
11358W        W24772   7.351  13.202   1.435 -0.1934 -0.0408 -0.4620
11359W        W24773   7.038  13.188   1.829 -0.0551 -0.3278  0.0729
11360W        W24774  14.308   4.252   1.818  0.1170  0.3368 -0.1653
11361W        W24775   5.445  10.543  13.733  0.0305 -0.1957  0.1882
11362W        W24776   8.033   4.871  14.791  0.0995 -0.0306 -0.1312
11363W        W24777  14.453  14.072   2.464  0.1347  0.2358  0.1867
11364W        W24778   3.890   4.950  12.018 -0.2298  0.0163  0.0912
11365W        W24779   2.338   6.124  15.826  0.3604  0.1263 -0.2409
11366W        W24780  11.545   7.257  12.966 -0.2754 -0.1721  0.0350
11367W        W24781   6.732  11.722  12.878 -0.0253  0.2499  0.0861
11368W        W24782   3.803  17.767   2.082 -0.0159  0.1781 -0.1759
11369W        W24783   1.708   1.549   1.074 -0.0645  0.0071 -0.1439
11370W        W24784   0.056   0.511  11.181  0.0018 -0.2681 -0.2569
11371W        W24785   0.774  17.712  11.616 -0.1051  0.1112  0.0066
11372W        W24786   3.031  17.547   2.865 -0.1178  0.1068  0.2065
11373W        W24787   8.499   3.084  12.291 -0.0274 -0.1353 -0.0383
11374W        W24788   5.710   8.571   0.920 -0.2854  0.0168  0.2047
11375W        W24789  15.193   8.859  16.422 -0.1342  0.3677 -0.0778
11376W        W24790  13.188  16.974   1.654 -0.0360 -0.2230  0.0484
11377W        W24791   4.805  13.094  16.133 -0.0607  0.0275 -0.3051
11378W        W24792  10.526   3.138  15.804 -0.0130 -0.0026 -0.0214
11379W        W24793   4.737   3.084   4.535 -0.1303  0.1918 -0.1557
11380W        W24794  14.847   0.391   1.559  0.3317 -0.1047  0.2405
11381W        W24795  11.819   6.349  14.436  0.4097 -0.0245 -0.1610
11382W        W24796  12.945   0.797   1.661  0.0217  0.0415  0.2295
11383W        W24797   8.296   3.697  14.425 -0.2895 -0.0721 -0.2657
11384W        W24798   2.908   3.726   5.882 -0.1812  0.1072 -0.0586
11385W        W24799   3.428   0.722   0.361 -0.0708  0.1868  0.0434
11386W        W24800   2.224  14.072   1.299  0.0030 -0.6134 -0.2068
11387W        W24801  14.050   9.530  15.726 -0.2680  0.1606 -0.0581
11388W        W24802  17.956   0.113   5.133  0.1275  0.2352  0.0314
11389W        W24803   4.116  11.480   5.653 -0.0846 -0.1401  0.1596
11390W        W24804   5.999   1.886   1.167  0.1697  0.1840 -0.0227
11391W        W24805   2.735  15.228  10.252  0.1328 -0.1650 -0.1335
11392W        W24806  13.238  18.322   2.975  0.2196  0.0320 -0.0310
11393W        W24807  14.554  13.545   0.879 -0.3629 -0.0071  0.1058
11394W        W24808  12.528  15.040   4.135  0.2258 -0.0367 -0.0004
11395W        W24809  17.320  17.731   1.504 -0.0948  0.1926  0.3848
11396W        W24810   4.384   9.818  13.152  0.1531 -0.0695  0.1512
11397W        W24811   9.009  10.365  16.093  0.0992 -0.1369  0.3257
11398W        W24812   1.158   1.303   4.128 -0.0894  0.1321  0.2390
11399W        W24813  17.769   9.491  15.513  0.0022  0.1274 -0.1395
11400W        W24814   4.979  14.276  14.639 -0.3804  0.0831  0.0896
11401W        W24815   4.349  11.184  11.097 -0.1239 -0.3143  0.0892
11402W        W24816  16.667   2.660   5.963  0.3022  0.0205  0.1557
11403W        W24817  13.765   9.163  13.804  0.0661  0.0694  0.1064
11404W        W24818  13.286   5.061  12.179  0.3070  0.0440 -0.0092
11405W        W24819   3.124   6.336  16.495  0.0627 -0.1135 -0.1935
11406W        W24820   4.983   6.047   2.443 -0.3378  0.1682 -0.0903
11407W        W24821   0.212  13.783  13.612  0.0722 -0.3926  0.0120
11408W        W24822   2.103   9.787   0.556 -0.4853 -0.1698  0.1942
11409W        W24823  18.146   3.125   0.810 -0.3760 -0.1371  0.1118
11410W        W24824  12.728  13.286  15.744  0.0923  0.1356  0.1900
11411W        W24825  14.875   2.976   3.442 -0.1072 -0.0596  0.1817
11412W        W24826  17.360   5.290   4.451 -0.1355  0.2113 -0.0664
11413W        W24827   6.271   4.385  13.701 -0.2861  0.0311 -0.2929
11414W        W24828   1.252  13.960  15.662  0.5157 -0.1191 -0.2061
11415W        W24829   9.424  10.419   4.401  0.2182  0.0197 -0.3588
11416W        W24830   6.114  17.808   3.162 -0.1025  0.0543  0.0396
11417W        W24831  13.656  13.164  15.894 -0.2858 -0.1863 -0.1184
11418W        W24832   8.545   7.793   1.256 -0.0392 -0.1639 -0.2239
11419W        W24833   0.150   2.949   1.056  0.0343  0.0059 -0.2650
11420W        W24834  16.916  14.806  13.393 -0.1349  0.0378 -0.0071
11421W        W24835  13.743  10.448  14.457 -0.1896 -0.1173 -0.3150
11422W        W24836   6.963   3.737  15.809 -0.0378 -0.1541  0.1943
11423W        W24837   3.082   9.074  11.912  0.0235 -0.0308 -0.2896
11424W        W24838  15.577   2.051   3.045  0.2348 -0.0894  0.1863
11425W        W24839   3.319   6.003  11.703  0.1227 -0.0483 -0.2381
11426W        W24840   9.383   7.429  12.178  0.0652  0.0793 -0.1276
11427W        W24841  12.542   2.809   1.054  0.1511  0.1708  0.2900
11428W        W24842  11.441  13.603   2.448  0.1457 -0.1209  0.0156
11429W        W24843   1.675   8.819   4.662 -0.3947  0.0063  0.1956
11430W        W24844   2.270   0.605   5.870 -0.2787  0.1230 -0.0086
11431W        W24845  13.962   4.259  13.254 -0.0204 -0.0438 -0.0683
11432W        W24846  17.338  10.598   3.708 -0.2863  0.0713 -0.0730
11433W        W24847  13.105  15.871  14.190 -0.1794  0.0755 -0.1575
11434W        W24848  10.943  15.705  14.366 -0.2048 -0.2894 -0.2793
11435W        W24849  17.481  11.242   1.069  0.1890  0.0191  0.1789
11436W        W24850   1.188   4.371   0.277 -0.0597 -0.1221 -0.3765
11437W        W24851  13.376  13.832  13.413 -0.1195 -0.2191  0.0152
11438W        W24852   6.875   5.701  12.782 -0.1874 -0.0612 -0.0766
11439W        W24853  18.046  15.194   2.672  0.1655  0.1412 -0.4609
11440W        W24854   1.207  17.878  12.428  0.1250 -0.1930  0.0198
11441W        W24855  15.421   2.894  14.675 -0.1827  0.1452 -0.2571
11442W        W24856  17.322   9.259  12.798 -0.0232 -0.0076  0.2200
11443W        W24857  12.152   5.014   1.067  0.4088  0.2009 -0.1557
11444W        W24858  12.361   8.199   3.078 -0.1492 -0.1450  0.0633
11445W        W24859   1.516   1.273  13.015 -0.2068 -0.0225 -0.1044
11446W        W24860  16.593   3.208  11.445 -0.0127 -0.1011 -0.1420
11447W        W24861  15.192  17.657  16.464 -0.0596  0.1650 -0.0894
11448W        W24862  10.237  11.193   9.956  0.2639 -0.2159  0.0744
11449W        W24863   9.351  15.463  11.259 -0.0121 -0.2769  0.1183
11450W        W24864   5.365  15.223   4.710 -0.1470  0.3718 -0.4066
11451W        W24865  10.823   9.941   1.847  0.0191  0.0253  0.1660
11452W        W24866  17.044   5.146   2.403  0.0296  0.1120  0.2315
11453W        W24867   3.528  17.938   5.990 -0.0859 -0.3279 -0.1489
11454W        W24868   0.441  16.140   2.604  0.1080 -0.1426 -0.0900
11455W        W24869  16.839  11.668   1.232 -0.2138  0.0285  0.0314
11456W        W24870   4.982  16.031  14.008  0.1424 -0.4083  0.3248
11457W        W24871   6.608   4.582  11.461  0.0371 -0.0087 -0.2054
11458W        W24872   0.914   6.988   4.887 -0.3332 -0.0024  0.3555
11459W        W24873   4.809   1.233  16.446 -0.1862 -0.1155  0.0078
11460W        W24874   9.403  11.603  16.465 -0.0400 -0.0848 -0.1492
11461W        W24875   0.916  15.709  11.096 -0.3023 -0.0739 -0.1383
11462W        W24876   6.957   3.540  14.254 -0.1571  0.0213  0.0587
11463W        W24877  12.182  11.677   5.293 -0.3899 -0.0618  0.0508
11464W        W24878  11.202  14.784   2.754  0.1650 -0.0404 -0.1619
11465W        W24879  12.909  15.971  14.633  0.0115 -0.0489  0.1584
11466W        W24880  10.047  15.310   2.226  0.0419  0.2495  0.2569
11467W        W24881   8.218   6.617   5.725 -0.1333  0.1413 -0.0650
11468W        W24882   6.230   4.617   0.320 -0.4089 -0.1845  0.0335
11469W        W24883   2.104  11.145  15.177 -0.4273  0.2723 -0.1691
11470W        W24884  17.230   8.701  12.678 -0.0802 -0.0496  0.0588
11471W        W24885  14.970   8.454  10.265 -0.0535  0.0083 -0.1220
11472W        W24886   1.719   9.805   0.229 -0.3346 -0.2347 -0.0636
11473W        W24887   8.206   0.017  15.084 -0.2792  0.0845 -0.0304
11474W        W24888   2.620  12.375   2.876  0.1344  0.0527 -0.2405
11475W        W24889  15.110  18.269  13.508  0.1154  0.0490 -0.0962
11476W        W24890   4.323   6.636  15.248 -0.1212 -0.1056 -0.0305
11477W        W24891  15.001   6.058   4.974 -0.1222  0.0861  0.0623
11478W        W24892  11.058   2.903   2.711 -0.2624  0.0547  0.1880
11479W        W24893   8.982   3.038   5.694 -0.2643 -0.0092  0.2297
11480W        W24894  11.008  11.115   0.328  0.2968 -0.2182 -0.2454
11481W        W24895  15.248  15.857  14.934  0.1065 -0.1197 -0.3561
11482W        W24896   8.452  15.770  10.740 -0.1331 -0.5199  0.0641
11483W        W24897  16.089   6.029  14.450  0.0059  0.2377 -0.0651
11484W        W24898  18.392  15.583   2.610  0.1714  0.0561 -0.1554
11485W        W24899   2.090   4.299  12.173  0.1551 -0.1361  0.0168
11486W        W24900  16.849   6.008  10.412 -0.1032  0.0823  0.1234
11487W        W24901  10.632  18.270   1.334 -0.1659  0.0932  0.1978
11488W        W24902  11.133  17.288   0.569 -0.0433 -0.0631  0.1790
11489W        W24903   3.465  18.058   5.166  0.1703 -0.2301  0.0731
11490W        W24904   0.419  14.561  14.542  0.0873 -0.0943 -0.1795
11491W        W24905  12.092   8.666   4.805  0.1146 -0.0044 -0.0771
11492W        W24906   2.052  10.548   5.276  0.0247 -0.1408 -0.3291
11493W        W24907   7.684  18.131   4.055 -0.2770  0.1269 -0.2825
11494W        W24908  15.847  15.456   2.318 -0.1725 -0.0353 -0.0428
11495W        W24909  10.082  13.601  11.371 -0.1091 -0.1329 -0.0208
11496W        W24910   8.936   7.634   0.293  0.0725  0.3205  0.1386
11497W        W24911   0.744  16.577   1.982 -0.0878  0.1324 -0.1269
11498W        W24912   4.179  14.704  12.326 -0.0196  0.2307 -0.3864
11499W        W24913  12.772   4.419   2.081  0.1404  0.1468 -0.1080
11500W        W24914   2.501  11.413  14.028  0.2124 -0.3115 -0.2110
11501W        W24915   7.337   4.001   5.156  0.1477 -0.2791  0.3498
11502W        W24916  10.817   4.301   5.548  0.4062 -0.2271 -0.1129
11503W        W24917   7.407   2.672   1.206  0.0014  0.0700  0.1126
11504W        W24918   6.311   1.327  15.592 -0.0169 -0.4192 -0.0465
11505W        W24919  13.240   4.796  12.678 -0.1814 -0.0684 -0.3081
11506W        W24920   4.943   5.065  10.440  0.0807 -0.0122  0.1782
11507W        W24921   7.709   6.364   2.819  0.3034 -0.0134  0.2022
11508W        W24922  10.408  11.202  10.750 -0.0839 -0.0938  0.1529
11509W        W24923   2.172   2.849  14.694 -0.1749 -0.0107  0.2674
11510W        W24924  11.364   0.650  15.510  0.0421 -0.4004 -0.2029
11511W        W24925   1.768  12.333  10.713  0.0510  0.1004 -0.2936
11512W        W24926  15.381  17.906  12.416  0.1030  0.2963 -0.1965
11513W        W24927   8.373   7.326   3.236  0.0125 -0.0231 -0.1135
11514W        W24928   6.299  12.434  14.568 -0.0595  0.0549 -0.1891
11515W        W24929   6.058  12.923  15.912  0.0055 -0.1095  0.2623
11516W        W24930  12.865  11.994   1.737 -0.1260 -0.1614  0.1927
11517W        W24931  15.324   6.338   3.730  0.0420  0.1180 -0.2494
11518W        W24932   7.695   4.202   3.855  0.1398 -0.2320  0.4464
11519W        W24933   3.746   8.689   4.323 -0.1375 -0.0293  0.0155
11520W        W24934  10.555   0.073  11.769  0.1793  0.4250  0.0155
11521W        W24935  12.501  18.329  15.023 -0.0671 -0.2504 -0.1608
11522W        W24936  14.581   8.264   4.718 -0.1733  0.0014  0.0505
11523W        W24937  15.161   6.237   1.039 -0.2622  0.3353  0.0303
11524W        W24938   9.248  12.054  10.674  0.1186 -0.0120  0.0436
11525W        W24939   2.773  14.003   2.429  0.1701  0.1985 -0.0728
11526W        W24940   1.546   1.337  13.557 -0.2077  0.1244  0.2079
11527W        W24941  12.171  14.874   3.798 -0.1038 -0.1612  0.0199
11528W        W24942   0.242   7.712   1.529 -0.0399 -0.4715 -0.0240
11529W        W24943   4.563   7.824  12.366  0.3987  0.1022  0.1408
11530W        W24944  10.312   5.464  12.392  0.0156 -0.2837  0.0638
11531W        W24945  15.071  15.024   6.066 -0.0339 -0.0884  0.0543
11532W        W24946  17.296   5.297   0.103 -0.1791 -0.2173  0.0137
11533W        W24947   5.849   0.200  12.911  0.1453 -0.2796  0.0823
11534W        W24948  14.948   8.872   3.032 -0.2369 -0.1034 -0.1080
11535W        W24949  16.356   8.204  12.271 -0.0200 -0.0764 -0.1047
11536W        W24950   0.978   4.185   3.480 -0.2585 -0.2085  0.0086
11537W        W24951  17.261   7.690  15.554  0.0344 -0.4020  0.6748
11538W        W24952  13.204  13.436  16.094 -0.0727 -0.2002  0.1322
11539W        W24953   2.474   2.173  15.567  0.1559 -0.0334  0.2089
11540W        W24954  10.322   9.611  14.103  0.1961  0.0740  0.1566
11541W        W24955  15.732   5.981   9.950  0.0884  0.1668  0.1378
11542W        W24956  17.835   9.141   1.293 -0.2175 -0.0309 -0.0693
11543W        W24957   4.417  14.873  14.322  0.2217 -0.2874 -0.0824
11544W        W24958  14.391   0.613   4.589 -0.2192 -0.4606  0.0016
11545W        W24959   8.238   6.673  11.025  0.1102 -0.2872  0.1354
11546W        W24960   9.754  17.655   2.005 -0.3401  0.0327  0.0712
11547W        W24961   7.477   7.391  13.479 -0.0168  0.1539  0.2768
11548W        W24962  12.238  17.434  11.300 -0.2921 -0.0796  0.1165
11549W        W24963   4.510  13.237  11.709 -0.2349  0.2078  0.0382
11550W        W24964   1.538   5.133  16.192 -0.0940 -0.0982 -0.0059
11551W        W24965   8.656  15.473  12.780 -0.1200  0.1024 -0.1847
11552W        W24966   1.963   1.325  12.657 -0.1336 -0.0327 -0.3991
11553W        W24967  13.376   3.915  13.803  0.1222  0.1974 -0.1415
11554W        W24968   4.834   2.375   1.339  0.0618  0.3963 -0.1670
11555W        W24969   7.201   1.518  14.999 -0.0591 -0.4024  0.3464
11556W        W24970   4.236  12.375  16.484 -0.1390  0.2257  0.1805
11557W        W24971   0.235   1.857  14.971  0.2417 -0.3905 -0.1810
11558W        W24972  12.163   0.130  12.762  0.0879  0.1258 -0.2986
11559W        W24973   8.304  12.416  15.810 -0.1416 -0.2335 -0.1683
11560W        W24974   9.077   1.438   2.163  0.1892  0.2225 -0.0966
11561W        W24975   5.987   8.438  10.663 -0.1118  0.0216  0.3097
11562W        W24976   9.941  17.438  14.228  0.0570 -0.0556 -0.1729
11563W        W24977  11.097  13.161   6.608  0.1873 -0.0516 -0.2297
11564W        W24978   4.671   6.163  12.325 -0.4270 -0.1953 -0.1114
11565W        W24979   3.498  10.967   0.365 -0.0447  0.2260  0.2253
11566W        W24980   4.866   3.382   2.516  0.0909 -0.1548 -0.2484
11567W        W24981   2.493   9.038  14.077 -0.3056 -0.3360 -0.1499
11568W        W24982   3.480  13.057  13.800  0.1296  0.1074 -0.1358
11569W        W24983  17.820  17.712   4.576 -0.3770 -0.1549 -0.0842
11570W        W24984  14.339   7.811   4.355  0.0398  0.2338  0.0335
11571W        W24985   3.540   6.294  16.209 -0.2086 -0.1171 -0.0732
11572W        W24986  14.390  11.009  12.102 -0.1112 -0.3162  0.0721
11573W        W24987   9.189   1.098   5.659 -0.0753 -0.0736  0.2671
11574W        W24988  14.550  11.565  14.217 -0.2819  0.1151 -0.2096
11575W        W24989   6.920  14.395  12.802 -0.0511  0.2068 -0.1869
11576W        W24990  14.934   3.501   3.841 -0.1679 -0.0280 -0.0697
11577W        W24991   8.528   3.578   0.129 -0.1663 -0.1332 -0.4111
11578W        W24992  11.028  17.779  11.370  0.2399 -0.2358  0.5458
11579W        W24993   1.772   1.137  11.692 -0.0013  0.0554  0.1998
11580W        W24994   2.615   8.899   1.813  0.0558  0.2273  0.3101
11581W        W24995   3.308   6.121   2.841 -0.0714  0.1834  0.0619
11582W        W24996   1.413   4.320   4.772 -0.2322 -0.1530 -0.1268
11583W        W24997   1.102   0.561   0.361 -0.2564  0.2456 -0.0082
11584W        W24998   0.401   0.089   6.867  0.1000  0.4346 -0.1203
11585W        W24999  11.470   2.999   1.996  0.0361  0.0601 -0.1795
11586W        W25000   2.146   8.751  13.380 -0.3852 -0.0605 -0.0507
11587W        W25001   2.937  14.416  13.548 -0.3310 -0.1601  0.3803
11588W        W25002   3.288  14.420   4.016 -0.2218 -0.0061 -0.0478
11589W        W25003  15.088   6.813   0.791  0.0474 -0.3109 -0.0360
11590W        W25004   0.018  12.323   4.125  0.2889 -0.3205  0.2471
11591W        W25005   0.232   6.567   1.490  0.1947 -0.0674  0.1772
11592W        W25006   8.839   0.286  13.859  0.1440  0.0431 -0.0066
11593W        W25007   3.665   3.456   1.575 -0.0083 -0.0639 -0.4112
11594W        W25008   5.374   7.212  11.531 -0.2833 -0.2248 -0.1711
11595W        W25009  15.616  12.372   1.559 -0.2303  0.1163 -0.1055
11596W        W25010  12.837  10.997   2.988 -0.1520 -0.0217  0.1009
11597W        W25011   8.277  18.142   2.857 -0.0078 -0.0687  0.0847
11598W        W25012   7.723  15.046  13.743  0.1606  0.0946 -0.0547
11599W        W25013   8.893   1.228  14.688  0.3724  0.2215  0.0123
11600W        W25014   4.527   6.237   3.642 -0.1736 -0.0989 -0.0782
11601W        W25015  13.430  15.208  15.244  0.3074 -0.2727  0.0355
11602W        W25016   8.905   0.260   2.292 -0.2043  0.2148 -0.1407
11603W        W25017   1.755   3.327   2.616  0.2132  0.3085 -0.0722
11604W        W25018  12.991   8.391   2.063 -0.0482 -0.1115 -0.1403
11605W        W25019   2.960   7.002  12.646 -0.0836 -0.0060 -0.0768
11606W        W25020  10.047   0.756   3.079  0.2013 -0.1160  0.0992
11607W        W25021  16.423   9.007   0.428 -0.3968  0.0871 -0.3817
11608W        W25022  11.184   5.289   4.338  0.0062  0.3533  0.1654
11609W        W25023   4.203   3.466  15.653  0.0106 -0.3121 -0.2093
11610W        W25024   9.063  17.545  12.085  0.1096 -0.0351  0.2410
11611W        W25025   1.186  10.227  10.477 -0.1922  0.2822 -0.2298
11612W        W25026   3.135   5.668  11.378  0.0066 -0.0645  0.1404
11613W        W25027   5.595  17.914  10.562  0.1574 -0.0796  0.0738
11614W        W25028  17.271   5.199  15.767  0.1590  0.0389 -0.3712
11615W        W25029  14.209  17.870  16.226  0.3249 -0.0213  0.1785
11616W        W25030  10.499   6.528   0.021  0.0869 -0.1366  0.2100
11617W        W25031   4.165   9.559  14.937  0.3138 -0.3213 -0.1319
11618W        W25032   5.772   0.375   4.923 -0.1141  0.0341 -0.0089
11619W        W25033  10.838   8.489   5.899 -0.2351 -0.2935  0.0574
11620W        W25034  17.842   2.844  11.632 -0.1223 -0.0516 -0.2353
11621W        W25035  16.648   0.918  12.539 -0.0249  0.0385  0.0536
11622W        W25036  13.917  13.197  14.113  0.1917 -0.0354  0.2767
11623W        W25037  16.506  11.668  16.400  0.0048 -0.0436 -0.1487
11624W        W25038  10.652  16.321   3.670  0.0398  0.2951  0.2152
11625W        W25039   9.795   7.279   4.828 -0.0143 -0.1718 -0.0300
11626W        W25040  13.055   6.144   5.071  0.0622 -0.1624  0.2453
11627W        W25041  11.191   9.045  16.497  0.0835  0.0123  0.0582
11628W        W25042   2.632  12.822   3.092 -0.2804  0.5222 -0.2289
11629W        W25043   2.988   0.852   4.699 -0.0039 -0.0374 -0.0403
11630W        W25044  15.208   0.822  13.615 -0.1625 -0.0197 -0.2168
11631W        W25045   4.590  14.117  11.801 -0.1589  0.0798 -0.1088
11632W        W25046   2.067  13.058  11.272 -0.0895 -0.0784  0.2363
11633W        W25047  12.298   9.912   0.765 -0.0587 -0.0870  0.2277
11634W        W25048  16.638  17.387   2.515 -0.1183  0.0418 -0.0508
11635W        W25049  15.207  10.249  16.262 -0.2229  0.0403  0.0165
11636W        W25050  16.600  13.454  10.920  0.2840 -0.1143 -0.3136
11637W        W25051  10.019  12.365   2.838 -0.0057  0.0963 -0.0902
11638W        W25052   2.048   9.684   3.702 -0.0488  0.2820 -0.0392
11639W        W25053   9.319   4.018   2.587 -0.0962  0.0876  0.1169
11640W        W25054  15.172  14.769  11.210 -0.0203  0.1554 -0.1000
11641W        W25055   9.070  12.371  14.429 -0.2239  0.0346 -0.0702
11642W        W25056   1.486  17.951   5.621 -0.2126 -0.1553 -0.0251
11643W        W25057  15.479   7.693  12.499  0.1353 -0.3789  0.2971
11644W        W25058   8.758   6.278   1.642 -0.1925  0.0553 -0.3225
11645W        W25059   1.390  11.534  10.533  0.4711  0.0422  0.0177
11646W        W25060   7.268  10.665  15.254  0.1289 -0.2721  0.0025
11647W        W25061   9.692  16.045   3.083 -0.2535 -0.0323  0.0257
11648W        W25062  10.959  16.464  14.953  0.1099  0.1183  0.2707
11649W        W25063   1.578   9.030   2.222 -0.2644  0.3886  0.0005
11650W        W25064  17.627  10.936   0.662 -0.1389 -0.1999  0.0987
11651W        W25065   5.085  15.617  12.664  0.3307  0.4686 -0.1411
11652W        W25066   9.764   7.173   3.061  0.0597  0.0685 -0.2644
11653W        W25067  17.825  10.311  12.985 -0.0085  0.0285 -0.1016
11654W        W25068   0.866   1.863  11.172  0.4204  0.1952 -0.4227
11655W        W25069  15.836  12.246  10.063 -0.0686  0.1848 -0.2426
11656W        W25070   8.484   0.823   1.929  0.3711 -0.0823  0.3226
11657W        W25071   5.955   9.655  10.612 -0.2138 -0.0217 -0.0167
11658W        W25072   7.171   8.791   3.530  0.0768 -0.0073  0.2977
11659W        W25073  17.377   6.399   1.028 -0.0285  0.0004 -0.1011
11660W        W25074   8.978   5.450  11.284  0.0893  0.0271  0.1842
11661W        W25075  12.437   5.993   2.565  0.2266 -0.1284 -0.1513
11662W        W25076  10.600   0.684   0.965  0.6361 -0.1737  0.0593
11663W        W25077  10.587  12.572  10.501  0.3806  0.2570 -0.1142
11664W        W25078   8.914  17.189  14.238 -0.3579 -0.4223  0.0442
11665W        W25079  14.579   8.702  14.202  0.1901 -0.2541 -0.3074
11666W        W25080  17.760   3.713   5.590  0.3088  0.0082  0.3977
11667W        W25081  18.342  10.600   4.377 -0.0363  0.2720 -0.0980
11668W        W25082  11.731   3.044   4.600 -0.2003  0.0613  0.2254
11669W        W25083  12.132   2.477  12.780  0.2052  0.1343  0.0530
11670W        W25084  12.496   3.529   0.493  0.1311 -0.1918 -0.2353
11671W        W25085  17.476   5.738  14.907  0.4083 -0.1847 -0.2854
11672W        W25086  11.229  13.088   1.432 -0.1693  0.3435 -0.0759
11673W        W25087  13.481   8.725   5.244  0.1497  0.2018 -0.0201
11674W        W25088  12.937  15.770   5.126  0.1603 -0.0128  0.1900
11675W        W25089  17.197   7.151  16.415  0.2435 -0.2876 -0.3603
11676W        W25090  10.195   6.483  11.233 -0.0478  0.2052 -0.0271
11677W        W25091   6.376   2.742  15.761 -0.0518  0.0531  0.0198
11678W        W25092  15.429   0.073  16.063 -0.0317  0.0122 -0.0418
11679W        W25093  13.585   6.259  10.994 -0.2039  0.1023 -0.2457
11680W        W25094   3.212   8.663   3.733 -0.0837  0.3780 -0.2952
11681W        W25095   8.572   0.166   6.263 -0.1103  0.0678 -0.0590
11682W        W25096  17.925   0.993   1.899 -0.2928  0.1463 -0.0063
11683W        W25097  13.968  10.824  14.004 -0.1298 -0.0823  0.0433
11684W        W25098   7.909   2.570  10.960  0.1201 -0.0641 -0.0445
11685W        W25099  17.184   9.587   4.875 -0.1842 -0.1587  0.0911
11686W        W25100  16.839   0.902   5.346 -0.3544  0.1404 -0.1388
11687W        W25101   4.057   7.575  13.283 -0.3919  0.2307  0.0386
11688W        W25102   7.430  14.674  12.046 -0.2005 -0.0473 -0.2584
11689W        W25103   9.479  10.109   4.065  0.2317  0.1002  0.1117
11690W        W25104   9.258  12.255  11.397  0.3475 -0.1770  0.0142
11691W        W25105   4.350  16.740  15.949  0.0031  0.0463  0.0703
11692W        W25106   0.008   5.360   2.740  0.3348 -0.1413  0.1853
11693W        W25107  13.364  13.708   4.692 -0.0583 -0.2340  0.0272
11694W        W25108  12.002  16.307  14.636  0.0766 -0.2285 -0.1679
11695W        W25109  12.679  15.743  12.760  0.1298  0.1617  0.1666
11696W        W25110   5.825  14.751   5.471  0.1945 -0.1141 -0.0697
11697W        W25111  17.377   1.879  12.694  0.0330 -0.1523  0.0030
11698W        W25112  12.393   7.122   9.503 -0.1494  0.1324  0.0078
11699W        W25113  12.069  16.896  14.361  0.4045  0.0614  0.0973
11700W        W25114   5.505   3.741  11.777  0.0118  0.0690  0.0046
11701W        W25115  14.644  12.111  13.427  0.1281 -0.2967 -0.0547
11702W        W25116  10.324  15.756   3.170  0.3410  0.1377  0.3264
11703W        W25117  10.712  18.296   0.788  0.2884 -0.0910  0.0450
11704W        W25118  11.037  13.068  13.667  0.2584 -0.0191 -0.1997
11705W        W25119  15.862  15.680   5.970 -0.3235  0.1581  0.3192
11706W        W25120  11.813   7.944  15.047  0.0066 -0.0705 -0.3337
11707W        W25121  15.920   0.825   3.421  0.3394  0.0289 -0.2812
11708W        W25122  11.654   2.497  15.676 -0.0710  0.1630 -0.1328
11709W        W25123  16.085   4.422   2.886 -0.2159 -0.2652  0.2373
11710W        W25124   7.307  16.118  11.605 -0.2979  0.0991 -0.3425
11711W        W25125   4.965   4.165  11.310 -0.4638  0.1108 -0.2240
11712W        W25126  12.046   7.775   3.256 -0.0078  0.0373 -0.1735
11713W        W25127   9.725   2.810   1.796  0.1228  0.1785  0.0334
11714W        W25128   9.459   5.825   2.624 -0.1195  0.2004 -0.0553
11715W        W25129  16.349  15.665   3.203 -0.0437 -0.1889 -0.4466
11716W        W25130  17.762   9.603   0.018  0.1577  0.1571 -0.0248
11717W        W25131   8.176   8.075  13.509 -0.2223 -0.2186  0.1015
11718W        W25132   7.973  11.059   3.422  0.0899  0.3091 -0.2771
11719W        W25133   4.191  16.305   0.737  0.1968 -0.1436 -0.0924
11720W        W25134   6.749  12.527   3.078  0.1783  0.1815 -0.1168
11721W        W25135  16.090  16.362   6.338  0.0037 -0.0443  0.0263
11722W        W25136  14.123  13.084  13.589  0.1229  0.0377 -0.2558
11723W        W25137   9.854   7.020  14.691 -0.2507 -0.0012  0.1101
11724W        W25138   7.474   9.871   1.234  0.0943 -0.0796 -0.0813
11725W        W25139   3.482  12.093  13.511 -0.3869  0.2586  0.2004
11726W        W25140   5.570   7.822  15.182  0.0874  0.0122  0.0488
11727W        W25141  15.893   1.860   4.492  0.0680 -0.2529 -0.1085
11728W        W25142   7.464  11.072   1.751 -0.1744  0.4356 -0.3038
11729W        W25143  11.843   4.220   0.461 -0.2550  0.2138 -0.3306
11730W        W25144   8.552   7.273   4.241  0.0238 -0.2174 -0.2893
11731W        W25145  14.491  15.508  11.225  0.4982  0.0228  0.0214
11732W        W25146  17.451   1.561   4.915  0.0746 -0.1042 -0.1048
11733W        W25147  16.581   0.987   1.818  0.2276 -0.0754 -0.3553
11734W        W25148   3.076   3.254   1.013  0.2176  0.0605 -0.2478
11735W        W25149  14.418   3.699  11.380  0.2483  0.0662 -0.1756
11736W        W25150   1.475   5.475  13.243  0.1725 -0.1712  0.3967
11737W        W25151  16.743  14.838  14.745 -0.0965 -0.1175  0.2339
11738W        W25152   5.651   9.393   9.714 -0.3032  0.1159  0.0555
11739W        W25153   9.724  13.361   4.584 -0.0099  0.1430  0.4016
11740W        W25154   8.946   6.547  11.862 -0.1819 -0.1379 -0.1268
11741W        W25155   9.297   6.472  15.730 -0.1920  0.0688  0.0667
11742W        W25156   4.372   4.432  13.478  0.0617  0.0995  0.1803
11743W        W25157   9.503   4.639   1.769  0.1811 -0.0541 -0.1857
11744W        W25158   3.670  10.938   3.334  0.1977 -0.4343 -0.2511
11745W        W25159   9.180  13.020  13.062  0.1683 -0.1744  0.0471
11746W        W25160  15.891   3.774  15.213 -0.1948 -0.1502  0.2946
11747W        W25161  10.420   5.778   6.234 -0.1307 -0.2430  0.0661
11748W        W25162  17.775  14.880  12.405 -0.1477 -0.0461 -0.2551
11749W        W25163   9.304  10.185  13.014  0.1534 -0.2138 -0.0632
11750W        W25164   8.325  10.537   5.842  0.0400 -0.1588 -0.0450
11751W        W25165   6.233  16.009  15.406 -0.1143  0.1305 -0.1680
11752W        W25166  17.339   1.676  11.905  0.1297  0.0919  0.1576
11753W        W25167   3.444  17.306   6.169  0.3244  0.0487  0.0190
11754W        W25168   2.851  16.217   4.020  0.0465 -0.2124 -0.1086
11755W        W25169   3.333  12.586  13.666 -0.2705 -0.0446 -0.0746
11756W        W25170  15.564  13.055  15.228 -0.0393 -0.0023 -0.2912
11757W        W25171  10.032   4.646  12.199  0.3723 -0.1141  0.1107
11758W        W25172   0.688  13.027   3.197  0.0033 -0.0273 -0.3431
11759W        W25173   8.838  16.576  10.453 -0.0997 -0.0123  0.0319
11760W        W25174  15.792   0.456  12.250 -0.1549 -0.0561 -0.0146
11761W        W25175  14.244   1.238   5.634  0.0154  0.0135 -0.2149
11762W        W25176  11.891   9.715   1.441  0.0930 -0.0599 -0.0799
11763W        W25177  12.417  15.363   3.631 -0.1538 -0.0018 -0.2328
11764W        W25178  10.355   2.626   0.135  0.1192 -0.2914 -0.1091
11765W        W25179   0.821   5.930   2.984 -0.1212  0.2471  0.0565
11766W        W25180  11.640  16.545  13.410  0.0278 -0.0567  0.4779
11767W        W25181   8.215  10.815   1.693  0.1655 -0.3744 -0.0973
11768W        W25182   5.929   0.379  15.561 -0.0905  0.3788  0.0108
11769W        W25183   4.416  10.898   2.770  0.0783 -0.0952 -0.1987
11770W        W25184  10.191   2.539  13.868  0.1343 -0.0601  0.0217
11771W        W25185   4.384   7.244   2.762  0.0034  0.1429 -0.2020
11772W        W25186  14.524   3.852  15.840 -0.4764  0.0633 -0.2233
11773W        W25187   8.771  11.917   5.023 -0.0332 -0.0204 -0.1749
11774W        W25188  10.402   9.169  10.372 -0.1218 -0.2528  0.1274
11775W        W25189  12.233  15.067   6.628 -0.0896 -0.2216 -0.0716
11776W        W25190  10.558  18.060   4.004  0.0010  0.0553  0.3090
11777W        W25191   1.441  12.033  10.361 -0.0290  0.1478  0.0846
11778W        W25192   9.674  10.666  11.749  0.0677 -0.0128  0.0980
11779W        W25193  12.512   2.540  15.515  0.0393  0.0805 -0.1411
11780W        W25194   0.879  16.105  15.756  0.3703  0.1666  0.2337
11781W        W25195  12.761  17.496  12.951  0.0830 -0.3794  0.1812
11782W        W25196   7.787   7.782   5.757 -0.0106  0.2004  0.0810
11783W        W25197  15.004  12.167   3.990  0.0597 -0.2104  0.1071
11784W        W25198  13.123   5.090   2.932 -0.2820  0.0163  0.0247
11785W        W25199   1.099   8.540  13.013 -0.1059  0.3110 -0.0319
11786W        W25200   5.951  16.349  13.695 -0.1078  0.1223 -0.0939
11787W        W25201  15.958  12.034   0.764 -0.1876 -0.1650  0.0771
11788W        W25202   0.038  11.877  14.313 -0.0506  0.0364  0.0505
11789W        W25203   7.863  13.472  15.435  0.3431 -0.0651 -0.3261
11790W        W25204   0.305   2.402   3.074  0.1353  0.0043 -0.3281
11791W        W25205   5.137  14.739   1.756  0.2157 -0.0477  0.1738
11792W        W25206   3.001   7.480   1.038 -0.0245  0.0871 -0.3038
11793W        W25207  18.047   7.903  16.189 -0.3047  0.4242  0.1410
11794W        W25208   8.180   1.953  12.246 -0.1100  0.1930  0.0209
11795W        W25209   7.728  15.082  12.768  0.1575 -0.3872 -0.0122
11796W        W25210   9.060   1.059   0.827 -0.2864 -0.0447 -0.0478
11797W        W25211  16.627  17.931  14.496  0.3444  0.0995 -0.1953
11798W        W25212   8.580  13.928  12.002  0.3689 -0.1028  0.0286
11799W        W25213  15.778  11.096  10.248 -0.2441  0.3181 -0.1274
11800W        W25214   7.846   4.128  12.945 -0.0563  0.1622 -0.1757
11801W        W25215   8.921   2.706   0.238  0.0881  0.2217 -0.0338
11802W        W25216  16.845   4.286  13.728 -0.2265 -0.0198  0.1336
11803W        W25217  16.470   0.823   4.341  0.1522  0.1233  0.2073
11804W        W25218  16.481   8.244   1.313 -0.4442 -0.0172  0.0534
11805W        W25219  13.820   0.449   2.221  0.3298  0.0579  0.1615
11806W        W25220   5.931   0.807  10.827  0.2370  0.2196  0.1517
11807W        W25221   1.890  16.709  15.434 -0.1757 -0.4305 -0.2603
11808W        W25222  11.961  15.994  11.431  0.1936 -0.2286  0.1371
11809W        W25223   3.020   2.592  14.475 -0.4221  0.1911 -0.0643
11810W        W25224  17.988  18.208  11.537  0.2153 -0.0174  0.1496
11811W        W25225  11.381  16.078  15.743 -0.0684  0.1891  0.0872
11812W        W25226  15.564  13.177   4.630  0.2873 -0.1805  0.2584
11813W        W25227   3.148   0.675   2.545 -0.2853 -0.1097 -0.0067
11814W        W25228   9.388  17.964  10.938 -0.0496  0.0058  0.3984
11815W        W25229  15.812   4.119   4.014  0.2797 -0.0048  0.2148
11816W        W25230  16.566  17.521  11.331  0.0316 -0.1143 -0.3839
11817W        W25231   4.637   5.225  12.123  0.2074  0.1343  0.1893
11818W        W25232   3.822   9.091  11.223  0.2913  0.2323 -0.0421
11819W        W25233   1.166   3.517   3.617  0.1105 -0.3683  0.0680
11820W        W25234   9.743  11.754   2.802  0.0311  0.3971  0.1132
11821W        W25235  16.052  17.463   1.512  0.0747  0.0889 -0.1694
11822W        W25236  11.779   4.890  13.777  0.0778 -0.1723 -0.0820
11823W        W25237   3.083   6.278   3.752  0.3744 -0.0402 -0.2194
11824W        W25238   0.686   1.069   4.276  0.1306  0.3389  0.1256
11825W        W25239   7.464   4.346  11.294 -0.3443  0.3421  0.0131
11826W        W25240   9.856   9.253  12.508  0.0217  0.2533  0.0208
11827W        W25241   1.345   4.480  15.225 -0.1048  0.1635  0.0615
11828W        W25242   1.349   4.849  11.220  0.1626  0.1109 -0.0361
11829W        W25243   4.398   0.828   3.090  0.0027  0.0577  0.2575
11830W        W25244   4.484  16.871  11.552  0.3762  0.2327 -0.1964
11831W        W25245  18.378   0.199  14.780  0.1699  0.1707  0.3564
11832W        W25246  16.238   3.562   5.460  0.1899  0.0261  0.2368
11833W        W25247  10.337   7.247  10.596 -0.0142 -0.0210  0.1122
11834W        W25248   7.513  16.463  13.770  0.0255  0.1266 -0.3594
11835W        W25249  16.887  16.102  13.820  0.2301 -0.0135 -0.2533
11836W        W25250  18.301  18.116   6.650 -0.1499 -0.1003  0.1113
11837W        W25251   3.962   3.541  16.306 -0.1134  0.0294 -0.2632
11838W        W25252  14.306  14.244   5.889 -0.1515  0.0531 -0.0207
11839W        W25253  18.373   0.432   4.360  0.0876 -0.0151  0.1070
11840W        W25254   1.214   5.465   2.313 -0.1814 -0.1321  0.0791
11841W        W25255   8.630  18.230   1.764 -0.0457 -0.5600  0.2996
11842W        W25256   0.048   6.335  16.266 -0.0248 -0.1312 -0.1647
11843W        W25257   4.565   7.039  15.446  0.1565 -0.0426  0.0724
11844W        W25258   9.269   6.380  14.414  0.1339  0.0659 -0.1331
11845W        W25259  12.508   4.513   3.675 -0.2664 -0.1643  0.3210
11846W        W25260  11.986   6.993   4.637 -0.1798  0.0034 -0.3092
11847W        W25261   4.223   8.228  14.199  0.0279  0.2235 -0.3808
11848W        W25262   8.010   8.266   2.756 -0.0939 -0.2956 -0.4223
11849W        W25263  18.200   2.230  12.020 -0.1374  0.0501  0.1120
11850W        W25264  12.612   2.650  13.603  0.0575  0.0164 -0.0952
11851W        W25265  17.079   6.125  14.617  0.0620 -0.0270  0.0544
11852W        W25266  14.757  12.564   0.332  0.1601  0.1535 -0.2634
11853W        W25267   7.579   3.214  12.366  0.0503  0.0383  0.1213
11854W        W25268  11.075   0.112  10.582 -0.0648  0.3060  0.1035
11855W        W25269   3.280   1.270  14.975  0.2345  0.0680 -0.1440
11856W        W25270  17.051  10.309  14.701  0.0346 -0.0470  0.2493
11857W        W25271  11.755   7.210   3.809  0.2150  0.0810 -0.0079
11858W        W25272  17.489  15.947  13.158  0.1447 -0.2354 -0.0532
11859W        W25273  12.853   0.976  16.210  0.1072  0.0952 -0.0482
11860W        W25274   1.687   9.873  11.179 -0.1142  0.1430  0.0673
11861W        W25275   6.167  12.359   1.944  0.1550 -0.0804 -0.2961
11862W        W25276   0.079  15.624   3.960  0.4008 -0.1798 -0.1807
11863W        W25277  12.714   8.940  11.292  0.1173  0.0666 -0.0983
11864W        W25278  13.013  10.023   1.472 -0.1430  0.1190  0.0650
11865W        W25279   9.990  17.989  14.160 -0.2601  0.1692  0.1872
11866W        W25280  13.568  12.564   2.085  0.0964  0.0147 -0.2070
11867W        W25281  14.439   2.063  15.838  0.2029 -0.1720  0.0121
11868W        W25282   0.698   3.991   2.887 -0.0217  0.1215  0.1006
11869W        W25283  16.305   6.333   1.960  0.1433 -0.2310 -0.0359
11870W        W25284   3.182  10.987  12.384  0.2419 -0.1019  0.0399
11871W        W25285   1.907   3.686  13.350  0.0539 -0.4574 -0.0230
11872W        W25286   0.392   5.816  16.455  0.0324  0.0741 -0.2577
11873W        W25287   7.168   3.489  10.110  0.0681  0.1866 -0.1577
11874W        W25288  15.575   7.094   4.252 -0.0210 -0.1445  0.2349
11875W        W25289  12.121   9.695   0.327 -0.2719 -0.2564 -0.0954
11876W        W25290   0.219  13.924   3.964 -0.1775 -0.1873 -0.1936
11877W        W25291  12.720   3.288   4.831  0.1357 -0.1316 -0.2063
11878W        W25292   8.307  18.123  15.962  0.0624  0.3305 -0.0325
11879W        W25293   8.625  15.328   3.710  0.0788 -0.1057  0.0376
11880W        W25294   8.681   1.117   0.489  0.0154  0.0164  0.1102
11881W        W25295  13.563  13.919  13.898  0.4728 -0.0013 -0.0660
11882W        W25296   5.994   4.149  15.541 -0.0989 -0.2032  0.1362
11883W        W25297   2.223   9.191  10.696  0.0971  0.2485 -0.0878
11884W        W25298  12.519   6.803  10.578  0.2310  0.1651 -0.0494
11885W        W25299  17.600   3.017   2.415 -0.0811 -0.2306 -0.1623
11886W        W25300  11.059   3.961  13.337 -0.0938 -0.1358 -0.0943
11887W        W25301  12.170  14.907   5.181  0.0220 -0.3884 -0.0638
11888W        W25302   5.581   0.695   0.037  0.3514  0.4149 -0.1375
11889W        W25303   9.260   4.359  12.706 -0.2775  0.0391  0.2676
11890W        W25304   3.454  13.701  14.445 -0.0905  0.1830 -0.0437
11891W        W25305   3.262  18.115  11.174 -0.1752 -0.0144 -0.1910
11892W        W25306  12.355  17.184   1.633 -0.2684  0.0455 -0.0831
11893W        W25307   3.224   4.344   3.167  0.1969  0.1365 -0.2950
11894W        W25308   7.753  13.666  12.087  0.0934  0.2528  0.0033
11895W        W25309  14.391  17.040   2.081  0.2723  0.1011  0.1602
11896W        W25310  11.073  14.850  11.692 -0.3386  0.0763  0.1666
11897W        W25311  10.497   2.179   1.799  0.1829 -0.2669 -0.0573
11898W        W25312  16.166   4.582  11.281 -0.0418  0.1468 -0.1074
11899W        W25313   7.432   1.311  13.795 -0.2743 -0.1702  0.0670
11900W        W25314   7.554   9.023   0.122  0.0753 -0.1173 -0.3636
11901W        W25315   2.668  12.464   0.371 -0.0120 -0.3944  0.0422
11902W        W25316  10.955   5.155  13.957 -0.1044 -0.2162 -0.0385
11903W        W25317   2.844   2.771  12.009 -0.1106  0.4479 -0.0530
11904W        W25318   2.300   5.958   1.514  0.1279  0.0202  0.2836
11905W        W25319  10.852   0.601   2.514  0.1666 -0.0454  0.1198
11906W        W25320  13.588   4.855   0.973 -0.3160  0.2798  0.0054
11907W        W25321   3.781  14.239   5.152  0.2932  0.2964  0.0474
11908W        W25322   0.105   3.096   2.203  0.2208 -0.3094  0.0257
11909W        W25323  12.903  16.948  11.892  0.3211 -0.1813  0.0969
11910W        W25324  16.119  13.705   4.404  0.0306  0.3347 -0.0610
11911W        W25325  12.041  17.629   1.756 -0.0323  0.3458 -0.1770
11912W        W25326   7.380   7.249  12.459 -0.3751  0.0110  0.2097
11913W        W25327   9.481   1.674   3.850 -0.0436 -0.0621 -0.1713
11914W        W25328   5.984  13.990   0.671  0.0046  0.1027 -0.0501
11915W        W25329  17.038   6.361   0.571 -0.4084 -0.0015  0.0817
11916W        W25330  16.860   7.559   3.023 -0.0588 -0.0755 -0.2260
11917W        W25331   5.124   1.779   2.594  0.4106  0.0039 -0.0917
11918W        W25332  14.015   8.596  15.651  0.0940  0.2725  0.0543
11919W        W25333   7.180  11.699  15.091  0.1108  0.1317 -0.1529
11920W        W25334   7.213  11.564  15.605  0.1452  0.1067 -0.0420
11921W        W25335  17.545   5.093   2.384  0.1065  0.2128  0.1083
11922W        W25336  12.066  11.383  12.010 -0.0661  0.0084 -0.0408
11923W        W25337   5.208  16.104   5.571 -0.0782 -0.2826  0.2095
11924W        W25338   3.983  15.968  16.415 -0.1562 -0.1602 -0.0860
11925W        W25339  10.757  10.959   0.962 -0.1257  0.1123 -0.1163
11926W        W25340  13.977  17.665   2.674 -0.3834  0.2871 -0.1082
11927W        W25341   5.039   7.567   4.496  0.1025 -0.2600 -0.0209
11928W        W25342  12.106  17.915  14.990 -0.0564  0.1349 -0.0286
11929W        W25343  17.440  14.675   1.314 -0.4224  0.0824 -0.2036
11930W        W25344   7.804  15.433   3.603 -0.1482 -0.1552  0.3916
11931W        W25345   8.178  14.712  14.935 -0.1863  0.1856  0.0068
11932W        W25346  15.968   7.737  13.688  0.2826 -0.0510  0.0019
11933W        W25347  17.401   1.779   2.436 -0.3638  0.0792  0.0832
11934W        W25348   5.554   2.490  12.866  0.0632 -0.0372  0.0283
11935W        W25349   9.642   3.591  15.023  0.0922 -0.0172  0.1141
11936W        W25350   6.820  12.086   4.320 -0.2811 -0.0782  0.1520
11937W        W25351  13.033   1.112   3.295 -0.0179 -0.3114  0.0779
11938W        W25352   6.028   9.929   5.495  0.0942  0.5062  0.1343
11939W        W25353   8.575  12.041   3.507 -0.0379  0.2358  0.1265
11940W        W25354   1.590   4.344   5.767 -0.0757  0.1323  0.1046
11941W        W25355  18.344   0.807   0.510  0.2570  0.0144 -0.1673
11942W        W25356  17.698   6.761  15.156 -0.1981  0.0043 -0.2919
11943W        W25357  15.836   4.623  13.592 -0.1592 -0.2366  0.0634
11944W        W25358   7.720  15.763   4.027 -0.1344  0.2397 -0.0053
11945W        W25359   1.009  11.849  10.446  0.2662 -0.0023  0.3027
11946W        W25360   8.428  17.042   5.216  0.2901  0.0057  0.0416
11947W        W25361   7.001   4.038   5.570 -0.4508  0.1323 -0.1304
11948W        W25362   0.734  14.593  12.982 -0.2914  0.0760 -0.2575
11949W        W25363   4.451   0.719   4.978  0.1150 -0.0456 -0.0397
11950W        W25364  15.246   7.996   4.320 -0.2630 -0.2117  0.0452
11951W        W25365   3.769   2.779   5.450 -0.1078 -0.1728 -0.2185
11952W        W25366  13.268  10.578  13.066 -0.2376  0.1942 -0.0731
11953W        W25367   7.888   3.110  14.499  0.1773 -0.4598  0.0128
11954W        W25368   0.222  16.918   4.010  0.0052 -0.0527  0.1068
11955W        W25369   8.711   8.391   3.483 -0.1969  0.0442  0.0760
11956W        W25370  17.334   1.025   0.563 -0.1693 -0.2069 -0.2478
11957W        W25371   6.097   7.795  12.824 -0.1651 -0.1201  0.1604
11958W        W25372   4.460  11.168  14.974 -0.2960  0.2102 -0.2066
11959W        W25373   4.606   8.113   2.509 -0.2779  0.1693  0.0211
11960W        W25374   6.111  14.506   1.929 -0.2357  0.0454 -0.2661
11961W        W25375  14.485   0.570  11.395  0.0898 -0.1676 -0.0383
11962W        W25376   1.905   5.665  13.384  0.0423 -0.2358 -0.0091
11963W        W25377  14.776   3.211  11.091 -0.2091  0.1317 -0.0231
11964W        W25378  15.765   9.991   0.350  0.1077  0.3177  0.2678
11965W        W25379   4.938  15.009   4.490 -0.2202 -0.0930 -0.0645
11966W        W25380   2.242  18.339   3.102  0.3004  0.0608  0.1084
11967W        W25381   5.649   7.226   2.153 -0.1116 -0.3136 -0.3386
11968W        W25382   2.091   0.784  11.722  0.0054 -0.0126  0.1757
11969W        W25383   2.604   8.359  11.680 -0.0507 -0.3089 -0.0764
11970W        W25384  15.418  18.046   3.060 -0.0981  0.1981  0.1458
11971W        W25385  16.516  16.138   1.915  0.0658  0.1209  0.3049
11972W        W25386   4.178  14.991   0.699 -0.1965 -0.0156 -0.1081
11973W        W25387   4.373   4.551  10.627 -0.0463  0.3652  0.2666
11974W        W25388   0.817   9.160   4.566 -0.1475  0.1794  0.1440
11975W        W25389  13.178   6.891   1.903  0.2058 -0.0056  0.1333
11976W        W25390  12.520   9.542  13.259 -0.0708 -0.2050  0.1242
11977W        W25391   9.814   5.478  12.604 -0.2210 -0.0334  0.0850
11978W        W25392   5.918  12.850  11.576 -0.0697  0.0335 -0.0101
11979W        W25393   5.797  10.729   3.811 -0.1761 -0.0062  0.0908
11980W        W25394  10.784   8.902   3.192 -0.2402 -0.1650  0.0499
11981W        W25395  14.443   2.265  16.295 -0.2444  0.2528  0.0158
11982W        W25396   1.333   8.672   5.079 -0.0856  0.0769  0.0517
11983W        W25397   8.559   1.530  15.017  0.4286  0.1836  0.1237
11984W        W25398   4.889   9.327  12.870  0.1474 -0.1534  0.1527
11985W        W25399   7.744   7.843  11.055  0.1254  0.0318 -0.3181
11986W        W25400   1.761   9.752   3.218 -0.0010  0.0040 -0.0658
11987W        W25401  16.782   0.494  11.945 -0.0517  0.0989 -0.1076
11988W        W25402  17.502  12.522  13.516  0.2139 -0.0887  0.1744
11989W        W25403  17.023   3.160   0.568  0.0063  0.1843  0.0703
11990W        W25404  13.276   4.844  15.709 -0.1508 -0.0929 -0.0186
11991W        W25405  14.928   5.155  15.263 -0.1678 -0.0925  0.3171
11992W        W25406   4.005   3.224   1.261  0.2619  0.3103  0.2320
11993W        W25407   5.732   7.242   6.244  0.0398  0.2796  0.0093
11994W        W25408   6.742  10.829   5.544 -0.0982 -0.0638  0.0118
11995W        W25409  14.629   2.830   1.704 -0.0200 -0.2084 -0.1667
11996W        W25410   5.821  15.229  11.510  0.1334 -0.2829 -0.0719
11997W        W25411   1.727   8.576  14.845 -0.0331 -0.0834  0.0771
11998W        W25412   9.308  13.970  12.734 -0.0885  0.1841 -0.0498
11999W        W25413   4.247   3.654   1.381  0.2211  0.2590  0.1785
12000W        W25414  10.041   0.048  11.845 -0.3462 -0.0371  0.0989
12001W        W25415   0.158  17.107   0.937  0.0451  0.0347 -0.2700
12002W        W25416   5.087   6.299  14.209  0.0817 -0.3934 -0.1437
12003W        W25417  11.059  14.871  10.203 -0.1103  0.1257 -0.0133
12004W        W25418   5.715  17.395  14.633  0.1729 -0.2238  0.2349
12005W        W25419  14.558   9.872   3.066  0.0726 -0.3445 -0.1945
12006W        W25420   0.452  10.016  14.336  0.1249 -0.2790 -0.3216
12007W        W25421   6.286   0.740  14.887 -0.0339 -0.3369  0.0741
12008W        W25422   9.743   0.580  10.478 -0.2590  0.0402 -0.3752
12009W        W25423  12.823   5.600   1.322  0.0629  0.2827 -0.1056
12010W        W25424   8.885  10.950  14.732  0.0828 -0.0262  0.0067
12011W        W25425   1.278  10.939  15.920  0.0032  0.0102 -0.0135
12012W        W25426   2.087   9.224   0.536  0.0442 -0.1882  0.4697
12013W        W25427  15.612   6.103  14.177  0.4266  0.2141 -0.0327
12014W        W25428  18.015  15.816  14.665  0.0959 -0.1720  0.1132
12015W        W25429   4.281   2.368   1.081 -0.1723  0.2515 -0.0220
12016W        W25430   2.180   2.562   5.586 -0.0099 -0.0355  0.4576
12017W        W25431   0.867   9.021   1.425 -0.3954 -0.1605 -0.1993
12018W        W25432  10.424   2.808  15.365  0.0743 -0.0731 -0.3199
12019W        W25433   1.563  10.617   3.435  0.0001 -0.0370  0.2909
12020W        W25434   6.192  10.140  10.731 -0.2703 -0.2188  0.0195
12021W        W25435   4.832  15.981  11.749  0.3854 -0.1491 -0.1537
12022W        W25436   0.754  17.178   6.550 -0.2473 -0.0809 -0.0824
12023W        W25437   9.928   0.764   4.183  0.0850 -0.1421  0.2001
12024W        W25438   2.303   3.000  16.244  0.1757 -0.1484 -0.1751
12025W        W25439  16.646  16.419   4.704  0.0235  0.0014 -0.0092
12026W        W25440   7.276   4.133  16.360  0.2502 -0.0168 -0.0500
12027W        W25441  13.837   9.974  13.419  0.2788 -0.2676 -0.1046
12028W        W25442  12.101   4.446  15.902 -0.0483  0.2088 -0.2471
12029W        W25443   0.923  12.514   3.214  0.1976 -0.1124 -0.2172
12030W        W25444   9.541  12.662  16.072 -0.0771 -0.1547  0.3275
12031W        W25445  11.059  17.883   4.046  0.0233  0.2669 -0.1052
12032W        W25446  16.527   0.092  11.797 -0.3549 -0.0177 -0.0946
12033W        W25447   5.544  16.535   1.061  0.2887 -0.1143 -0.0126
12034W        W25448  11.826   0.018  10.433  0.1478 -0.0117  0.1480
12035W        W25449   5.404  15.582  14.351 -0.1727  0.2375 -0.1922
12036W        W25450  11.299  14.170  14.138  0.0333 -0.0355  0.1762
12037W        W25451   8.409   2.526  13.905  0.1730 -0.2102  0.1265
12038W        W25452  15.011   9.655  10.489 -0.2135  0.0365 -0.1959
12039W        W25453  12.320   8.446  10.830  0.2397  0.2095 -0.0324
12040W        W25454   2.523   8.869   2.535  0.2509  0.2976 -0.0145
12041W        W25455  17.462  12.370   3.987 -0.0745 -0.1796  0.0521
12042W        W25456  13.739  11.389   3.236  0.2113 -0.3592 -0.0846
12043W        W25457   1.911   6.847  16.217 -0.3947 -0.4529  0.0087
12044W        W25458  15.062  13.549   4.210 -0.2078 -0.2388  0.0166
12045W        W25459   7.953   7.641   2.580  0.0452  0.0117  0.2486
12046W        W25460   5.156   4.417  13.786  0.0596 -0.0865  0.6221
12047W        W25461  12.761   8.078  11.794 -0.2577  0.1246  0.0250
12048W        W25462  15.568   2.445   2.340 -0.0000 -0.4875  0.2942
12049W        W25463  11.127  13.728  10.371  0.0458 -0.1224  0.0873
12050W        W25464   2.269  10.927   0.307  0.2795  0.2541 -0.4386
12051W        W25465  15.214   8.537   4.229 -0.2738 -0.0525  0.0015
12052W        W25466  17.987   5.041  10.991 -0.2895  0.1572 -0.1961
12053W        W25467   2.286  17.184  12.231  0.0399  0.1730 -0.5000
12054W        W25468  11.281   8.547  10.513 -0.0141 -0.1263 -0.1376
12055W        W25469  16.592   8.721  14.307 -0.1129  0.0000 -0.4242
12056W        W25470   7.104   7.505   0.413 -0.3635  0.2034  0.0328
12057W        W25471  18.323   3.144  13.576 -0.1779 -0.2143 -0.0756
12058W        W25472   0.092   1.692   6.392 -0.0389 -0.0868  0.0860
12059W        W25473   3.522   9.379  10.750 -0.1012  0.0679 -0.1528
12060W        W25474  11.435  16.395  10.793 -0.1801  0.2551 -0.0819
12061W        W25475   7.499  15.500  12.228  0.2265  0.2691  0.4551
12062W        W25476   0.696   4.425  14.851  0.2774  0.3031  0.1827
12063W        W25477  13.040   6.742   0.123  0.2379  0.1584 -0.2654
12064W        W25478   9.026   4.996  14.096 -0.0685 -0.0002  0.0473
12065W        W25479  11.446   1.772   2.931  0.0420 -0.1884 -0.0428
12066W        W25480  13.247  12.432   2.907 -0.1372  0.1429  0.1610
12067W        W25481   2.772   9.519   2.597  0.2549 -0.1249 -0.0107
12068W        W25482   5.688   2.490  13.602 -0.0791  0.0658 -0.1992
12069W        W25483   0.036   3.429  13.138 -0.1128  0.0311 -0.1341
12070W        W25484  16.394   0.216   2.207 -0.0772 -0.3460 -0.0458
12071W        W25485  13.680  16.363  15.570 -0.1485 -0.3848 -0.1310
12072W        W25486   8.280  13.543   4.796 -0.0696  0.0952 -0.1196
12073W        W25487  17.960  12.749  14.733  0.0880 -0.0057 -0.4415
12074W        W25488  12.878   8.675   1.178 -0.1671  0.0538  0.1475
12075W        W25489   9.546   6.624  14.755 -0.1125  0.2161  0.0950
12076W        W25490  12.674  14.776   3.717 -0.1677  0.0757 -0.2939
12077W        W25491   9.204   1.218  15.203  0.2236 -0.0673  0.0466
12078W        W25492  13.576  13.554  14.239  0.0038 -0.1683  0.0405
12079W        W25493  16.051  14.463  10.748  0.0954  0.2485  0.2112
12080W        W25494   7.837   1.010  13.589 -0.0371 -0.0595  0.0607
12081W        W25495   5.396  12.016  13.473 -0.0416  0.0639  0.0475
12082W        W25496  15.116   7.124   2.893 -0.0092  0.0233  0.2439
12083W        W25497  12.016  10.081   5.685  0.2125  0.0522 -0.1459
12084W        W25498   8.797   6.267   1.085 -0.0745 -0.2748  0.0478
12085W        W25499   2.544   3.038   0.251  0.2835  0.0134 -0.1914
12086W        W25500  13.145   1.199  10.547 -0.2931 -0.0218 -0.3666
12087W        W25501  13.372   6.988  15.519  0.0192 -0.0309  0.2265
12088W        W25502   6.747   9.984  11.854  0.2283  0.2192 -0.1282
12089W        W25503  15.824  17.784   2.371 -0.0760 -0.1805  0.0349
12090W        W25504   7.488   6.352  13.882  0.2092 -0.1875 -0.1382
12091W        W25505   2.814   8.082  16.269  0.1811 -0.2840  0.0586
12092W        W25506  12.984  12.664   0.978 -0.0753 -0.1619  0.1430
12093W        W25507  13.205  15.358  11.275 -0.4000  0.1341 -0.2113
12094W        W25508  16.972   4.950   4.148  0.1777 -0.1025 -0.0867
12095W        W25509   5.030   9.837   4.190 -0.0740  0.3193 -0.0444
12096W        W25510  12.153   8.060   2.114 -0.1063  0.2848  0.0002
12097W        W25511  12.972   3.259  16.112  0.0749  0.4237 -0.2540
12098W        W25512   2.804   5.494  10.245 -0.1757  0.3130 -0.0581
12099W        W25513   1.347   8.642   1.637  0.2303 -0.1829 -0.0112
12100W        W25514  18.052  11.446  16.352  0.0980  0.2155  0.1683
12101W        W25515   3.814  10.566   0.129  0.1330  0.2711 -0.1015
12102W        W25516   2.190  18.175  13.467 -0.1071 -0.0649 -0.2067
12103W        W25517  18.317  12.816  14.287  0.0091 -0.0227  0.0593
12104W        W25518   3.872  12.818  16.241 -0.0560 -0.2289  0.0902
12105W        W25519   1.063  14.039  13.641 -0.0685  0.3487  0.0135
12106W        W25520  16.029  14.274   1.165  0.1729 -0.2530  0.2815
12107W        W25521  18.042  10.900   4.129 -0.1413  0.1362  0.1710
12108W        W25522  15.277   8.575  10.758 -0.3085  0.1963 -0.0088
12109W        W25523   5.821   8.192  12.903 -0.3371 -0.1692 -0.3515
12110W        W25524   7.735   5.463   3.166 -0.1504 -0.0405  0.1093
12111W        W25525   6.924   8.995  13.669 -0.0803 -0.1185 -0.0917
12112W        W25526   7.609   6.891  13.448 -0.0447  0.0395  0.0976
12113W        W25527   8.540   2.349  12.333 -0.0042 -0.0171  0.4592
12114W        W25528   8.744  12.386   0.903 -0.3187 -0.2890 -0.0745
12115W        W25529   1.095  16.976   3.460 -0.4379 -0.0683  0.1477
12116W        W25530   5.369   7.188  16.172 -0.0874 -0.0908 -0.2238
12117W        W25531   8.458  17.467  15.147 -0.2439 -0.0105 -0.0769
12118W        W25532   5.992  12.259  11.360 -0.0546 -0.1770  0.0020
12119W        W25533   5.787   0.005   0.690  0.2466 -0.2932 -0.2084
12120W        W25534   0.600   6.196   5.130 -0.1436  0.0490  0.3194
12121W        W25535  13.459  17.349   2.274  0.1102  0.0160 -0.0351
12122W        W25536  10.339  18.157  11.397  0.1676 -0.1927 -0.3496
12123W        W25537  16.709  14.040   7.327 -0.0443 -0.0005  0.0884
12124W        W25538  13.791   1.413  11.793 -0.0407  0.2547  0.0079
12125W        W25539  14.463  10.358  12.877  0.2597  0.1844  0.2509
12126W        W25540  12.735   8.208  15.634 -0.0639  0.1758 -0.1120
12127W        W25541   9.721  18.197   3.754 -0.1732 -0.0503 -0.0894
12128W        W25542   4.485   0.740  13.894 -0.3030 -0.0213  0.0023
12129W        W25543   4.471   4.554  14.332 -0.0085 -0.0148 -0.2158
12130W        W25544   4.283  13.225  13.223 -0.0942 -0.4473 -0.2802
12131W        W25545  10.359  14.670  13.214  0.0315  0.1239  0.0755
12132W        W25546  10.174  17.707   4.007  0.0241 -0.1154  0.1762
12133W        W25547  10.544   3.158   4.340  0.2845 -0.2070  0.1742
12134W        W25548   5.937   5.042   5.564  0.1891 -0.0196  0.1244
12135W        W25549  16.457   6.826  14.778 -0.2801 -0.0021  0.0812
12136W        W25550  17.287  11.972   4.238  0.0786 -0.1541  0.1374
12137W        W25551   7.902  16.986   1.389 -0.0394  0.1705  0.0404
12138W        W25552   1.286  10.145  12.882  0.1341  0.0854  0.1075
12139W        W25553   3.238  12.392  12.611  0.3158  0.4495 -0.0240
12140W        W25554   0.717  17.914   7.143  0.0145  0.3701 -0.2242
12141W        W25555   8.250   8.596   3.041  0.0625  0.4022 -0.2000
12142W        W25556   8.992   7.965  14.663  0.1319  0.0927  0.0170
12143W        W25557   9.751  15.285  10.051 -0.0676  0.0511  0.0005
12144W        W25558  14.883  13.953   2.313  0.4397  0.0718  0.1272
12145W        W25559   8.703   6.190  14.459 -0.0408  0.0676 -0.3288
12146W        W25560   9.273  17.737  13.015 -0.4032  0.1251  0.0358
12147W        W25561  17.316  16.233  15.932  0.0993 -0.1473 -0.3334
12148W        W25562   2.872   8.096   5.826  0.1244 -0.1016  0.3137
12149W        W25563   9.817  13.395   2.995 -0.3641 -0.0605 -0.2804
12150W        W25564   6.993  16.049   5.047 -0.0659  0.2938  0.1721
12151W        W25565   2.451  14.364  15.180 -0.0955  0.2300 -0.1426
12152W        W25566   0.727  18.207  15.053 -0.0339  0.1507 -0.1452
12153W        W25567   9.908   6.000  10.591  0.0608 -0.1565 -0.2531
12154W        W25568   8.699  10.320  13.491  0.0529 -0.0836 -0.1472
12155W        W25569   4.182  13.710  14.110 -0.2675  0.0075 -0.0695
12156W        W25570  14.664   2.180  14.138  0.1247 -0.1070 -0.0226
12157W        W25571   0.312   9.457   3.255  0.3652 -0.0689 -0.6241
12158W        W25572   2.359  14.444  14.709 -0.3855 -0.1851 -0.0373
12159W        W25573   8.365   0.481  11.802 -0.0605 -0.0228 -0.0691
12160W        W25574  13.927  10.501   5.672 -0.2102 -0.0891  0.1421
12161W        W25575   7.824   0.457  15.723 -0.0457  0.2230 -0.1971
12162W        W25576  13.055  16.276  13.375 -0.0506  0.1695 -0.1347
12163W        W25577   7.998   0.108   0.880  0.0682  0.2561 -0.1538
12164W        W25578  13.156   7.309  12.756 -0.2963 -0.0983 -0.2063
12165W        W25579   8.868   3.553  12.321  0.0080  0.0165 -0.1288
12166W        W25580   1.407  15.563  11.170  0.0190  0.1149 -0.0744
12167W        W25581  16.739   3.883   4.287 -0.1677  0.1022  0.2778
12168W        W25582  16.035   2.870   0.207 -0.2924  0.0794 -0.2853
12169W        W25583  13.205   6.215  14.129 -0.0984  0.2049 -0.2306
12170W        W25584   9.487   5.525  15.444 -0.0039 -0.0614 -0.2786
12171W        W25585  15.711   4.607  15.339  0.1389  0.1834 -0.1499
12172W        W25586   9.117   0.343   3.580 -0.0412 -0.1992  0.3284
12173W        W25587   6.283  14.295   4.413 -0.0885 -0.0201  0.0524
12174W        W25588   7.982  15.353  12.110 -0.0289  0.4133  0.0199
12175W        W25589  10.033  10.444   0.988  0.2228  0.0945  0.1394
12176W        W25590  18.163  12.319   2.121  0.0950 -0.0687 -0.2251
12177W        W25591   1.045  13.167   0.162 -0.0930 -0.2303  0.1657
12178W        W25592   5.087  11.267  12.744  0.0987 -0.1549  0.1045
12179W        W25593   7.054   7.774   5.240 -0.3138  0.3108  0.1446
12180W        W25594   3.041  13.292  11.971 -0.2111  0.0596 -0.1998
12181W        W25595   6.650   6.337   2.766 -0.0718  0.3499  0.3323
12182W        W25596   7.284  14.136  15.436  0.3621  0.0911 -0.1038
12183W        W25597  16.234   0.783  16.201  0.3481  0.1390 -0.1724
12184W        W25598   2.859  16.990  14.923 -0.1173  0.0274 -0.1473
12185W        W25599   5.636  16.277  11.593 -0.1389 -0.2058 -0.1624
12186W        W25600  10.542   5.017   3.502 -0.0215  0.2477  0.0002
12187W        W25601   4.822   5.234  14.529  0.0266 -0.0712 -0.2908
12188W        W25602  17.997  12.478   5.870 -0.0661 -0.1296 -0.1631
12189W        W25603  17.009   0.712   1.855 -0.0097 -0.0151 -0.0769
12190W        W25604  11.660  15.511   3.780 -0.0254  0.0223  0.1912
12191W        W25605   8.929  17.189  12.523 -0.3073  0.2910 -0.0230
12192W        W25606  13.251  13.966   5.236  0.0123  0.3042  0.1063
12193W        W25607   5.900  11.464   4.544  0.1292  0.0679  0.2021
12194W        W25608  10.262   8.680   2.454 -0.1708  0.0895  0.1209
12195W        W25609  15.780   7.676   4.942 -0.1358 -0.0794 -0.3613
12196W        W25610  15.010   3.593  14.196 -0.2510  0.2355 -0.1083
12197W        W25611  11.362  13.005   3.231 -0.0709  0.4882  0.2259
12198W        W25612  14.916  11.305   0.234  0.1157  0.4159 -0.1839
12199W        W25613  16.093   9.546   4.840 -0.2113  0.2414 -0.0027
12200W        W25614   9.049   0.799  16.366  0.2783  0.0097 -0.1134
12201W        W25615   3.889  11.419  12.836  0.0088 -0.0059  0.0574
12202W        W25616   1.453   1.124   3.641  0.1994 -0.3219  0.4316
12203W        W25617   8.009  14.978   4.978  0.0036  0.2118  0.0643
12204W        W25618   9.615   7.345   5.617  0.2920 -0.1572  0.0613
12205W        W25619   7.433  13.647  15.630 -0.2598 -0.2482  0.1562
12206W        W25620  12.172   0.579   3.838 -0.1061 -0.2375 -0.1698
12207W        W25621  10.567  13.665   3.389  0.2225 -0.2447 -0.1078
12208W        W25622   3.354   8.603  11.280  0.0080  0.0287  0.1764
12209W        W25623  16.763  12.729   5.016  0.3049  0.5010  0.1470
12210W        W25624  17.643   4.243   3.172  0.2186 -0.0480 -0.0242
12211W        W25625   4.918   1.916   1.578 -0.0476  0.0121 -0.0080
12212W        W25626   1.437  15.424   3.543 -0.1054 -0.0979  0.0375
12213W        W25627   2.824  16.689   1.069 -0.1491 -0.1928 -0.1048
12214W        W25628  10.958  17.117  13.393 -0.0670  0.2910  0.0676
12215W        W25629   1.174  10.697   5.073  0.0486 -0.0755  0.0853
12216W        W25630  10.119  11.203   4.006 -0.1067  0.1220  0.2480
12217W        W25631   0.532   8.511   1.101 -0.2174 -0.2726 -0.2308
12218W        W25632   7.315   8.555   2.929  0.2288  0.1320 -0.0721
12219W        W25633   1.829   4.839  11.466  0.1090 -0.5099 -0.2473
12220W        W25634   0.627  15.362  11.897 -0.1398  0.0629 -0.1339
12221W        W25635   3.653  17.728   4.800 -0.2039 -0.0183 -0.3624
12222W        W25636   0.784   3.504   4.704  0.3804 -0.3026  0.0648
12223W        W25637   1.215   1.387  14.322 -0.0716  0.1164  0.3334
12224W        W25638   4.016  17.872  12.386  0.3148  0.2155 -0.1587
12225W        W25639  10.344  15.691  10.836  0.0468  0.2585  0.0353
12226W        W25640   3.644   9.583  11.327  0.0002 -0.0320  0.0404
12227W        W25641  14.316  14.460   1.224  0.3107 -0.2943 -0.0442
12228W        W25642   0.606  16.994   4.921 -0.0333  0.2147 -0.5172
12229W        W25643   7.544  17.859  11.615  0.0799  0.1942 -0.0355
12230W        W25644   4.361   2.958  14.303 -0.0899 -0.1193 -0.0069
12231W        W25645   8.216  13.037   4.918 -0.0268 -0.0503  0.1162
12232W        W25646  10.496   3.197   0.824  0.2054  0.1599 -0.1755
12233W        W25647  17.216   3.464   1.592  0.0093  0.0527 -0.3977
12234W        W25648   7.602   7.919  14.741 -0.3003 -0.0741 -0.0721
12235W        W25649  13.888  11.367   3.730 -0.0488 -0.1891 -0.0564
12236W        W25650  15.780   2.824  15.216  0.0130 -0.1050 -0.2028
12237W        W25651   7.498   5.051   0.483  0.0663 -0.0069 -0.1551
12238W        W25652   7.420   7.812   6.141  0.0324 -0.1065 -0.0190
12239W        W25653  12.318  17.248  14.058  0.2569 -0.2419  0.0895
12240W        W25654  16.568   9.016   3.970  0.1018 -0.1990 -0.1851
12241W        W25655   6.998  11.935  11.976 -0.2020 -0.1263 -0.1549
12242W        W25656  16.904   9.359   4.505 -0.0510 -0.1410 -0.2915
12243W        W25657   1.368   7.021  11.041 -0.4141  0.3532 -0.1881
12244W        W25658  13.590  15.360  14.798 -0.1501 -0.1745 -0.2525
12245W        W25659  11.150   4.739  12.497  0.0016 -0.0082 -0.1308
12246W        W25660   0.598  13.531   4.996 -0.2820 -0.0079 -0.0399
12247W        W25661  16.663  16.976   1.202 -0.0372 -0.1711  0.3035
12248W        W25662  13.970   1.585  13.589 -0.0578 -0.0316  0.0510
12249W        W25663  10.679   1.854  13.270 -0.1144 -0.2843 -0.1555
12250W        W25664  10.528  16.165  15.050 -0.0112 -0.0560 -0.0604
12251W        W25665  18.215   1.358   3.253 -0.0216 -0.4118 -0.1746
12252W        W25666  14.477   8.410  12.609 -0.1467 -0.0391  0.2850
12253W        W25667  10.141   6.519   0.961 -0.2330 -0.1191  0.1729
12254W        W25668   5.792   1.026   2.189  0.1430 -0.1536  0.0876
12255W        W25669   3.945   9.035  14.767 -0.1002 -0.1496  0.1439
12256W        W25670   5.336  11.103   3.336 -0.0223  0.0152  0.1167
12257W        W25671   7.338  11.369   1.364  0.1036  0.2380  0.0203
12258W        W25672   7.264   8.054  12.851  0.0851 -0.1071  0.2836
12259W        W25673   5.479   4.739   1.882 -0.0083 -0.1534  0.1483
12260W        W25674  18.300  12.180  11.899 -0.3193 -0.0775  0.1161
12261W        W25675   2.342   6.616   1.025 -0.0942  0.2881  0.1564
12262W        W25676  13.255   1.770  11.569  0.0195 -0.0318 -0.0500
12263W        W25677  16.057  14.244  13.758  0.1607 -0.1700 -0.0604
12264W        W25678  13.570   7.607  12.545 -0.0444 -0.1343  0.1974
12265W        W25679   7.416   1.843  12.880 -0.0235 -0.0258 -0.3191
12266W        W25680   8.606  12.082   0.061 -0.1024  0.0698  0.1079
12267W        W25681  10.858   0.072  13.609  0.0143  0.0881  0.2865
12268W        W25682  17.957  17.632  11.319 -0.0550  0.0574  0.2649
12269W        W25683   8.463  17.062   0.591 -0.0576  0.1148  0.2628
12270W        W25684   7.355  15.023   4.297  0.2007  0.0828  0.0135
12271W        W25685   2.321   2.485  14.978  0.0146 -0.0245 -0.2689
12272W        W25686   5.213   6.039   2.907 -0.0976  0.1402 -0.1508
12273W        W25687   0.380  14.149   1.422  0.0677  0.4955 -0.0101
12274W        W25688  16.517  11.443  14.164  0.1224  0.3516  0.1811
12275W        W25689  13.542  12.960   1.082  0.0527 -0.1583 -0.0987
12276W        W25690  15.398   1.174  14.750  0.0268 -0.3695  0.1257
12277W        W25691  16.757  15.519  14.538 -0.0651 -0.2262 -0.0082
12278W        W25692  11.518   9.019  10.850  0.0961  0.4624  0.3078
12279W        W25693   2.016   4.186  14.797 -0.0860 -0.0486  0.1744
12280W        W25694  11.473  13.950   1.445 -0.2485 -0.3071 -0.2614
12281W        W25695   8.338  14.198  12.748 -0.3084  0.0327  0.0069
12282W        W25696  10.431   0.912  14.731 -0.3237 -0.0465 -0.1469
12283W        W25697  12.034   3.192   1.794  0.1678  0.1769  0.0721
12284W        W25698   6.798   3.796  11.567 -0.1404 -0.4301  0.1900
12285W        W25699   1.463  17.325  11.736  0.1172  0.1324 -0.0616
12286W        W25700  12.639   5.416   4.338 -0.0940  0.3346  0.1466
12287W        W25701  11.032  11.757   1.741 -0.0094  0.1464  0.1959
12288W        W25702   4.959   1.174   3.444 -0.2378 -0.2095  0.0293
12289W        W25703  15.297   5.779  10.705  0.1755 -0.0638  0.2128
12290W        W25704   9.079  17.788   2.575 -0.2429 -0.2749 -0.2870
12291W        W25705   7.398   6.801   0.480  0.1248  0.4340 -0.0186
12292W        W25706  13.961  11.581  12.619 -0.0777  0.1597 -0.0338
12293W        W25707  12.530   0.510   5.202  0.0174 -0.2671 -0.1974
12294W        W25708   4.887  11.310   2.667  0.0312  0.1817  0.1636
12295W        W25709   1.910   5.758  15.126 -0.1594  0.3138  0.1973
12296W        W25710   5.209  13.323   0.544  0.0094  0.1167 -0.1847
12297W        W25711   9.816   1.766  14.599 -0.1911 -0.1842 -0.0064
12298W        W25712  15.390  12.854  13.736 -0.3684 -0.0324 -0.3140
12299W        W25713  13.066   5.263  16.127 -0.2258  0.1102  0.1189
12300W        W25714  10.612   2.482  15.823  0.0580 -0.1239 -0.1575
12301W        W25715   4.189   6.224  13.707  0.0758 -0.1380  0.0091
12302W        W25716   8.679   1.886   3.731 -0.2183 -0.3880  0.0060
12303W        W25717  13.003   1.119  12.926 -0.2363 -0.3368 -0.1451
12304W        W25718   6.836  12.090   3.247 -0.2367  0.0564  0.0880
12305W        W25719  10.053   7.322   4.427  0.1857  0.1372 -0.0115
12306W        W25720   3.725   8.001   2.999  0.1846 -0.1983 -0.4843
12307W        W25721   7.558  16.760   2.055 -0.1022  0.1382 -0.1471
12308W        W25722   5.871   3.719  16.458 -0.0927  0.2049  0.0220
12309W        W25723   8.811   4.177   3.264  0.1135  0.3244  0.0495
12310W        W25724   8.800   1.129   4.407  0.1725 -0.0409  0.1478
12311W        W25725  12.718   2.621  14.091  0.1027  0.3738 -0.1495
12312W        W25726   7.010  17.786   5.300  0.2063  0.0680  0.2543
12313W        W25727  17.763  15.236  11.482  0.1272  0.1879  0.3572
12314W        W25728   4.887   7.709   2.165  0.1205  0.2239  0.0350
12315W        W25729   3.064  10.552   1.246  0.1730  0.1036 -0.0684
12316W        W25730  15.094  13.904  11.357  0.0274 -0.0719  0.0176
12317W        W25731  13.783   2.984  11.292  0.0847 -0.1676 -0.2277
12318W        W25732  10.691   9.950  12.417  0.1427  0.0431 -0.0244
12319W        W25733   7.201  11.393  11.505 -0.3681  0.1265 -0.2818
12320W        W25734   4.158   1.285  11.893 -0.1595  0.2591 -0.2358
12321W        W25735  10.233  15.525   1.239 -0.1517  0.2065 -0.1854
12322W        W25736  18.014   3.269   2.171  0.0917 -0.1646  0.2836
12323W        W25737  17.428   8.771   9.693  0.0194 -0.3875 -0.0260
12324W        W25738   1.733   8.367  13.723  0.2200 -0.1163 -0.1409
12325W        W25739  13.956  18.214  14.016 -0.1294 -0.1215 -0.0779
12326W        W25740   8.717   5.281  13.810  0.0027  0.0848 -0.0241
12327W        W25741   2.631   1.959  12.084  0.3564  0.1104 -0.0163
12328W        W25742   3.718   4.135  11.822  0.1686  0.0218  0.1592
12329W        W25743  13.202   7.293   3.692 -0.2262  0.0695  0.1602
12330W        W25744   6.212  17.275   0.381 -0.2411 -0.2973  0.1996
12331W        W25745  11.640   4.179  14.590 -0.0885  0.3372  0.1018
12332W        W25746   1.356   0.592  13.993  0.1620 -0.1334  0.0112
12333W        W25747  10.859   1.768  14.935 -0.4320 -0.0961 -0.0985
12334W        W25748   6.162   3.716  14.769  0.4200 -0.1019 -0.1448
12335W        W25749   5.509   5.794  12.268 -0.2935  0.1989  0.0679
12336W        W25750   6.843   6.378   2.326 -0.3752  0.1714 -0.3851
12337W        W25751  12.696  12.480   4.467 -0.0374  0.0638 -0.1096
12338W        W25752   8.356  10.678   5.227 -0.1693  0.1556  0.0119
12339W        W25753  12.853   6.635   5.910 -0.2308 -0.3305 -0.1903
12340W        W25754   2.842   8.692   4.799  0.2621 -0.1630  0.2901
12341W        W25755   3.853   1.977  12.788 -0.4076  0.0766 -0.1636
12342W        W25756  15.554   9.537  14.609 -0.1156  0.0708  0.0706
12343W        W25757   7.580  10.851   4.278 -0.4708 -0.1045  0.1676
12344W        W25758   8.252   1.704   1.066 -0.1220 -0.0207  0.1859
12345W        W25759   6.214  16.048  11.055 -0.1232 -0.3240  0.0029
12346W        W25760  12.877   8.245   1.422 -0.3143  0.2785  0.0488
12347W        W25761  17.212   8.069  12.112 -0.0600  0.0340  0.2827
12348W        W25762   2.450   3.699   5.686  0.0821 -0.0144  0.2499
12349W        W25763   4.910   1.657   5.862  0.1598  0.1886  0.0279
12350W        W25764  17.976  14.969  11.871  0.1388  0.3189 -0.0638
12351W        W25765  10.133  12.163   0.765  0.0892  0.1634  0.1665
12352W        W25766   1.816   5.784  11.194 -0.2848  0.0513  0.1228
12353W        W25767  10.609  14.722  16.400  0.4207 -0.0577 -0.2584
12354W        W25768  13.399  12.566  14.261 -0.2236  0.1173 -0.0963
12355W        W25769  12.251   1.742   2.131  0.0366  0.0295  0.0282
12356W        W25770  16.897   1.813  16.178  0.1900  0.0109 -0.1532
12357W        W25771  10.493   1.775  12.770 -0.1687  0.1170 -0.2181
12358W        W25772  12.223   4.401   4.645  0.0831  0.0653  0.2121
12359W        W25773  17.252  15.536   5.347  0.0395  0.0537 -0.2736
12360W        W25774  12.389   0.123   3.241  0.1006  0.1765  0.0292
12361W        W25775  17.950   5.709   1.903 -0.0453 -0.0277  0.0295
12362W        W25776  13.067  18.220   5.332 -0.1991  0.1068  0.0169
12363W        W25777   0.847   6.090   3.953  0.2264 -0.1959 -0.1012
12364W        W25778   8.987  16.465   2.608 -0.1178  0.2356 -0.2607
12365W        W25779   2.947  15.827   2.498  0.0448 -0.2971 -0.0887
12366W        W25780   1.953   8.830   9.671  0.1060  0.3362  0.0052
12367W        W25781   5.812   4.563  11.574 -0.2238  0.0326 -0.0458
12368W        W25782   7.148  16.425   5.377  0.0253 -0.0221 -0.1562
12369W        W25783  15.861   1.468  13.116 -0.0101  0.3717  0.3079
12370W        W25784   2.477   4.894   2.768 -0.1227  0.1309  0.2543
12371W        W25785   8.713   5.173   0.482  0.0911  0.0070 -0.0365
12372W        W25786   0.923   9.888   3.097 -0.3861 -0.2735  0.1042
12373W        W25787   3.028  13.115   3.499 -0.0411  0.0696  0.1744
12374W        W25788   6.990   2.527  13.473  0.0754  0.1726  0.0945
12375W        W25789  14.194   7.186  14.900 -0.0700  0.2134  0.0375
12376W        W25790  15.819   8.515  13.106  0.1937  0.1361 -0.4505
12377W        W25791  10.688  16.316  12.690 -0.1802  0.0194  0.2288
12378W        W25792  10.797  13.223   4.106  0.0895  0.2911  0.0108
12379W        W25793   1.809  16.251   7.423 -0.1783  0.1435 -0.1829
12380W        W25794   6.930   6.713   2.867 -0.0629 -0.2908 -0.1393
12381W        W25795   8.473   4.448  12.751 -0.3141 -0.1143  0.1645
12382W        W25796  15.489   5.701  14.563  0.2347 -0.0816  0.3294
12383W        W25797   3.456   3.916   1.945 -0.1061 -0.1300 -0.0875
12384W        W25798  11.294  10.637   0.464  0.1867 -0.2061  0.2722
12385W        W25799   0.088   6.743  13.119 -0.3240  0.0698 -0.0102
12386W        W25800   5.702   7.014  14.839  0.2197  0.3205 -0.0532
12387W        W25801  11.392   8.627  15.400  0.1096 -0.2226  0.0878
12388W        W25802  16.949   0.879   0.127  0.0864 -0.0474 -0.0010
12389W        W25803  16.347  11.180  14.611 -0.0207 -0.1710 -0.1312
12390W        W25804  16.323   0.175  11.260 -0.2451  0.2109  0.1717
12391W        W25805   9.079   5.087  16.141 -0.0605 -0.0972  0.1117
12392W        W25806  13.635   8.370   1.706 -0.1751  0.1978  0.1387
12393W        W25807  17.585  14.506  16.240  0.2277  0.2958  0.3200
12394W        W25808   0.307   8.000   2.775 -0.1024 -0.0322 -0.0569
12395W        W25809   1.716   9.045  10.532 -0.1497  0.1584 -0.1226
12396W        W25810   2.802   2.482   5.533  0.2040 -0.1589 -0.0916
12397W        W25811  16.182  13.766  15.445 -0.1027 -0.0988  0.0224
12398W        W25812  13.921  12.822   0.218 -0.2420 -0.1990 -0.3946
12399W        W25813   7.346  16.065  14.727 -0.2247 -0.1631  0.2619
12400W        W25814  15.520  11.192   1.051 -0.0915 -0.2953 -0.1761
12401W        W25815  17.126   4.298   2.133  0.0303  0.2001 -0.2162
12402W        W25816  17.628   7.555  16.298 -0.1290 -0.0074 -0.0362
12403W        W25817   7.523  12.410   2.224  0.2079 -0.0811  0.2265
12404W        W25818  14.282  10.737   6.431  0.3721  0.3008 -0.0950
12405W        W25819  11.295   4.409  13.419  0.1505 -0.1004 -0.3476
12406W        W25820  16.988   1.808  11.312  0.1122 -0.2440 -0.1152
12407W        W25821   0.095  18.024  14.886  0.1681 -0.4552  0.0979
12408W        W25822   2.717   3.783   4.984 -0.0314 -0.2116  0.0864
12409W        W25823  18.235   1.121   4.744  0.1503 -0.1965  0.1918
12410W        W25824  15.941  16.989  15.763 -0.1418 -0.0063  0.3914
12411W        W25825   8.067   7.802   2.024 -0.1365  0.4403 -0.0958
12412W        W25826   6.670   4.750   3.368 -0.2286  0.0024 -0.1526
12413W        W25827  12.224  16.120   0.971  0.1057 -0.0440  0.0272
12414W        W25828   9.882   8.485   6.153 -0.0726 -0.2405 -0.3661
12415W        W25829   7.974   3.970  11.989 -0.1242 -0.0904 -0.1961
12416W        W25830   3.901   9.248  14.151 -0.1123 -0.0872 -0.1339
12417W        W25831   2.263  15.497   1.071 -0.0175 -0.2594 -0.1230
12418W        W25832  14.075  10.541   1.986  0.2154 -0.0731  0.1400
12419W        W25833  17.360  18.098   3.568  0.6203  0.0458 -0.0805
12420W        W25834   7.377   3.760  14.393  0.0400 -0.2818 -0.1810
12421W        W25835   3.647  10.826  15.174  0.1162  0.1421  0.2163
12422W        W25836   8.118   9.918   0.657  0.2323 -0.1976  0.1279
12423W        W25837  14.798  17.185   3.942  0.4870  0.1347 -0.0092
12424W        W25838  11.318  14.613   3.860  0.0992 -0.2988 -0.1232
12425W        W25839   4.934  16.650   3.121 -0.0237  0.2488  0.1650
12426W        W25840   7.210   9.682   0.775 -0.3281  0.2162  0.1099
12427W        W25841   1.187  13.309  13.235 -0.3333  0.1418 -0.0488
12428W        W25842   7.280   9.013  16.243 -0.0027 -0.0532  0.1306
12429W        W25843   6.493  12.909  14.328  0.0133 -0.0052  0.0219
12430W        W25844  13.415  12.141   1.846  0.0271  0.2248 -0.3115
12431W        W25845   6.724  11.306   5.378 -0.0387  0.1360 -0.3226
12432W        W25846   2.524  15.372  15.377  0.1939  0.1931 -0.2370
12433W        W25847  13.483   5.225  10.654 -0.0621 -0.3403  0.0558
12434W        W25848   6.303   5.141  10.341  0.1267 -0.2597 -0.4239
12435W        W25849   5.318   9.305  13.541  0.1208  0.0351 -0.0444
12436W        W25850   8.431  17.971  10.081 -0.2435  0.0742  0.1188
12437W        W25851  15.676  11.884   5.520 -0.1188 -0.0219  0.4035
12438W        W25852  14.008  15.709  11.095  0.0078  0.0745  0.2543
12439W        W25853   8.224   1.047   3.335 -0.3726 -0.0113 -0.1169
12440W        W25854   4.547  17.240   1.206  0.0426  0.1304  0.0461
12441W        W25855   2.863   9.782  12.466 -0.1954  0.1448  0.4181
12442W        W25856  11.541  14.819  15.304 -0.0328  0.0142 -0.2889
12443W        W25857   2.468   8.064  11.329 -0.0210 -0.0099  0.2615
12444W        W25858   4.026  15.551  12.884 -0.2291 -0.2246  0.1356
12445W        W25859  11.734   0.484  11.714  0.3037  0.1191 -0.0014
12446W        W25860  11.019   0.614  12.808 -0.1674  0.0999 -0.0856
12447W        W25861  13.873   9.667   3.119  0.4621  0.1810  0.1576
12448W        W25862  14.782   5.380   0.621  0.0193  0.0005 -0.0629
12449W        W25863   8.404  16.986  15.845 -0.0129  0.1728 -0.0194
12450W        W25864  17.189   0.366  16.214 -0.0089 -0.3055 -0.2835
12451W        W25865   5.203  17.971  16.176  0.0050  0.0319  0.0684
12452W        W25866  12.054   6.893   4.130  0.0507 -0.0409  0.0153
12453W        W25867  17.248   3.796   4.347  0.0313  0.1385  0.1811
12454W        W25868   2.259  15.410  13.672  0.0480 -0.2163 -0.1594
12455W        W25869   3.793  10.703   9.804 -0.0165 -0.0779  0.0348
12456W        W25870   9.281   4.330  10.887  0.2222 -0.0437  0.3429
12457W        W25871  10.770   7.865   0.096  0.0204  0.0019  0.0145
12458W        W25872  14.527   3.122   1.255  0.1146  0.0269  0.1856
12459W        W25873   2.714   9.109   2.965 -0.0554  0.0541  0.0937
12460W        W25874   1.263   3.769   2.048  0.1607  0.3210  0.1718
12461W        W25875   9.738  12.642   0.083  0.1704  0.0731 -0.0465
12462W        W25876   9.724   6.315   0.639 -0.0104  0.0781  0.1356
12463W        W25877   6.508   4.409   1.279 -0.1741  0.2425 -0.3353
12464W        W25878  18.127   2.524  11.248  0.4445 -0.2370  0.1732
12465W        W25879   3.182   1.132  13.584  0.1134 -0.2400  0.0319
12466W        W25880   5.114   3.884   5.388  0.0111  0.0775 -0.1926
12467W        W25881  14.976   1.061   3.653 -0.2870 -0.2404 -0.0671
12468W        W25882  11.427  11.987  14.525  0.0260 -0.3271 -0.0588
12469W        W25883   4.967  14.101   6.133  0.1360  0.0217 -0.0324
12470W        W25884  10.500   2.458   5.254 -0.0346 -0.1119 -0.2832
12471W        W25885   1.803   2.211   1.059  0.0559 -0.0985 -0.4594
12472W        W25886   7.924  12.485  15.294 -0.1853  0.1740 -0.0143
12473W        W25887   6.552  11.946  10.146 -0.0239 -0.2377 -0.0605
12474W        W25888  15.788  14.589  15.691  0.1923  0.1342  0.1359
12475W        W25889   4.719   3.851   4.149  0.2157 -0.1194 -0.1348
12476W        W25890  13.162   6.060   1.246 -0.0984 -0.3723 -0.0570
12477W        W25891   6.038  11.374   4.062 -0.0777  0.1967 -0.2654
12478W        W25892   3.287   9.481   1.968  0.1640  0.0497  0.0688
12479W        W25893  11.715  16.346   4.924 -0.4865  0.1796 -0.1311
12480W        W25894   1.826  17.288   6.308 -0.0029  0.0263 -0.1629
12481W        W25895   1.463  18.187   3.778 -0.1309  0.1237 -0.0443
12482W        W25896   1.607  18.252  14.359  0.1604 -0.0702 -0.0211
12483W        W25897   4.887   7.193   5.291 -0.0163 -0.0217 -0.1247
12484W        W25898   6.456   5.362  14.440  0.1415 -0.1424 -0.0912
12485W        W25899   9.872   5.529  15.796  0.0233  0.2169 -0.0132
12486W        W25900   1.753   1.102  14.506  0.1468 -0.4483  0.1086
12487W        W25901  17.342  16.923  13.551 -0.0107  0.0317  0.0344
12488W        W25902  10.848  12.971   2.661 -0.3767  0.0301 -0.0177
12489W        W25903   6.137   1.011   3.701  0.0192 -0.0803  0.0404
12490W        W25904  17.128   2.136   3.728 -0.0305  0.1098  0.2326
12491W        W25905   7.939  16.531   3.016 -0.2019  0.1573 -0.1096
12492W        W25906   3.619   5.763  12.546 -0.0709  0.0378 -0.1519
12493W        W25907  10.617  15.689  15.254  0.2428  0.0064  0.0599
12494W        W25908   2.129   3.729  12.165  0.0017  0.0651  0.2484
12495W        W25909   2.219  10.772   4.866 -0.0837  0.2621 -0.0243
12496W        W25910   1.672   3.552  14.646 -0.3117  0.1361 -0.0135
12497W        W25911  13.580   7.977  10.626  0.1331 -0.0686 -0.0959
12498W        W25912   8.649  12.199  10.921  0.0507  0.2505  0.0781
12499W        W25913  16.009   8.920   3.145 -0.2941 -0.4074  0.0319
12500W        W25914  10.125  10.466  11.573  0.1013 -0.3037  0.3280
12501W        W25915  10.684  16.568  13.175  0.1319  0.0681 -0.2884
12502W        W25916   7.806   0.027   3.066  0.2385  0.0959  0.0438
12503W        W25917   0.057  13.189  11.825  0.0610  0.0202 -0.1660
12504W        W25918   2.319   4.374   0.471 -0.0878 -0.2060  0.0355
12505W        W25919  12.409  12.818  12.095 -0.0968 -0.1236 -0.2537
12506W        W25920   6.906  16.984  10.019 -0.1639 -0.6109  0.0152
12507W        W25921  10.637   8.636   0.687 -0.1028 -0.1712 -0.0485
12508W        W25922   5.662   2.296  15.433 -0.1785 -0.3222 -0.0469
12509W        W25923  10.371  13.214   0.837  0.1668 -0.1941  0.1091
12510W        W25924   7.070   5.550  11.019  0.0169  0.0320 -0.0170
12511W        W25925  10.075  15.519  16.059  0.0783 -0.0491 -0.4898
12512W        W25926   1.820  17.208  12.533 -0.3563  0.1659 -0.1922
12513W        W25927  16.812   3.749   1.680  0.0581  0.1516  0.0058
12514W        W25928   5.639   9.594  15.234 -0.1494 -0.0643  0.1199
12515W        W25929  10.549  15.436  14.374 -0.0999  0.0740 -0.0576
12516W        W25930  16.177   5.603   1.261  0.0431  0.0803  0.1607
12517W        W25931   3.011  16.778   5.977  0.2161 -0.2379 -0.5096
12518W        W25932   3.999   5.168   4.866  0.1085  0.2244 -0.1310
12519W        W25933  16.295  15.161   3.032  0.1723  0.0920 -0.0970
12520W        W25934   7.671   6.059   1.826 -0.0241  0.2161 -0.0788
12521W        W25935   9.006   2.647  13.247 -0.1934 -0.0179 -0.0029
12522W        W25936  12.663  18.179   3.537  0.2176 -0.0500  0.1016
12523W        W25937   4.204   5.519  15.950 -0.0158 -0.1534 -0.1623
12524W        W25938   2.673  11.863  15.297  0.0140 -0.0437 -0.0341
12525W        W25939   0.268   1.305  16.144  0.5373  0.1682 -0.4419
12526W        W25940   5.344   9.740   5.140  0.0844  0.1350 -0.0342
12527W        W25941   3.728  16.851  13.395  0.0448 -0.3248 -0.2142
12528W        W25942  15.803  15.415  14.102  0.0807 -0.0002 -0.1027
12529W        W25943   9.097   8.686   2.185 -0.0475  0.1482 -0.0533
12530W        W25944  14.195  14.145   2.896  0.0361 -0.1446  0.0981
12531W        W25945   7.470  11.115   3.843 -0.0642 -0.2970  0.0429
12532W        W25946  10.633   9.090  12.525 -0.0809  0.1791  0.0840
12533W        W25947  11.364  14.674   0.221 -0.1289  0.0846  0.0545
12534W        W25948  14.828   4.633  16.003  0.1865 -0.1535 -0.0559
12535W        W25949  10.764  10.810  10.715 -0.1028 -0.1325 -0.2111
12536W        W25950   0.432   4.724  14.339 -0.2324 -0.0062  0.2958
12537W        W25951   5.615  10.276  12.594  0.1609  0.2444  0.1538
12538W        W25952  12.441   4.656  16.183  0.4602  0.0439  0.2195
12539W        W25953   4.482   8.558   2.292 -0.3008 -0.0104 -0.1608
12540W        W25954   6.000   5.247  13.777 -0.0591 -0.1218  0.0245
12541W        W25955  12.758  17.431   2.904 -0.3301 -0.0839 -0.1180
12542W        W25956  12.472   4.629   5.395  0.1549  0.3210  0.1952
12543W        W25957   1.650  15.248  11.464 -0.1745  0.1787 -0.0665
12544W        W25958   3.168  17.313  12.264  0.0642  0.0174 -0.2788
12545W        W25959  12.392   3.014   5.199 -0.3301 -0.2445  0.0033
12546W        W25960  14.147  11.187  12.904 -0.0325 -0.0248 -0.1184
12547W        W25961  14.855  12.590   4.179  0.1295  0.2263  0.1168
12548W        W25962   7.617  10.409  10.366  0.1352  0.1105  0.0899
12549W        W25963   4.069   0.171   5.566  0.0658 -0.0401  0.4531
12550W        W25964   0.188  16.705   3.475 -0.0766 -0.0180  0.1025
12551W        W25965   5.132   2.151   5.682 -0.2567 -0.2560 -0.0877
12552W        W25966  17.984   6.155  11.863  0.0033  0.0697  0.1031
12553W        W25967  15.848  16.010   6.753 -0.0130 -0.0244  0.1179
12554W        W25968   1.988   6.565   2.734 -0.0094  0.0344 -0.3988
12555W        W25969  13.098   4.531   2.988  0.1635 -0.0129  0.0717
12556W        W25970   4.484   4.970  16.119 -0.2272  0.1935 -0.0666
12557W        W25971  14.489   6.765  15.873 -0.0580 -0.2080  0.1507
12558W        W25972   4.853   6.156  15.946  0.1537 -0.0793  0.3649
12559W        W25973   6.367  16.924  11.295 -0.2074 -0.2360 -0.0727
12560W        W25974  15.664  14.940   0.763  0.5460 -0.2196 -0.0051
12561W        W25975   9.525   8.138  10.899 -0.0900 -0.0416 -0.0710
12562W        W25976  17.272   0.956  10.848  0.2090 -0.1572  0.0057
12563W        W25977   3.458   7.664   1.874  0.0706  0.2940  0.0286
12564W        W25978   7.817  12.223   0.049  0.0415 -0.1995 -0.2693
12565W        W25979   6.043   6.271   4.616 -0.0430  0.1147  0.3098
12566W        W25980  13.580   2.705   4.496  0.1544  0.2242 -0.0521
12567W        W25981  18.184   7.793   3.399  0.2404  0.0078  0.3717
12568W        W25982  10.834  13.800   0.349 -0.1879  0.0254  0.0684
12569W        W25983   0.554  13.314  15.634  0.2442  0.1473  0.1151
12570W        W25984   9.678  17.054   0.630 -0.1931  0.1313  0.2135
12571W        W25985   9.095  13.708  13.817  0.0694  0.1874  0.1357
12572W        W25986   8.906   9.375  15.842  0.1304  0.0292  0.2666
12573W        W25987   8.870   6.240  15.680  0.0091 -0.0545 -0.2998
12574W        W25988   7.144   9.306  12.428 -0.0709  0.0476 -0.3820
12575W        W25989   4.047  15.947  12.487 -0.2480 -0.2100 -0.0478
12576W        W25990  15.817  14.255   0.278  0.3328  0.0209 -0.1049
12577W        W25991   2.307   9.804   2.073  0.1011 -0.0861 -0.1133
12578W        W25992  10.558  11.385  10.310  0.2632  0.1176  0.1686
12579W        W25993   7.587   4.130  11.725 -0.0471  0.2460  0.2946
12580W        W25994   5.189   1.796   0.660 -0.1259  0.1241  0.2731
12581W        W25995   3.015   1.766   5.363 -0.0131 -0.0582  0.0624
12582W        W25996  12.296   1.897  11.131 -0.0041  0.1127  0.0223
12583W        W25997   7.784   7.503  10.612 -0.0016 -0.0684 -0.0460
12584W        W25998   7.751  17.547  15.567 -0.0698 -0.0684  0.3043
12585W        W25999   7.302   2.317  11.820  0.2547 -0.0574 -0.1291
12586W        W26000   4.728   7.727  10.214  0.0973  0.3410  0.1620
12587W        W26001   9.264   0.116  15.829 -0.0478  0.2001 -0.3694
12588W        W26002  18.057   9.379  13.498  0.2020 -0.0274 -0.1467
12589W        W26003  15.984   9.600   2.548  0.0393  0.0261 -0.2295
12590W        W26004   0.901   7.498   3.408 -0.3298  0.0470  0.2480
12591W        W26005  12.293   5.128  11.785 -0.1707 -0.1581 -0.0560
12592W        W26006   2.677  12.651   4.157  0.1043  0.4074 -0.0497
12593W        W26007  15.586   4.521   3.147  0.6237 -0.1767  0.1510
12594W        W26008  18.293   6.637   2.919  0.1376 -0.2363  0.2615
12595W        W26009   9.946  16.180   5.812 -0.0880  0.0091 -0.0915
12596W        W26010   9.410   9.120   4.143  0.0484  0.1910  0.0229
12597W        W26011   2.313   2.295  12.762  0.0423  0.0272  0.3680
12598W        W26012  17.322   9.648  15.615  0.2288 -0.1184  0.0532
12599W        W26013  16.936   8.237  13.911 -0.0394  0.3298  0.0310
12600W        W26014  14.296   8.262   5.175 -0.2917 -0.1853  0.2306
12601W        W26015   0.242  14.908   1.819 -0.0551 -0.1268  0.0968
12602W        W26016   0.463   6.351  13.321  0.0566  0.0527  0.1396
12603W        W26017   8.593   8.718  14.487 -0.0334  0.2044 -0.1242
12604W        W26018   3.685  17.588  11.803 -0.0696  0.1503 -0.1838
12605W        W26019   2.642  17.894  16.064  0.1014 -0.2270  0.1127
12606W        W26020   7.059   4.241  15.763  0.1515 -0.2820 -0.0120
12607W        W26021   5.222  12.346  12.057 -0.2817 -0.2100 -0.0132
12608W        W26022   8.134   0.147   4.640 -0.0099 -0.0099 -0.1708
12609W        W26023   5.040  10.172  12.011  0.0574  0.4414  0.1128
12610W        W26024   7.345   4.999   1.321  0.3918 -0.2378  0.0036
12611W        W26025  12.979  10.486   0.694 -0.3623 -0.2172  0.1057
12612W        W26026   9.213   7.150  12.639 -0.1977  0.2426  0.1251
12613W        W26027  10.553   6.367   3.717  0.1311  0.3086 -0.3254
12614W        W26028   0.110   5.089  14.598  0.0512  0.2360  0.0086
12615W        W26029   5.730  18.288  15.058  0.0615  0.1919  0.0241
12616W        W26030  17.314  10.805   0.279 -0.0966  0.1599  0.3659
12617W        W26031  11.805  17.210  13.921 -0.1953 -0.2967 -0.0753
12618W        W26032  11.599  11.254  16.071  0.1660  0.0004 -0.0790
12619W        W26033   3.990  16.776   2.129  0.1007  0.0058 -0.0229
12620W        W26034   0.078   2.948   5.292  0.2159 -0.1545 -0.0855
12621W        W26035  14.120  10.942   0.963  0.2138  0.0297  0.2984
12622W        W26036   5.257  11.874  15.338  0.0490 -0.0307 -0.0371
12623W        W26037  16.749  17.683   1.068 -0.2823 -0.0920  0.1247
12624W        W26038  10.342  10.931   0.320  0.0119  0.1440 -0.0045
12625W        W26039  17.549  11.649  12.448  0.1236 -0.2531  0.2061
12626W        W26040  16.997  17.121   2.199  0.0549  0.0874  0.0237
12627W        W26041   2.455  14.479   4.018  0.1969 -0.1668  0.1248
12628W        W26042  12.452   5.154   1.687  0.1378  0.0035 -0.1309
12629W        W26043   8.296   2.782   1.846 -0.2112 -0.2825  0.2007
12630W        W26044   7.193  11.988   0.038  0.0579  0.0983  0.1702
12631W        W26045  12.234  12.535   1.992  0.0445  0.1948 -0.1719
12632W        W26046   8.862   4.301  12.975 -0.0401  0.3217 -0.0525
12633W        W26047   4.091   7.697   3.821 -0.1694  0.1102  0.3420
12634W        W26048   3.495  15.748   0.505 -0.0194 -0.0618 -0.1619
12635W        W26049  18.348   9.266  15.557  0.0838  0.0597 -0.1020
12636W        W26050   1.623  10.756  11.529  0.2067 -0.1740  0.0910
12637W        W26051   4.939  13.623  12.657 -0.3047  0.0730 -0.1688
12638W        W26052   3.468   9.000  15.427  0.1275 -0.0553 -0.0795
12639W        W26053  13.565  13.885   1.127 -0.2066 -0.1051  0.1942
12640W        W26054   1.997  13.376  12.835  0.1103  0.2271  0.1000
12641W        W26055  11.710   7.733   3.700 -0.1150  0.4179 -0.2693
12642W        W26056   5.704  11.410  15.977 -0.0803  0.3622 -0.2790
12643W        W26057   2.286   8.343  13.711  0.0220  0.1019  0.1688
12644W        W26058   1.702   5.887   4.855  0.5043  0.1098 -0.0406
12645W        W26059   9.898  10.311  15.755 -0.1288 -0.1162 -0.3269
12646W        W26060   6.976  16.729  12.645 -0.0604 -0.4321  0.1024
12647W        W26061   5.453  10.499   2.291  0.0613  0.2487  0.2455
12648W        W26062   3.736   1.230   0.922  0.0843  0.1108  0.0790
12649W        W26063   3.693   8.589  14.883 -0.0089 -0.0943 -0.2877
12650W        W26064  10.070   5.501   4.823 -0.0606  0.0349  0.2442
12651W        W26065   2.101  14.029   5.316  0.4011  0.1621  0.0543
12652W        W26066  11.306   7.368  10.914 -0.1328 -0.3445  0.0817
12653W        W26067   8.232   1.290   2.839  0.0068  0.1201  0.7708
12654W        W26068  15.390  13.839   2.146  0.2083  0.0151  0.2358
12655W        W26069   4.298  16.592   2.815 -0.1418  0.0224 -0.0726
12656W        W26070  16.380  13.443   4.028 -0.2428 -0.1718 -0.4993
12657W        W26071   1.405  13.651   2.433 -0.2074 -0.2091  0.2901
12658W        W26072   4.525   2.141  10.512 -0.0562 -0.1981 -0.1570
12659W        W26073  10.251   7.764  16.437 -0.2830  0.2910  0.0083
12660W        W26074  11.497   1.889   5.435  0.1073  0.1180  0.2017
12661W        W26075   3.745  11.323   4.246 -0.2948  0.0116 -0.1828
12662W        W26076  14.921   7.820  11.422 -0.0086 -0.2350  0.1037
12663W        W26077   1.431   9.450  10.128  0.4337  0.2109 -0.1716
12664W        W26078  15.684   6.837   1.598  0.0145 -0.4167  0.1085
12665W        W26079   7.252   7.577   4.785  0.0144 -0.1103 -0.0516
12666W        W26080   0.139  14.571   1.348 -0.2969 -0.0844 -0.2023
12667W        W26081   2.437   1.420  13.892 -0.1644  0.0658  0.0311
12668W        W26082  17.632   5.960  16.197 -0.0898  0.1899  0.0126
12669W        W26083  15.927   8.688  10.662  0.0154 -0.0198  0.2101
12670W        W26084   8.210   2.284   1.031 -0.1872  0.0167 -0.0285
12671W        W26085  15.000   2.274   2.896  0.2363  0.1362  0.0293
12672W        W26086   1.131  14.163   5.563  0.0993 -0.2744 -0.1926
12673W        W26087  16.909   9.215   2.757  0.0618 -0.1649 -0.3682
12674W        W26088   3.413   8.157   4.540 -0.2042  0.3800 -0.1505
12675W        W26089  14.555  12.524   3.199 -0.0834  0.2089 -0.2803
12676W        W26090   4.031  15.517  13.758 -0.2402  0.1137  0.4643
12677W        W26091   6.707   0.791   2.793  0.2146 -0.0731  0.0598
12678W        W26092   0.234  10.910   4.140  0.0407 -0.1150  0.0744
12679W        W26093   4.054  16.321  13.286 -0.0355  0.0750 -0.0393
12680W        W26094  12.551  11.036  14.878 -0.0604 -0.0403 -0.2022
12681W        W26095   3.413   2.292   3.387  0.0963 -0.3278 -0.1083
12682W        W26096   8.649  10.327  10.345 -0.2199 -0.3865  0.5073
12683W        W26097   7.730  14.804   3.655  0.2624 -0.1727 -0.1533
12684W        W26098  13.145   5.467   0.870  0.4804  0.3016  0.0487
12685W        W26099   2.923  18.041   5.203 -0.3161 -0.0531  0.2093
12686W        W26100   8.022   6.535  12.912  0.0596 -0.1182 -0.2330
12687W        W26101  15.614  17.764   4.031 -0.0656  0.0383  0.0397
12688W        W26102  11.176  12.200   6.480  0.0470  0.0344  0.2991
12689W        W26103   2.130   8.144  16.405 -0.0709 -0.0307  0.0101
12690W        W26104  12.873   9.750  12.966 -0.2166  0.1079 -0.1739
12691W        W26105  12.782  14.535  16.140  0.2147 -0.2012 -0.1237
12692W        W26106   2.586  16.884   6.351 -0.2862  0.0499  0.1111
12693W        W26107   0.445  18.058  10.966 -0.0016 -0.0108 -0.1445
12694W        W26108  15.810   9.740  12.329 -0.0360  0.2226  0.0498
12695W        W26109   0.698  11.171  12.288 -0.0968  0.0769 -0.1237
12696W        W26110  15.815  10.289   1.333 -0.3011 -0.1038 -0.0472
12697W        W26111  13.147  17.456  15.143  0.0728 -0.0556  0.3494
12698W        W26112  14.752  12.456   5.740 -0.1731  0.0611 -0.1044
12699W        W26113   5.488   4.318   4.395 -0.1758 -0.1419  0.1311
12700W        W26114  15.823   2.832   2.065  0.2833 -0.4217  0.1400
12701W        W26115   7.415   6.807   2.896 -0.2006  0.3647 -0.2003
12702W        W26116   9.034  13.828  14.356  0.0945 -0.0644  0.1783
12703W        W26117   1.722  16.628   2.440  0.0415  0.0301  0.0701
12704W        W26118   8.089   8.886   2.562  0.1572 -0.2236 -0.0672
12705W        W26119  17.067  11.301  14.232 -0.1572 -0.2505 -0.2904
12706W        W26120   1.231  12.639  15.947  0.0174 -0.0340  0.1198
12707W        W26121   4.848   0.976  11.485 -0.2650 -0.0641 -0.0178
12708W        W26122  10.850   4.104   0.652  0.0679 -0.0867 -0.5335
12709W        W26123   3.645  16.738   1.292  0.2253 -0.0702  0.0734
12710W        W26124  10.725   0.668   1.416 -0.0704 -0.1198  0.3186
12711W        W26125  16.856   7.573   3.545 -0.1359 -0.3251  0.1215
12712W        W26126   3.793   2.996  13.306  0.0634  0.1365  0.1337
12713W        W26127  18.033  15.798   3.055 -0.0312  0.0193  0.0488
12714W        W26128   6.476   5.638  15.818 -0.0689  0.0200  0.0033
12715W        W26129   1.996  13.606   0.186 -0.0212  0.1608  0.1071
12716W        W26130  11.643  17.719  12.697  0.1793 -0.2980 -0.0505
12717W        W26131   8.330   3.398   0.579 -0.1079  0.2562  0.0276
12718W        W26132   4.170  12.336   3.024  0.1302 -0.0295 -0.0726
12719W        W26133   5.310  15.688   0.526  0.1976  0.1047 -0.0129
12720W        W26134   0.784   8.489  15.375 -0.0430 -0.0276 -0.1650
12721W        W26135   7.047   1.521   1.654 -0.0205  0.1351 -0.0901
12722W        W26136   4.732   9.953   4.598 -0.1179  0.2470 -0.0895
12723W        W26137   1.758  17.439   5.185  0.0372  0.2147  0.1624
12724W        W26138   7.555  12.306   4.922  0.1201 -0.2969 -0.2656
12725W        W26139  17.415  13.164   6.495 -0.1435  0.0083  0.0744
12726W        W26140  16.936   7.816   5.133  0.0446  0.0955  0.0572
12727W        W26141  12.651   6.085   4.035  0.3364 -0.1249  0.0646
12728W        W26142   0.546  12.408  15.079 -0.1268  0.0588  0.2664
12729W        W26143   5.545   1.324   0.604 -0.0578 -0.5974  0.1155
12730W        W26144   4.656   6.257  15.448 -0.1274  0.1938  0.1278
12731W        W26145   7.676  17.959   2.814 -0.0426  0.0222 -0.1973
12732W        W26146   7.105  15.314  12.426 -0.1941  0.0448 -0.1938
12733W        W26147   4.364   9.541  10.355  0.1340  0.0832 -0.2253
12734W        W26148  16.242   4.825  10.434  0.2597 -0.0556  0.3307
12735W        W26149   3.214   1.368  15.579  0.1798 -0.0355  0.4233
12736W        W26150  17.597   7.281   0.257 -0.2577 -0.0464  0.1514
12737W        W26151  13.718   6.493  11.823  0.1828  0.0960  0.0339
12738W        W26152  16.513  18.285   3.217  0.0028 -0.0140  0.3647
12739W        W26153  17.734  13.654   4.040 -0.3278  0.1757 -0.1230
12740W        W26154  15.232  12.281   1.246  0.1665 -0.2200 -0.3357
12741W        W26155  10.055  17.245   4.340  0.4515 -0.1330 -0.0746
12742W        W26156  16.997  14.059   3.466  0.1746  0.0606 -0.3251
12743W        W26157   9.205   3.873   3.035 -0.0688  0.1191  0.3935
12744W        W26158   0.456   4.457  16.282  0.0726  0.3412 -0.2231
12745W        W26159   1.445   0.641   3.974 -0.1927  0.0943 -0.0058
12746W        W26160  11.386  15.601  11.952 -0.0135 -0.2234  0.0321
12747W        W26161  11.317   2.697  13.446  0.2530 -0.0978 -0.2199
12748W        W26162  10.422   6.776   2.533  0.3500 -0.1679 -0.1082
12749W        W26163  18.363  12.510   0.375  0.0231 -0.4345 -0.0866
12750W        W26164   2.107   4.601  11.131  0.2386  0.2318 -0.1046
12751W        W26165  13.465  11.045  16.454 -0.1780 -0.0956  0.3071
12752W        W26166  13.822  17.506   6.316  0.0545  0.0384 -0.0548
12753W        W26167  16.251   7.794   3.105 -0.2082  0.3375 -0.1703
12754W        W26168   6.858  15.332   1.915  0.2474 -0.0459  0.1099
12755W        W26169  14.421   5.917  14.625  0.1315  0.1302 -0.2466
12756W        W26170   5.974   2.577   2.577 -0.0559  0.1134 -0.0857
12757W        W26171   2.151   2.063   4.925 -0.0371 -0.2029  0.1986
12758W        W26172   9.286   6.209   1.431 -0.2130 -0.0064  0.1274
12759W        W26173   7.820  17.968  16.290 -0.2710  0.3421 -0.0256
12760W        W26174   7.946  16.992  11.155  0.0613 -0.1342 -0.0748
12761W        W26175   5.966  12.459  15.658  0.3162  0.2539  0.0015
12762W        W26176   4.452  17.625  15.068  0.0642  0.0700  0.1884
12763W        W26177   5.561  10.515  11.187 -0.2396 -0.0686 -0.0715
12764W        W26178   9.189   5.746   5.444 -0.0434 -0.1347  0.0490
12765W        W26179   3.584  13.947  15.918  0.1544 -0.1714 -0.1040
12766W        W26180   9.859   5.868  11.521  0.0405  0.0097  0.2447
12767W        W26181   9.477  16.862  14.032 -0.3201  0.1113 -0.0967
12768W        W26182   4.001   0.088   3.393 -0.0252  0.3426  0.1304
12769W        W26183   2.442   5.749  10.485  0.1758 -0.1436  0.0605
12770W        W26184  16.057  14.592  16.448  0.1753  0.0143 -0.1645
12771W        W26185  15.594   4.587  11.672 -0.0400  0.2642  0.2252
12772W        W26186  13.226  18.291   3.488  0.3576 -0.1228 -0.3227
12773W        W26187  16.018  10.888  13.267  0.0465 -0.2908  0.2158
12774W        W26188   9.347  16.581   1.663  0.0774  0.0464 -0.2301
12775W        W26189   1.383  17.275   5.943 -0.2788 -0.0109  0.1324
12776W        W26190  13.061   9.329  13.941  0.1271  0.0422  0.3263
12777W        W26191   4.144  10.510  16.158  0.1240 -0.2331 -0.1993
12778W        W26192  11.845  10.005   4.750 -0.2857 -0.0076 -0.0682
12779W        W26193  15.841   0.724   5.864  0.2592 -0.0264  0.0672
12780W        W26194   7.831   0.344  14.176 -0.0306  0.1895 -0.1438
12781W        W26195   5.642   5.648   3.394  0.1643 -0.2022 -0.2938
12782W        W26196  11.491   3.382  15.834 -0.2994  0.0369  0.0479
12783W        W26197  10.123  13.989  11.016  0.3448  0.0708 -0.2697
12784W        W26198   1.844   6.924  11.453  0.1906 -0.1163 -0.2046
12785W        W26199   1.101   9.565  13.582  0.1766  0.3408  0.2686
12786W        W26200   2.906  13.775   2.805  0.0899  0.1668  0.0128
12787W        W26201  13.134  14.911   3.501 -0.2401  0.1320  0.1846
12788W        W26202  17.443  17.710  12.410  0.0219  0.0823 -0.1195
12789W        W26203  13.267  14.583  12.897  0.0308 -0.2648  0.1012
12790W        W26204  13.774   6.078   5.494  0.0899 -0.1116 -0.1385
12791W        W26205   2.309   1.719  11.205 -0.1919  0.0748 -0.0430
12792W        W26206  13.382   7.295  11.269  0.0335 -0.1474 -0.0470
12793W        W26207   2.540   9.736  16.313  0.2153 -0.2457 -0.2050
12794W        W26208  14.637   6.446  13.856 -0.1546  0.3029  0.0470
12795W        W26209   2.872  18.254  13.959  0.1598 -0.1828 -0.0146
12796W        W26210   9.913  11.311  10.364  0.0586  0.0319 -0.1809
12797W        W26211  13.640  10.424   4.608  0.0338  0.0821  0.0438
12798W        W26212   9.265   9.491   4.492  0.1564  0.0498 -0.1379
12799W        W26213  10.509   5.044  15.531  0.1533  0.3198 -0.0259
12800W        W26214   7.240  12.833  14.122  0.1048  0.3605 -0.1459
12801W        W26215  12.494  10.432  11.625 -0.4289 -0.0376 -0.0944
12802W        W26216   8.350   2.578  12.792 -0.2380 -0.2322  0.1307
12803W        W26217   8.322  15.580  13.119  0.2233 -0.4262 -0.0202
12804W        W26218   9.030  14.515   1.477  0.1635  0.1980 -0.2143
12805W        W26219  16.104   2.824   4.556 -0.0120 -0.0221 -0.2731
12806W        W26220  10.305   4.495  16.189 -0.1639 -0.3256  0.1691
12807W        W26221  12.770   4.408   1.102  0.0818  0.3352  0.2760
12808W        W26222  14.146   7.033  13.214 -0.1124 -0.2694  0.0240
12809W        W26223   3.347  15.042   6.419  0.0926  0.0930  0.0874
12810W        W26224  11.006   1.519  15.374  0.0010 -0.1293  0.1606
12811W        W26225  10.198  12.635  13.920  0.3562 -0.2389  0.1062
12812W        W26226   7.823  15.272  14.676  0.0006  0.1207 -0.1404
12813W        W26227  12.600  13.071   5.941 -0.3673  0.1198 -0.2074
12814W        W26228   9.111   9.652   1.947  0.1830 -0.1104  0.4094
12815W        W26229  12.059  10.714  11.611 -0.2213 -0.2359  0.0651
12816W        W26230  16.404   2.894  12.854  0.1814 -0.1594 -0.5153
12817W        W26231  16.948   4.686   2.627  0.1461 -0.0994 -0.1536
12818W        W26232  11.081   2.829  12.601  0.0136 -0.1069 -0.4039
12819W        W26233  10.160   6.284   5.503 -0.3287 -0.3265 -0.5972
12820W        W26234   5.025  18.263   5.106 -0.1324 -0.0788  0.1056
12821W        W26235   7.851   4.380  13.438  0.0879 -0.3407  0.1032
12822W        W26236   4.111   4.914  16.465  0.3366  0.2655  0.1329
12823W        W26237   5.568   0.638   6.396 -0.0386  0.0792  0.2529
12824W        W26238  14.506  18.346   5.507 -0.2131  0.2162  0.2819
12825W        W26239  14.787  15.762   3.428  0.2330 -0.2441  0.0222
12826W        W26240  11.411   4.443  10.065 -0.1931  0.0532 -0.2721
12827W        W26241   2.914  15.120   5.140  0.2025 -0.1831 -0.2339
12828W        W26242   5.942  11.745   0.168 -0.3878  0.1644 -0.4234
12829W        W26243   3.063  16.315  12.478 -0.1982 -0.1704  0.1605
12830W        W26244  14.560   0.791  13.520 -0.0874  0.1326  0.0719
12831W        W26245  11.152  14.151   0.342  0.1512 -0.3596  0.2388
12832W        W26246   7.289   3.353   2.044  0.1664 -0.0811  0.0208
12833W        W26247   5.206   1.818   4.289  0.0812 -0.1468 -0.1510
12834W        W26248  14.133   2.988   1.578 -0.3937  0.1043 -0.0094
12835W        W26249  13.598   7.988   4.827 -0.2162 -0.1089  0.2241
12836W        W26250   6.811  12.402  12.815  0.0893  0.0830  0.3009
12837W        W26251  10.043  10.858  12.697 -0.0088 -0.2281  0.2889
12838W        W26252  12.001  15.301   0.805 -0.1604  0.2845  0.3513
12839W        W26253  13.209  12.809   2.515  0.0667  0.3975 -0.0433
12840W        W26254   7.739   1.542   1.735  0.1375 -0.2013  0.1058
12841W        W26255   8.100  17.114  10.473 -0.1578  0.2194 -0.3100
12842W        W26256   0.269   3.104  13.932  0.0436 -0.1561  0.0965
12843W        W26257  12.419   3.642   3.878 -0.3579  0.1401  0.0368
12844W        W26258  16.073   8.792   4.584  0.2490 -0.0171 -0.0754
12845W        W26259   5.064  12.317  15.136  0.0990 -0.0028 -0.0485
12846W        W26260  10.473   4.822   1.767  0.0702  0.1549  0.0384
12847W        W26261  15.550   0.088  11.405 -0.0461  0.0321  0.1141
12848W        W26262   5.888  11.693   1.354  0.1698 -0.0738 -0.0506
12849W        W26263  11.726   1.293   0.540 -0.3442  0.0384 -0.0404
12850W        W26264  17.563   2.826  12.845 -0.3055  0.1711 -0.0267
12851W        W26265  17.676  18.377   3.312 -0.0263 -0.0452 -0.0212
12852W        W26266   0.320   0.161   1.824 -0.1662  0.1298  0.1010
12853W        W26267   0.806  15.102   4.755  0.1368  0.4191  0.3056
12854W        W26268  16.221   8.640   0.205 -0.0530  0.5484  0.1338
12855W        W26269   6.902  17.348  16.166  0.0757 -0.1471  0.0894
12856W        W26270  16.464   1.139   3.423 -0.1277 -0.0386 -0.1992
12857W        W26271   3.533   6.703   3.026  0.0256 -0.1553  0.2743
12858W        W26272  12.017   1.881   0.065  0.1279  0.2293 -0.0517
12859W        W26273   7.787  17.962   5.381 -0.0442  0.0884  0.3288
12860W        W26274   0.963   4.431   3.970 -0.0608 -0.2187  0.0352
12861W        W26275   8.484  10.264   0.448  0.1919  0.3218  0.0012
12862W        W26276  14.234  12.503   0.134  0.1179 -0.0876 -0.5141
12863W        W26277  15.571   5.099  11.885  0.1175  0.0019  0.0509
12864W        W26278   6.579   1.185  12.656  0.1074 -0.1040  0.2645
12865W        W26279   8.906   7.946   3.589  0.2034  0.1210  0.1941
12866W        W26280   0.334   0.747  12.948  0.3323 -0.2548 -0.1799
12867W        W26281   8.268   7.251  10.868 -0.0402 -0.0946 -0.0033
12868W        W26282  14.775  17.731  13.259 -0.3453 -0.1103 -0.1001
12869W        W26283   1.697  10.311   0.153  0.0555 -0.0211 -0.1379
12870W        W26284  15.007   9.829   3.290  0.1244  0.2464  0.0531
12871W        W26285  11.026   2.125   0.075  0.1447  0.1721  0.1344
12872W        W26286  17.180   2.835  14.261 -0.2506  0.0643  0.4000
12873W        W26287  17.769  13.650   2.041  0.0019  0.1392 -0.2243
12874W        W26288  11.937   1.042   0.920  0.1767 -0.2270  0.3011
12875W        W26289   2.655  14.635  12.651  0.2576  0.0648 -0.1505
12876W        W26290  17.462  14.228  15.493  0.2207  0.1051 -0.0545
12877W        W26291  12.932   4.405  12.768 -0.1852  0.3020 -0.0275
12878W        W26292   1.294   0.041  12.515 -0.0477 -0.1490 -0.4180
12879W        W26293   7.781  13.203   1.733 -0.0008 -0.1228  0.1164
12880W        W26294  17.091  11.129   4.074 -0.2672  0.0688  0.1252
12881W        W26295   5.915  11.893   4.793  0.2724  0.1408 -0.1039
12882W        W26296  13.979   8.864   1.908  0.0329 -0.1104  0.1523
12883W        W26297  11.511   3.394   0.688 -0.2264  0.0054  0.0090
12884W        W26298  14.791  14.692   6.724  0.2373  0.2742 -0.1701
12885W        W26299  13.205   4.823   2.444 -0.0353  0.0656  0.1615
12886W        W26300   9.179   8.908  16.493 -0.0341 -0.3242 -0.2477
12887W        W26301   6.738   5.050   1.296 -0.0682 -0.1111 -0.2453
12888W        W26302  17.981  10.506   4.916 -0.0409  0.2242  0.0370
12889W        W26303  17.777   5.408  15.636 -0.5489 -0.0861 -0.0914
12890W        W26304  13.987  15.151   4.880  0.1627  0.3246  0.2853
12891W        W26305  17.085   4.226   3.382  0.2093  0.2848  0.3569
12892W        W26306   1.428  17.984  10.660 -0.0633  0.3206  0.1667
12893W        W26307  15.393   1.542  14.359  0.0817 -0.1063  0.1457
12894W        W26308   4.402  14.081  16.143  0.1024  0.2499  0.0453
12895W        W26309   6.716   8.765  14.069  0.0743  0.1108  0.2117
12896W        W26310  14.971  16.296  11.833  0.0103 -0.1560  0.1125
12897W        W26311   7.593  10.654   4.819 -0.0969  0.0733  0.0520
12898W        W26312  10.725  13.728  10.683 -0.1385 -0.0325  0.1424
12899W        W26313   3.343   9.808  15.228  0.3360 -0.1558  0.0577
12900W        W26314   9.655   9.010   0.081  0.0612 -0.3320 -0.2823
12901W        W26315   3.575   1.857   4.657  0.0817  0.4633 -0.1295
12902W        W26316  13.203   6.599  11.199  0.1975  0.0030 -0.1354
12903W        W26317   4.042  13.098   4.402  0.0814  0.2291  0.1665
12904W        W26318   2.899  12.826  14.826  0.0184 -0.0349 -0.1191
12905W        W26319  11.204  11.195   6.135 -0.0319 -0.0216 -0.1802
12906W        W26320   7.480  13.383   4.024 -0.0262 -0.3151  0.0474
12907W        W26321  10.024   0.324   2.152 -0.0801 -0.0975  0.0744
12908W        W26322   3.947   0.666  13.456  0.0400 -0.0894 -0.2114
12909W        W26323   6.839   8.688  13.126  0.2472  0.1757 -0.0606
12910W        W26324  14.863   3.376   4.921  0.0925 -0.1402  0.0070
12911W        W26325   9.109   2.099   1.568 -0.1482  0.1181 -0.2051
12912W        W26326   9.677  12.078   4.305 -0.0444 -0.0419  0.2976
12913W        W26327   0.856  14.236   0.349 -0.0245  0.1872  0.2233
12914W        W26328  12.198   4.441   0.794  0.2810 -0.1804  0.0424
12915W        W26329   7.990  12.104  11.220  0.2458  0.0641 -0.0839
12916W        W26330  18.349   4.523  13.757 -0.1785  0.0627  0.2951
12917W        W26331   3.849   0.755  14.249  0.2578 -0.0538 -0.0144
12918W        W26332   9.002   0.810   3.989 -0.1051  0.2801 -0.1554
12919W        W26333   1.248   8.496  15.779  0.1330 -0.1154  0.1216
12920W        W26334  14.951  17.892   2.300  0.1735 -0.1798 -0.2754
12921W        W26335   3.086   9.413   5.556  0.1661  0.1767 -0.1452
12922W        W26336  16.816  14.969   0.019  0.0594 -0.0479  0.5051
12923W        W26337   3.214  11.907  14.566  0.0787  0.2406  0.1037
12924W        W26338  15.588   9.328   5.767 -0.2773  0.2021 -0.3942
12925W        W26339   1.618   9.554  13.581  0.0957 -0.2091 -0.1347
12926W        W26340  10.245   8.188  13.852 -0.0254 -0.2013 -0.1033
12927W        W26341  15.527   2.503   5.385  0.1082  0.2886  0.0711
12928W        W26342   5.249  12.853   3.291 -0.0503 -0.1592 -0.1271
12929W        W26343   0.231  15.047  14.486  0.3512 -0.0791  0.1679
12930W        W26344   7.203  16.421  10.682  0.0989  0.0800 -0.1678
12931W        W26345  12.096   3.623   3.058  0.0900 -0.0070 -0.2498
12932W        W26346  15.818   4.913  15.767  0.0517 -0.2652  0.1133
12933W        W26347  17.725   9.927  15.212 -0.4034 -0.0585 -0.0124
12934W        W26348  13.257   8.125  15.908  0.0355  0.1980  0.0124
12935W        W26349   4.059  12.363  10.775  0.0438 -0.1337 -0.0237
12936W        W26350   9.882   1.238   3.173 -0.0979 -0.3011 -0.0895
12937W        W26351  11.975   6.872  10.251 -0.0044 -0.2107 -0.2020
12938W        W26352   6.971  14.042  14.872 -0.2084 -0.1503  0.0653
12939W        W26353   9.958   0.130   3.464 -0.4748  0.1761  0.2224
12940W        W26354   3.876   7.176   2.660 -0.0316 -0.3235 -0.1874
12941W        W26355   2.461   0.842   4.471 -0.2120  0.0975  0.3677
12942W        W26356  11.703   7.743   5.025  0.1699  0.1732  0.0712
12943W        W26357   4.300   9.189   4.221  0.1124  0.0360  0.1451
12944W        W26358   2.823  11.766  14.287  0.1150 -0.5588 -0.0448
12945W        W26359  17.769   1.645  12.359  0.0931 -0.1584  0.0989
12946W        W26360   5.128  16.329  11.938  0.3302 -0.0228  0.0866
12947W        W26361  15.485  17.501   5.208  0.0226  0.1591 -0.0691
12948W        W26362  13.653   3.497   2.258  0.1912  0.0787  0.2306
12949W        W26363   8.381   9.257  11.855  0.1457  0.0394  0.1605
12950W        W26364   1.344   8.416   0.060 -0.1705 -0.0425  0.0981
12951W        W26365  10.600   6.777   1.715 -0.2513  0.0574 -0.3700
12952W        W26366   6.008  17.163   4.119 -0.2599  0.5208 -0.0538
12953W        W26367  10.368   0.746   4.677 -0.1204  0.0718 -0.0304
12954W        W26368   5.206   6.367   3.300 -0.1038 -0.4266  0.0791
12955W        W26369  16.799  12.941   1.116 -0.0879  0.1413  0.1665
12956W        W26370   5.352   7.866  12.950 -0.2040  0.3057 -0.1427
12957W        W26371  11.488  13.747   3.584  0.0665  0.1721  0.2997
12958W        W26372  16.028   6.045   2.214 -0.1565  0.2169  0.1620
12959W        W26373  14.267   0.284  15.424 -0.1312  0.0423 -0.5001
12960W        W26374   3.021   9.995   3.431 -0.0190  0.2256 -0.0464
12961W        W26375   1.032  12.297  10.715  0.0546  0.1559 -0.1266
12962W        W26376  14.980  11.271   6.099  0.2798 -0.0052 -0.2097
12963W        W26377  13.768   1.237   5.153 -0.0293  0.0921 -0.0517
12964W        W26378   3.996   4.593  16.039 -0.1962  0.1610 -0.1841
12965W        W26379  15.091   3.978  13.813 -0.2411  0.0772 -0.2036
12966W        W26380  16.821  11.174  10.677  0.2955  0.0195  0.4013
12967W        W26381  15.259   1.735   0.513  0.0182 -0.1500  0.1240
12968W        W26382  14.974   4.311  15.164 -0.2864  0.0694 -0.2341
12969W        W26383   1.564   7.639  10.326 -0.1825  0.1139  0.0830
12970W        W26384  13.401  13.787  12.891 -0.0300 -0.0640 -0.1828
12971W        W26385   2.909  14.113   5.314  0.0816 -0.1073 -0.0904
12972W        W26386   1.978  14.812  10.948  0.1176 -0.2089 -0.1770
12973W        W26387  12.899  15.409  13.922 -0.0767 -0.1869 -0.1087
12974W        W26388   8.311   1.643  13.996 -0.0650  0.0547  0.0856
12975W        W26389  13.693   2.677  15.036 -0.1029 -0.0473 -0.0496
12976W        W26390  16.445  15.294  13.385 -0.1230 -0.0705 -0.0094
12977W        W26391   4.964   0.163  10.951 -0.0403  0.0287  0.1921
12978W        W26392   0.471   5.257  13.138 -0.0343 -0.0749 -0.4568
12979W        W26393   7.772   1.774   9.792  0.0681  0.4274  0.0725
12980W        W26394   0.435   2.776   3.528  0.1431 -0.3423 -0.0429
12981W        W26395   1.860  17.547  15.542 -0.2058  0.0553 -0.0606
12982W        W26396   2.730  16.489   1.550 -0.0378 -0.0532  0.1031
12983W        W26397   4.088   4.014   5.316  0.0479  0.0930  0.0322
12984W        W26398   3.293   5.128   1.897  0.0016 -0.1544  0.0673
12985W        W26399  13.868   0.975  12.996 -0.2715  0.0336  0.0141
12986W        W26400   1.428  10.368   3.829  0.4880 -0.1632  0.0012
12987W        W26401  13.985   4.872   2.534 -0.1093 -0.1232 -0.2698
12988W        W26402   0.357   6.224   3.715 -0.5399  0.3280  0.3277
12989W        W26403  15.031   8.173  11.854 -0.1367  0.0055 -0.0647
12990W        W26404   4.477   3.960   0.364 -0.0276 -0.0646  0.0816
12991W        W26405   1.700  17.224   2.588 -0.0525 -0.1590 -0.3037
12992W        W26406  14.678   3.481  14.599  0.1076 -0.1651 -0.1613
12993W        W26407   5.517   1.723   1.246 -0.1965  0.0809  0.1288
12994W        W26408  17.513  13.547  13.307 -0.1332  0.1619  0.0173
12995W        W26409   3.527   0.967  13.291 -0.0838 -0.2370 -0.2561
12996W        W26410   9.891   0.714   4.782  0.4140 -0.2784 -0.1951
12997W        W26411   0.159  14.220  13.384 -0.2289 -0.0780 -0.1214
12998W        W26412  17.529  12.647   0.637 -0.0467  0.1371  0.3989
12999W        W26413   3.477  11.348  15.259 -0.3255  0.1947  0.1824
13000W        W26414  13.211   2.376  11.451  0.0156  0.2532 -0.1008
13001W        W26415  10.244   6.513  16.059 -0.1502 -0.2468  0.0094
13002W        W26416  14.885  16.856   5.634 -0.4243  0.2239 -0.1895
13003W        W26417   8.865  17.754  12.501 -0.2563 -0.1621 -0.0604
13004W        W26418   5.391  16.697  10.938  0.2203 -0.3095  0.0864
13005W        W26419   3.395  12.561   4.088  0.0346 -0.3571  0.1839
13006W        W26420   0.170   7.101   4.698 -0.0522  0.0068  0.0497
13007W        W26421  13.652  10.180   5.400 -0.0412  0.0251 -0.1274
13008W        W26422   6.280   0.498   5.087  0.3756  0.0335 -0.0199
13009W        W26423  15.676  12.680   2.978 -0.1263  0.1490  0.1219
13010W        W26424  15.994   2.289   4.855  0.0011  0.2892  0.0209
13011W        W26425   2.702   9.279  11.667  0.1019  0.0643  0.2239
13012W        W26426   0.545   5.279   2.787  0.0610  0.3901  0.1030
13013W        W26427   7.819   5.098  11.863  0.1958 -0.0460  0.0313
13014W        W26428   9.653   5.232   4.974  0.1126  0.0918  0.1506
13015W        W26429  10.662  13.228   4.972 -0.0468 -0.1187 -0.4918
13016W        W26430   4.065   6.488   2.118  0.1363  0.2456  0.1715
13017W        W26431   5.621  17.546  12.327 -0.0343  0.0993  0.0239
13018W        W26432   7.234   5.959  14.455  0.2902  0.0179  0.3627
13019W        W26433  18.273   7.767   1.137 -0.0938  0.1278  0.1633
13020W        W26434   0.069   3.755   5.356 -0.0151 -0.3294  0.0628
13021W        W26435   9.818   9.871  10.404 -0.0304  0.0469 -0.1290
13022W        W26436  17.842  15.485  16.306 -0.3070  0.3219 -0.1390
13023W        W26437  16.176   1.392   5.627  0.1814  0.0710  0.1161
13024W        W26438   3.192  16.894   6.446  0.1568 -0.0565 -0.1698
13025W        W26439   2.574   8.167   1.919  0.1137 -0.1265  0.0949
13026W        W26440  13.218   0.864  13.757  0.0213  0.2334 -0.0323
13027W        W26441   9.494  18.379  12.958  0.1104  0.3943 -0.1279
13028W        W26442  10.897  10.352   3.427 -0.1234 -0.0764  0.1264
13029W        W26443  16.613   7.787   3.971 -0.0057 -0.1600 -0.0785
13030W        W26444  12.819  17.267  12.270 -0.2369  0.1631  0.1243
13031W        W26445   1.159   8.283  14.032 -0.3639  0.0256 -0.0491
13032W        W26446   7.099   4.099  12.611  0.2754  0.1206  0.0773
13033W        W26447  11.790   0.963  14.846  0.0196  0.0539  0.0380
13034W        W26448   4.153  15.730   3.024 -0.3035 -0.1447  0.0451
13035W        W26449   4.059   4.962  14.457  0.0285  0.2729  0.0478
13036W        W26450   8.731  10.430  11.145 -0.0667  0.0173 -0.1698
13037W        W26451  13.966   4.676   4.195  0.2837  0.2753 -0.0027
13038W        W26452  11.657  10.494  11.835 -0.2342 -0.0228  0.1189
13039W        W26453  16.920  13.960  15.983 -0.1015 -0.0306 -0.1729
13040W        W26454  16.175   5.059  14.654 -0.0674  0.1021 -0.2286
13041W        W26455  15.728  17.381  14.404  0.0905  0.4872  0.1041
13042W        W26456   6.541  10.776  15.911 -0.0478 -0.3459 -0.1833
13043W        W26457  11.929   5.338  16.182 -0.0091 -0.2067 -0.1960
13044W        W26458   1.839   2.407   0.561 -0.0616  0.0816  0.1663
13045W        W26459   7.753   7.004   1.866  0.0446  0.0244 -0.0726
13046W        W26460  14.877   7.511   5.289  0.0956  0.1489 -0.1451
13047W        W26461  12.182   7.503   3.649 -0.1545 -0.1339  0.0455
13048W        W26462   3.290  13.807  12.640  0.2517  0.0454 -0.1497
13049W        W26463   1.476   0.479  13.542 -0.3240 -0.0388 -0.0862
13050W        W26464  13.074  14.135  13.105 -0.0499  0.3306  0.2453
13051W        W26465  18.237  11.186   2.326  0.0578 -0.2403  0.1713
13052W        W26466  16.515  14.518   2.614  0.2578  0.1589 -0.1893
13053W        W26467   8.366  11.170   5.387 -0.1580 -0.2916  0.2192
13054W        W26468  11.061  14.190   2.828 -0.1362  0.1760  0.0089
13055W        W26469   8.739  16.067   4.235  0.0625 -0.1265 -0.1726
13056W        W26470  13.065   9.940  15.627 -0.0278 -0.1552  0.0909
13057W        W26471   2.798   1.068   4.203 -0.1642  0.1237  0.1179
13058W        W26472  14.828   8.757   3.913 -0.0872  0.1829  0.0357
13059W        W26473   9.683  16.647   0.270  0.2055 -0.0676  0.2075
13060W        W26474  17.647   3.385   4.378 -0.1242  0.1754 -0.2254
13061W        W26475  14.660   5.347  14.746  0.0101 -0.3529 -0.2392
13062W        W26476   2.128  16.203   0.548 -0.0907 -0.2774  0.1172
13063W        W26477  17.950   2.460  13.710 -0.0407  0.2879 -0.0023
13064W        W26478   7.561   4.501   5.305 -0.0133 -0.2395 -0.0508
13065W        W26479  14.439  13.116  14.735 -0.2887  0.1958 -0.5762
13066W        W26480   4.372   2.896  10.596 -0.0805 -0.0493 -0.1746
13067W        W26481   7.895  16.619   0.980 -0.1448 -0.0458  0.1475
13068W        W26482  12.837  10.108  11.393 -0.0185 -0.1322 -0.0454
13069W        W26483  17.915   3.442  13.278 -0.0692  0.2087  0.0557
13070W        W26484   5.060   9.261  15.596  0.0835 -0.0458 -0.1507
13071W        W26485   9.566   1.209   2.177  0.0138  0.1470 -0.2692
13072W        W26486   4.078   3.036   0.594 -0.3276 -0.2205  0.2553
13073W        W26487  14.220   5.074   0.171 -0.3151  0.1649 -0.2719
13074W        W26488   4.787   2.979   5.538  0.2401  0.2041 -0.1057
13075W        W26489   2.833   6.017  10.022 -0.0223 -0.2404  0.1466
13076W        W26490  12.729   5.646  15.957 -0.0813 -0.3842  0.1733
13077W        W26491   3.737   2.186   0.257  0.2383  0.0370  0.4436
13078W        W26492  10.886   5.391   3.414 -0.0624 -0.0602 -0.2401
13079W        W26493   6.396   0.012  15.751  0.1626 -0.0857 -0.2308
13080W        W26494   5.590   3.596   5.319  0.0023 -0.2585  0.0600
13081W        W26495   3.051   5.566   5.545  0.0157 -0.1564 -0.3756
13082W        W26496   9.152   1.302   3.921  0.1230 -0.2475  0.0191
13083W        W26497   6.356   0.731   2.030 -0.1326  0.1972  0.2542
13084W        W26498   6.371  12.706   4.229 -0.3300  0.1134  0.3021
13085W        W26499   5.785   0.274  13.785  0.0588 -0.2566 -0.2410
13086W        W26500  12.378   2.433  11.749  0.1738  0.0655  0.0074
13087W        W26501  13.516   3.029   1.979  0.1039 -0.0693 -0.0108
13088W        W26502   1.307  16.134  14.391  0.3099 -0.0536  0.3859
13089W        W26503   5.586   3.005   1.749 -0.0230  0.2328  0.0604
13090W        W26504   5.159   7.456  15.757 -0.1477 -0.2205  0.2637
13091W        W26505  15.934   7.027   3.388  0.0271  0.2059 -0.0251
13092W        W26506   4.399   7.225  10.971 -0.3079  0.1612 -0.2791
13093W        W26507   6.753  17.127   2.795  0.0943  0.0008  0.2464
13094W        W26508   3.458   9.890  16.095  0.1852  0.1759  0.2415
13095W        W26509  15.934   5.180   4.214  0.0648  0.1874  0.0291
13096W        W26510   9.062  15.107   6.161 -0.2029  0.0831  0.1931
13097W        W26511  12.956   1.453   0.468 -0.3294  0.0032  0.2544
13098W        W26512   4.533  10.318  13.440 -0.2187  0.0838 -0.3452
13099W        W26513   9.652  12.083   0.897 -0.4045  0.2345 -0.3121
13100W        W26514  15.387  13.068   3.223  0.0023  0.0476 -0.0297
13101W        W26515  14.277  11.650   6.706 -0.2268 -0.4149  0.0656
13102W        W26516   5.858  16.829  13.290 -0.0792  0.1597  0.2260
13103W        W26517  13.334   1.573   3.042 -0.1315  0.1080  0.2837
13104W        W26518  15.391  14.830  11.654 -0.2249 -0.1673  0.0821
13105W        W26519   4.987   2.126   0.380  0.1002 -0.2016 -0.0491
13106W        W26520   2.023  16.713   5.572 -0.0242  0.0808 -0.1176
13107W        W26521   5.440  12.011   3.976 -0.0816 -0.1780  0.1157
13108W        W26522  11.041   1.577   3.830 -0.0459 -0.4116 -0.0579
13109W        W26523  10.338  17.713   3.190  0.1816 -0.1219  0.1105
13110W        W26524   9.466   5.816   1.273  0.1487  0.3169 -0.2394
13111W        W26525   0.056   6.467   9.791  0.0228 -0.0296 -0.2161
13112W        W26526   8.803   9.587   0.256 -0.0789  0.2862  0.1243
13113W        W26527  11.581  15.330   1.151 -0.0729  0.3159 -0.1241
13114W        W26528   7.485  15.169   2.768  0.0215 -0.1038  0.1913
13115W        W26529   5.690  12.933   6.594 -0.1756  0.0465  0.1687
13116W        W26530   5.581  11.401   0.330  0.0475 -0.1350  0.1994
13117W        W26531   1.388   8.496   3.213  0.0201  0.0351 -0.2486
13118W        W26532   4.064   0.144  12.350  0.1211 -0.0116 -0.1130
13119W        W26533  17.610  14.438  12.194 -0.1419 -0.0934  0.2001
13120W        W26534   6.500  13.410  14.117  0.1356 -0.0168 -0.2203
13121W        W26535   3.937   9.272   5.454  0.1346 -0.4443  0.0225
13122W        W26536  10.491  10.282   3.712  0.0292 -0.2198  0.0031
13123W        W26537   0.110   2.980   4.721  0.0328 -0.1933 -0.2526
13124W        W26538  16.367  15.973   4.839 -0.2085 -0.1102  0.0575
13125W        W26539  12.049   4.375  12.491 -0.0291 -0.2115 -0.3003
13126W        W26540  11.825   9.376  12.004 -0.1710 -0.1742  0.0913
13127W        W26541   1.158  13.674  16.162 -0.3360 -0.0949 -0.0852
13128W        W26542  16.781   3.476  16.005  0.0258  0.1071 -0.0647
13129W        W26543  16.076   6.631  10.251  0.0716 -0.0955 -0.0744
13130W        W26544  10.815   6.433   2.404  0.1394 -0.3363  0.0739
13131W        W26545  10.419   3.846  11.650 -0.2549  0.0466 -0.1911
13132W        W26546  10.800   6.596  16.097 -0.1195 -0.0559  0.0169
13133W        W26547   2.670   7.105  10.890  0.2507 -0.1844  0.0443
13134W        W26548   9.173   4.942  11.043  0.1596 -0.1608 -0.1057
13135W        W26549  15.206   5.058   9.948 -0.0624  0.0598  0.2428
13136W        W26550   5.589  18.069  11.638 -0.0486  0.0359 -0.0454
13137W        W26551   0.061   3.198   3.353  0.1132 -0.2271  0.1242
13138W        W26552  15.063  12.441   0.806  0.0271 -0.1447  0.0605
13139W        W26553   1.564  13.302  16.176  0.0927  0.1606  0.1100
13140W        W26554   4.145  13.335   3.150  0.0529  0.0723 -0.0952
13141W        W26555   0.137  14.613  13.733  0.0826  0.0371  0.0639
13142W        W26556   0.106  16.090  15.740 -0.1777 -0.0811 -0.2277
13143W        W26557   8.433  16.958  15.027 -0.3076  0.4733 -0.1295
13144W        W26558  17.818  14.617   5.159 -0.2477  0.1302  0.3531
13145W        W26559   4.202   5.165  10.825 -0.4219 -0.1190  0.1219
13146W        W26560  12.284  14.642  13.375  0.1548  0.0105 -0.2717
13147W        W26561   9.723  12.046  14.696 -0.1766  0.2937 -0.2118
13148W        W26562   3.915   8.848   2.938  0.0678  0.0905  0.0467
13149W        W26563   2.531   6.140  11.837  0.0323 -0.1804  0.0636
13150W        W26564  10.930   0.498  10.894  0.3556 -0.4478  0.2302
13151W        W26565  10.501   4.612   3.193  0.1663  0.0580 -0.0822
13152W        W26566   7.723   6.655  14.213 -0.0492  0.2902 -0.0204
13153W        W26567   2.637  14.787  13.437  0.0698 -0.0848  0.0791
13154W        W26568  14.325  15.770  13.570 -0.1786 -0.1743 -0.1821
13155W        W26569  11.481  14.815  11.266  0.1412  0.0242 -0.0630
13156W        W26570   2.872  14.722   6.141  0.0776 -0.0955 -0.2604
13157W        W26571   8.656   2.061   1.246 -0.0518  0.2194 -0.2967
13158W        W26572  11.558   5.264  15.859 -0.1215 -0.2430 -0.0952
13159W        W26573  16.175  12.222  13.708  0.1513 -0.0811  0.0355
13160W        W26574  12.168  15.304   2.392 -0.0601 -0.2838 -0.1648
13161W        W26575   6.589   6.301   4.267  0.3346  0.0528  0.0751
13162W        W26576   0.733  11.000   4.214  0.1770 -0.1456 -0.1184
13163W        W26577  15.101   1.799   2.938  0.1268  0.0983 -0.0182
13164W        W26578   1.764   1.495  11.219 -0.4037  0.0886 -0.1891
13165W        W26579   0.829  15.149   3.983 -0.1798  0.0426 -0.1148
13166W        W26580   1.441  11.684   3.140 -0.0557 -0.0201  0.2021
13167W        W26581   6.771   7.977  15.801  0.0224 -0.1904 -0.0507
13168W        W26582  12.494  13.189   1.282 -0.3610 -0.0812 -0.2573
13169W        W26583  11.207  17.718   5.551  0.0087  0.1288 -0.0121
13170W        W26584   1.329   7.031  12.426  0.0636 -0.0923 -0.0684
13171W        W26585   1.737   6.779   5.236 -0.2540 -0.0305 -0.4688
13172W        W26586   6.376   5.344   1.559 -0.2818 -0.0594 -0.3052
13173W        W26587   9.917  10.396  14.083 -0.0018 -0.2951  0.0394
13174W        W26588   4.622   5.435  10.351  0.0493 -0.3424  0.0207
13175W        W26589  10.239  10.787  13.964  0.0459  0.3219  0.2139
13176W        W26590   4.637  12.185   5.218  0.0855  0.3980 -0.0131
13177W        W26591  12.192   3.239   1.265 -0.1335  0.1010 -0.1333
13178W        W26592   9.677   0.276   4.908 -0.0299  0.2785 -0.1261
13179W        W26593  13.326   5.657  14.158  0.2561  0.3011  0.1286
13180W        W26594   4.345  10.846  10.725  0.0223  0.0355 -0.0575
13181W        W26595  16.687   0.757  13.950  0.4642 -0.0264  0.0983
13182W        W26596  14.664   8.807  15.260  0.0825 -0.1066  0.0536
13183W        W26597  15.390   9.441   3.359 -0.3076 -0.1698 -0.1072
13184W        W26598   9.548   2.379   1.009  0.2517  0.1584  0.0963
13185W        W26599   7.687   1.616   0.628  0.1066 -0.1385 -0.1090
13186W        W26600  14.284   2.111  11.482  0.1471  0.2196 -0.2687
13187W        W26601  14.800  14.116   5.580  0.2312  0.1390 -0.5038
13188W        W26602  13.691   4.443  11.678 -0.0104  0.0654  0.2495
13189W        W26603   7.577  14.305  13.498 -0.1284 -0.1594  0.0864
13190W        W26604  16.282  16.747  14.831 -0.1105 -0.0832  0.1182
13191W        W26605   4.690   3.422  15.724  0.3024 -0.1801 -0.0396
13192W        W26606   1.439   9.538  10.698 -0.0181 -0.0764 -0.0960
13193W        W26607  11.085  14.124   1.687 -0.0135 -0.1818 -0.3397
13194W        W26608   1.690   3.193   5.769 -0.1850 -0.0110  0.1508
13195W        W26609   9.773   6.698  13.205 -0.1173  0.0342 -0.1219
13196W        W26610   2.674  16.106  14.728  0.0558 -0.2505 -0.3167
13197W        W26611   7.959   8.144   3.241 -0.2789  0.6996  0.1389
13198W        W26612  13.054  16.026  12.878 -0.2526 -0.0553 -0.1544
13199W        W26613  11.354  16.862   2.087 -0.1093  0.1222 -0.2442
13200W        W26614  17.438  10.831  15.857 -0.0323 -0.0996 -0.1577
13201W        W26615  12.064   9.422   4.321 -0.1221 -0.0398 -0.2808
13202W        W26616   9.868   2.427   0.039 -0.0368 -0.1317  0.0421
13203W        W26617  13.610  14.744  10.485 -0.3121 -0.1581 -0.1476
13204W        W26618  14.831   9.708  14.052  0.0429 -0.0657  0.1309
13205W        W26619   3.930   0.941  16.059 -0.5240 -0.1447 -0.1340
13206W        W26620  13.323   3.709  13.267 -0.2591 -0.0681 -0.4596
13207W        W26621  10.284  12.266  12.445 -0.0964 -0.1628 -0.0126
13208W        W26622   0.515   7.234  10.981 -0.1392 -0.0668  0.2352
13209W        W26623  17.952  10.172   1.206  0.1153  0.0184  0.2299
13210W        W26624   9.928  14.966  14.736  0.1867  0.2256  0.1833
13211W        W26625  13.836   7.359  11.632  0.4810  0.0325  0.1349
13212W        W26626   3.001   8.708  14.291  0.0470 -0.2165 -0.0338
13213W        W26627   8.060  13.620   6.124  0.1946  0.0489 -0.3165
13214W        W26628  17.044  16.051  16.462  0.0925 -0.0592 -0.1764
13215W        W26629  14.436  16.918  11.216 -0.4202  0.2118 -0.2294
13216W        W26630   7.855   4.828   0.095  0.1518 -0.0587  0.4084
13217W        W26631   5.943  11.346  12.937 -0.0017  0.1198  0.1270
13218W        W26632   1.120   0.833  11.641  0.1561  0.0369 -0.3021
13219W        W26633   4.990  17.971   5.630 -0.3978  0.0220 -0.4277
13220W        W26634   5.134  17.470   3.439  0.0268  0.0236  0.2002
13221W        W26635   9.593   4.647  11.136  0.3231 -0.0064 -0.2693
13222W        W26636  10.263   4.529   0.858  0.2834 -0.1091  0.2071
13223W        W26637   3.586   2.912   6.004  0.2998 -0.0914  0.3152
13224W        W26638   8.187   7.244   1.926  0.1437 -0.0432 -0.0768
13225W        W26639  15.427  10.648   3.086 -0.1290 -0.4258  0.2072
13226W        W26640  13.607   0.101   0.536  0.0102  0.1229 -0.0031
13227W        W26641   3.736  14.974  11.372 -0.1635 -0.2918 -0.1016
13228W        W26642   1.486   1.128  14.014 -0.4890  0.4558  0.0479
13229W        W26643   7.742   9.667  15.879  0.1868 -0.3140 -0.2171
13230W        W26644   3.422  16.424   2.051  0.3159 -0.0129  0.4174
13231W        W26645  15.699   0.995  13.666  0.0824 -0.1994 -0.1591
13232W        W26646   2.783  18.319  12.515 -0.3282 -0.0610  0.1061
13233W        W26647  17.669  13.573   0.676  0.2935  0.0092 -0.1585
13234W        W26648   6.869  14.251  15.781  0.2472  0.3162  0.0134
13235W        W26649   3.019  15.009   3.383  0.5779 -0.1790  0.0908
13236W        W26650   4.302  13.601  16.446  0.6313  0.0420 -0.0961
13237W        W26651  17.896  17.267  14.703  0.0992 -0.0173 -0.0127
13238W        W26652  11.889  14.561   3.584 -0.2535  0.1040 -0.2201
13239W        W26653  11.420   8.110   2.802 -0.6394 -0.2765  0.2252
13240W        W26654  17.504  14.809   3.209  0.3511 -0.0651  0.1644
13241W        W26655   6.507  16.830  15.683 -0.1776 -0.3454 -0.0807
13242W        W26656  16.726   6.609   4.639  0.3399  0.0050  0.4745
13243W        W26657   0.378   9.015   4.813 -0.1783  0.0966 -0.0259
13244W        W26658   6.086   2.259   3.431 -0.1278 -0.0902  0.2649
13245W        W26659   3.899  15.295  14.783 -0.2813 -0.1136 -0.0129
13246W        W26660  11.718  14.440  10.341 -0.2250 -0.0528 -0.0183
13247W        W26661  10.193  14.783  15.128  0.3318 -0.2030 -0.0097
13248W        W26662   1.535   9.869  15.428  0.0494  0.1070 -0.2092
13249W        W26663   8.494  10.613  14.654 -0.0229 -0.1831 -0.2475
13250W        W26664   3.476  11.028  10.532  0.0958 -0.0879 -0.2191
13251W        W26665  15.985  10.274  14.625  0.0271 -0.2641  0.3112
13252W        W26666  11.156   8.953  13.548 -0.1697 -0.2090 -0.3712
13253W        W26667   0.243   8.685   0.072  0.1064  0.3532 -0.0083
13254W        W26668   5.639   4.832  10.697  0.0017 -0.1071  0.1797
13255W        W26669  11.963   3.917   1.979  0.2569 -0.0547  0.0598
13256W        W26670   8.452  13.543   2.431  0.0233  0.2458 -0.2130
13257W        W26671   9.100   5.959   1.873 -0.3100 -0.0331 -0.1133
13258W        W26672   6.270  13.497  10.985  0.1371 -0.2238  0.1931
13259W        W26673   9.075  15.298   2.165 -0.0460  0.0769  0.4065
13260W        W26674   3.566   3.378  15.774  0.0117 -0.2570  0.1419
13261W        W26675   0.668   6.293  15.073  0.1297 -0.1529  0.0932
13262W        W26676  16.352   1.090  15.532  0.1590  0.1510  0.0918
13263W        W26677   8.378   9.640  12.351  0.0714  0.0377 -0.1072
13264W        W26678  17.236   6.979  13.672  0.1544 -0.0923 -0.1242
13265W        W26679  11.578   0.079  14.774 -0.0506 -0.2872  0.1836
13266W        W26680   1.579  13.785  15.285 -0.1097  0.1494  0.3818
13267W        W26681  12.807   5.035   2.130  0.1523 -0.0726 -0.1984
13268W        W26682   2.826  11.928   2.021  0.0793 -0.0309 -0.1879
13269W        W26683   9.025   0.949  11.789 -0.0881 -0.0815  0.2751
13270W        W26684   7.380  15.273  16.351 -0.1916 -0.1526  0.1705
13271W        W26685   9.936   1.594   1.032  0.1613 -0.1909  0.3105
13272W        W26686  14.833   1.601  14.193  0.1031 -0.1291  0.1080
13273W        W26687  15.897   3.437  10.613  0.4258 -0.0571 -0.0105
13274W        W26688   7.622   4.779  11.530  0.0964  0.3085 -0.0049
13275W        W26689  11.711  11.876   5.039 -0.0520  0.1244  0.3088
13276W        W26690   7.177   7.071  13.182  0.2614  0.2871 -0.0472
13277W        W26691  10.979   0.986   0.413  0.1059  0.0581 -0.0608
13278W        W26692  13.571  13.323   0.639 -0.1003 -0.1272 -0.0464
13279W        W26693   9.800  16.588   3.244 -0.0654  0.2682  0.2058
13280W        W26694   5.256   4.469   3.013  0.0250 -0.1013  0.3200
13281W        W26695  12.328  11.327   6.068 -0.2604  0.1761 -0.1133
13282W        W26696   6.414  12.176  11.120 -0.0528  0.0600 -0.0220
13283W        W26697   0.483   3.052   3.021  0.1839 -0.0897  0.0684
13284W        W26698   1.786  14.334  15.242  0.1475  0.0275 -0.0880
13285W        W26699  14.763   9.799   2.128 -0.0678 -0.2133  0.2628
13286W        W26700  10.392   5.399   4.387 -0.2309  0.0682  0.1245
13287W        W26701   7.347  14.593  14.347  0.1351  0.0433  0.4263
13288W        W26702  12.935  18.167  14.815 -0.1274  0.1290  0.0594
13289W        W26703   5.972  15.597  14.610  0.0804  0.0607 -0.1512
13290W        W26704   0.485   2.254  15.072 -0.0810  0.1773  0.1570
13291W        W26705  10.892  15.864   1.803 -0.0903 -0.1302 -0.1127
13292W        W26706  17.311  13.739  15.281 -0.2517 -0.3443 -0.0418
13293W        W26707   9.619  12.330  15.119  0.0165 -0.4015  0.0021
13294W        W26708   3.795   3.781   1.122 -0.2478 -0.2042 -0.0901
13295W        W26709   9.661  17.040   2.714  0.0052 -0.1076  0.1637
13296W        W26710   5.889   7.720  16.283  0.0028 -0.2082 -0.0455
13297W        W26711   3.720   1.405  14.667 -0.0903  0.2110 -0.0213
13298W        W26712   8.788   0.277  15.246  0.2164 -0.0812  0.0367
13299W        W26713   7.252   4.112   3.308  0.2332  0.3355 -0.3880
13300W        W26714  14.728   9.233  10.344 -0.0630 -0.3602 -0.0679
13301W        W26715   4.011  16.705   0.498  0.1377  0.1554 -0.0283
13302W        W26716  15.865  14.699  12.023 -0.1097  0.1503  0.0649
13303W        W26717   7.802  11.823   4.062 -0.1120  0.1476  0.2639
13304W        W26718   5.053   6.475   0.642 -0.2070  0.0473 -0.0156
13305W        W26719  16.363   8.003  11.492  0.0772  0.0301 -0.0078
13306W        W26720   1.635   2.401  15.471  0.2752  0.2379 -0.1796
13307W        W26721   8.975  11.365  12.676  0.3692  0.2151 -0.3007
13308W        W26722  13.333  15.694  15.876  0.1098 -0.0184  0.4102
13309W        W26723   6.292   1.927  16.495  0.0363  0.0375 -0.0496
13310W        W26724  15.888   0.950  13.209 -0.0588 -0.0333 -0.1170
13311W        W26725   8.933   5.582  10.325 -0.1510  0.5859  0.0935
13312W        W26726   8.868   0.993   2.203  0.4269 -0.0034 -0.1526
13313W        W26727  13.446  12.993  11.272 -0.0123 -0.3251 -0.0754
13314W        W26728  10.630   6.159   0.335  0.0862  0.0836 -0.1254
13315W        W26729   0.976  15.901  16.224 -0.0588  0.3340 -0.1310
13316W        W26730   0.672   8.535  16.258 -0.2155  0.1715 -0.1985
13317W        W26731   2.045   4.728   2.054  0.1083  0.2136  0.0092
13318W        W26732   7.624   0.233   3.920 -0.2028 -0.4448 -0.2474
13319W        W26733   9.163  11.727   5.898  0.1152 -0.1382 -0.1625
13320W        W26734   4.306  14.994  15.314 -0.6680 -0.0393 -0.0353
13321W        W26735  17.083   0.772  15.308  0.2031  0.0382  0.0992
13322W        W26736   6.585   9.144  13.350  0.1066 -0.0511  0.0595
13323W        W26737   2.239  10.010  11.014 -0.4506 -0.2164  0.4472
13324W        W26738   7.703   6.780  15.727  0.0743 -0.1281  0.1866
13325W        W26739  14.885   6.258   2.780  0.2705 -0.1328  0.2056
13326W        W26740  12.041   1.749  14.967 -0.0480 -0.1494 -0.1909
13327W        W26741  14.774  11.999  14.396  0.1131 -0.0998 -0.1828
13328W        W26742   5.107   8.384   1.062  0.0585 -0.2612  0.2970
13329W        W26743  11.174   4.772   5.676 -0.1025  0.1898  0.1283
13330W        W26744   3.200   7.125  14.723  0.0287  0.0121 -0.0020
13331W        W26745  16.632  14.125   5.749 -0.1528 -0.3552 -0.4070
13332W        W26746  16.938   2.399  14.328  0.0313  0.0096  0.2115
13333W        W26747   4.497  13.572  12.912  0.0155  0.3230  0.2230
13334W        W26748   4.058  16.217  15.134  0.1205  0.0542  0.1854
13335W        W26749   8.805   1.533  14.297  0.0488  0.2335 -0.0226
13336W        W26750  15.752  11.892   2.184 -0.3613 -0.0205  0.0416
13337W        W26751   3.050   8.577  11.710  0.1213  0.2015  0.0533
13338W        W26752   8.571  13.088   1.922  0.0376 -0.1184  0.0391
13339W        W26753   9.788  17.188  14.663  0.0962 -0.3521  0.1083
13340W        W26754  12.743   3.830  15.432  0.3066  0.0849 -0.0627
13341W        W26755   4.126  11.248   3.132  0.0102  0.0008  0.0311
13342W        W26756   8.121  17.694   2.788  0.1454  0.1127  0.0199
13343W        W26757  14.421  18.359  13.797  0.0537 -0.1964  0.2477
13344W        W26758  17.603  10.850  10.058 -0.0049 -0.1699  0.2111
13345W        W26759   8.960  14.947  10.205  0.0222  0.0064  0.1062
13346W        W26760   8.817   1.577   4.604  0.1588  0.2237 -0.0980
13347W        W26761  15.817  10.561  11.468 -0.0170  0.0202 -0.2874
13348W        W26762  14.364  10.204   5.704 -0.1169  0.2564  0.2293
13349W        W26763   6.300  17.225   1.404 -0.0082  0.1725 -0.0395
13350W        W26764  13.653   5.501  14.500  0.0321  0.0740 -0.0012
13351W        W26765  14.924  12.039  15.910 -0.1889 -0.0951 -0.3423
13352W        W26766  10.917   5.165   5.191  0.0346  0.0036 -0.0593
13353W        W26767  15.774   0.803   2.241  0.0029 -0.1588 -0.0168
13354W        W26768   4.081   5.982   4.993  0.1706  0.0676 -0.0375
13355W        W26769   9.015   4.844   0.749 -0.0859 -0.1096 -0.0921
13356W        W26770  17.186   7.105  10.684 -0.2545  0.1153  0.2032
13357W        W26771  12.113  14.229   0.219  0.2810 -0.2967 -0.2258
13358W        W26772   1.618   9.958  12.565 -0.4071  0.1909 -0.0676
13359W        W26773   7.710   1.165  16.329  0.0888 -0.0184 -0.1567
13360W        W26774   6.711  13.467  12.560  0.0698  0.2471 -0.3372
13361W        W26775   4.440   9.837  11.711 -0.0557  0.0770  0.0950
13362W        W26776  13.002  14.844   6.193  0.0526  0.1180  0.1931
13363W        W26777   2.813   5.027  12.615  0.1018  0.2536 -0.2167
13364W        W26778   3.523   9.258   1.601 -0.0215  0.1541 -0.1597
13365W        W26779  10.756   7.267   3.604 -0.0834 -0.1740 -0.0182
13366W        W26780  14.535  12.250   5.270 -0.1035 -0.2431 -0.1821
13367W        W26781   8.153  15.428  10.584 -0.1920 -0.3052  0.0777
13368W        W26782   0.606  11.991   3.340  0.0245  0.0588 -0.1995
13369W        W26783   2.087  18.191   4.126  0.0941  0.3745 -0.0912
13370W        W26784   8.963   7.327  15.863 -0.2140 -0.0130 -0.1004
13371W        W26785   0.852  17.846   2.342 -0.3310  0.1327 -0.2067
13372W        W26786   8.752  15.709   3.003  0.1993 -0.1975 -0.1435
13373W        W26787   7.499   6.249  15.707  0.0118  0.1515 -0.2776
13374W        W26788  13.860   8.571  16.508  0.0274  0.1673  0.1744
13375W        W26789   8.952   0.390   0.198  0.1233 -0.2847  0.0989
13376W        W26790   9.352   2.138  15.372 -0.1170  0.2552 -0.1751
13377W        W26791   7.426   0.694   2.504  0.0295  0.0515  0.4335
13378W        W26792  17.596  13.481  13.899  0.1971  0.1649 -0.0598
13379W        W26793   8.090  14.931  11.446 -0.1665  0.1401  0.2489
13380W        W26794  11.372   6.194   0.247 -0.1433  0.1724  0.1956
13381W        W26795   7.718  18.078   0.723 -0.0193  0.0093  0.3191
13382W        W26796  16.336  15.356   4.072  0.0937 -0.1581  0.2279
13383W        W26797  16.811   4.231   1.775  0.1291 -0.1808  0.1535
13384W        W26798  12.143   0.641   5.571  0.1432 -0.1008 -0.0298
13385W        W26799  12.766  14.782  10.682 -0.1124 -0.3322 -0.0022
13386W        W26800  16.269  17.753   6.404 -0.0335  0.2190 -0.1154
13387W        W26801   6.450  15.752   3.444 -0.0124  0.1772 -0.1599
13388W        W26802   9.881  14.264  13.994  0.1569 -0.2029  0.0971
13389W        W26803   8.572  13.669  10.100  0.0304  0.0012  0.1877
13390W        W26804  10.960   8.190  16.287  0.1787 -0.0746 -0.0656
13391W        W26805  18.052   8.505  14.354  0.1830 -0.0051 -0.0040
13392W        W26806  16.290  13.437  14.336  0.2248  0.1740 -0.0207
13393W        W26807  13.778   2.060   2.453 -0.1004  0.3415 -0.3125
13394W        W26808  12.746  17.630   4.186 -0.1742 -0.0203 -0.0085
13395W        W26809   9.919   1.875   0.066 -0.0068 -0.0953  0.4813
13396W        W26810   4.966   8.625  12.702  0.2734 -0.0216 -0.0871
13397W        W26811  12.981  11.507   3.005  0.2170  0.1871  0.2150
13398W        W26812   6.839  15.952   0.081 -0.1025  0.0361 -0.0080
13399W        W26813  11.716  10.954   0.689 -0.2647  0.1393  0.2014
13400W        W26814   0.276   1.823   1.236  0.1650  0.4413  0.1818
13401W        W26815   9.607   1.645   5.114 -0.0620  0.1757  0.1416
13402W        W26816   5.334  17.021   1.812 -0.0490 -0.0752 -0.0186
13403W        W26817   5.302  17.152  11.318  0.0123  0.2188  0.5198
13404W        W26818   4.690  11.799  11.319 -0.3757  0.2895 -0.0551
13405W        W26819   2.647   5.077  13.795 -0.0583  0.2326  0.1487
13406W        W26820  16.755   3.745  13.289 -0.1418 -0.0795 -0.0412
13407W        W26821  14.299   3.009  10.979  0.2500  0.2638  0.0648
13408W        W26822   1.721  17.262   1.144 -0.0887 -0.1026 -0.0849
13409W        W26823   5.889   7.445  15.005 -0.0702  0.2856 -0.2656
13410W        W26824  12.420  12.847  15.790  0.2355 -0.0600 -0.1020
13411W        W26825  17.577  17.109  14.374  0.3932 -0.0556 -0.0096
13412W        W26826   2.959   7.817  15.431 -0.0944 -0.1175  0.1781
13413W        W26827  16.949   6.083   1.911 -0.0521 -0.0055  0.2120
13414W        W26828   7.949   1.308  15.540  0.0280 -0.1498 -0.0095
13415W        W26829  15.982  13.936  12.460  0.1422  0.3213  0.2227
13416W        W26830  12.520  14.547   6.434 -0.0876 -0.0895  0.1711
13417W        W26831  13.678  16.878  14.239  0.1336 -0.3804 -0.0960
13418W        W26832   3.663  16.444   4.329  0.1015 -0.0855 -0.2835
13419W        W26833  17.084  10.038  15.301 -0.0314 -0.3445 -0.3037
13420W        W26834   7.362  14.324   3.215  0.1502 -0.2999 -0.0307
13421W        W26835  12.557   8.070  10.402  0.1408  0.0974 -0.1104
13422W        W26836   1.725  17.376  11.321  0.0330  0.0384  0.0342
13423W        W26837   4.991   2.400  15.060  0.0173  0.1233  0.2821
13424W        W26838   4.275  11.370  13.462  0.1395 -0.0887  0.0328
13425W        W26839   9.316   0.159  16.411  0.0048  0.0698  0.1858
13426W        W26840  12.094  13.180  11.323  0.2517  0.1505 -0.1774
13427W        W26841  15.197   2.686   1.439  0.2641 -0.1269  0.0053
13428W        W26842   5.902   7.742  12.053 -0.1376 -0.1010  0.2110
13429W        W26843  13.528   4.642   0.522  0.0878  0.1542 -0.1689
13430W        W26844  16.546   9.152  15.237 -0.0413  0.0097  0.2723
13431W        W26845   7.549  10.057  12.085 -0.2299  0.2577 -0.1813
13432W        W26846   2.099   8.481  15.272 -0.0172  0.2829  0.0144
13433W        W26847  12.492  15.154   1.578  0.2042 -0.1952 -0.0571
13434W        W26848  12.600   1.226  11.693  0.2114  0.0761  0.2179
13435W        W26849   6.054   3.435  16.000  0.2204 -0.0492  0.1840
13436W        W26850   1.449  11.045  11.957 -0.3641  0.1036 -0.3627
13437W        W26851   2.319   4.809  15.071  0.0218  0.0275  0.2497
13438W        W26852  13.687   6.991  11.988  0.2919 -0.4086  0.1919
13439W        W26853  13.683   2.612  14.523  0.0747  0.0506  0.0741
13440W        W26854   2.976  13.607  15.039 -0.1571  0.1761  0.0786
13441W        W26855  17.805  15.746   0.267  0.1029 -0.0792  0.2750
13442W        W26856  14.135   9.849   5.182 -0.1385 -0.0688  0.1395
13443W        W26857   0.027   1.895   0.374 -0.0930 -0.0730 -0.0397
13444W        W26858   2.298  15.082   1.298  0.2120  0.4112  0.0657
13445W        W26859   9.765   9.425   4.602 -0.0673  0.2482  0.0129
13446W        W26860  13.884  13.565  13.787  0.1578 -0.1718  0.1456
13447W        W26861   0.337  10.598  15.988  0.3080 -0.0666 -0.0722
13448W        W26862  15.718   2.320   1.885 -0.0386 -0.0644 -0.1725
13449W        W26863   0.068   6.287  15.018 -0.2257  0.2924  0.0175
13450W        W26864  13.031  17.812  15.899 -0.2635  0.2005 -0.1138
13451W        W26865  14.579  15.709   0.508 -0.0526  0.0783 -0.2082
13452W        W26866  12.931  14.314   1.795  0.1530 -0.0011  0.1244
13453W        W26867   8.850   9.097  14.210 -0.0461 -0.1385 -0.3243
13454W        W26868   2.073   8.134   1.994 -0.2705 -0.0312 -0.1543
13455W        W26869   5.337  12.507   2.070  0.3494 -0.0572 -0.1793
13456W        W26870  12.259   6.960   3.583 -0.2802  0.0574 -0.2687
13457W        W26871   5.583   3.161   1.202 -0.0871  0.1593 -0.0254
13458W        W26872   8.681   8.942   2.268  0.1052 -0.2301  0.2099
13459W        W26873  11.481  14.331   4.753 -0.0106 -0.4004  0.0664
13460W        W26874   7.739   1.189   3.800 -0.0251  0.0766  0.6556
13461W        W26875   2.481   2.623   0.598  0.0069 -0.0087 -0.0958
13462W        W26876   2.612  17.705   6.030  0.2133  0.1377  0.3277
13463W        W26877   6.613  10.458  14.438  0.0222 -0.0324 -0.0444
13464W        W26878   5.812  14.544  14.397  0.2200  0.1258 -0.0102
13465W        W26879  12.451  13.397   3.536 -0.3073  0.3634 -0.1364
13466W        W26880  16.029   8.584  13.541 -0.2874 -0.0339 -0.2287
13467W        W26881   3.637   5.657   2.220  0.2552  0.1081 -0.2589
13468W        W26882   1.843   8.360  11.245 -0.0746 -0.0162  0.0594
13469W        W26883   3.630   0.782   3.412 -0.3166 -0.2238 -0.0168
13470W        W26884  12.629   9.419  10.782  0.0646  0.0007  0.1503
13471W        W26885   4.171  10.481   1.707 -0.0850  0.0327 -0.3850
13472W        W26886   6.495  12.680   0.314  0.0953 -0.2291 -0.2224
13473W        W26887   4.635   5.023   1.369  0.4168 -0.3450  0.3561
13474W        W26888   9.664   9.790  13.290 -0.0576  0.1800  0.4601
13475W        W26889   8.249   9.049  13.009  0.3310 -0.2080 -0.2500
13476W        W26890   2.179   5.645  12.594  0.0054 -0.0540  0.3597
13477W        W26891  15.720   0.148   4.707 -0.2585  0.0001  0.0779
13478W        W26892  16.777  13.228   5.035  0.1447  0.2595  0.1565
13479W        W26893  11.224  13.989  14.724  0.4177 -0.2221  0.3236
13480W        W26894   3.620   9.977   4.382 -0.0087 -0.0586  0.0624
13481W        W26895  10.997  15.559   5.673  0.2830 -0.0765  0.2986
13482W        W26896  10.999   6.008  10.573 -0.1381  0.1391 -0.1393
13483W        W26897  10.241  11.420  14.141  0.3076  0.0715  0.3027
13484W        W26898  12.279  11.374   1.427  0.2248  0.0951 -0.3158
13485W        W26899   5.327   1.753   5.530 -0.0383  0.1200  0.0435
13486W        W26900   0.773  16.971   0.692 -0.3250  0.1240 -0.2206
13487W        W26901   4.873  12.537  14.715 -0.0415  0.0790 -0.0190
13488W        W26902  10.144   5.942   3.762 -0.0531 -0.0857 -0.3720
13489W        W26903   4.659   8.227  13.750 -0.0015  0.2550 -0.0202
13490W        W26904   8.435   4.858   2.057  0.1310 -0.1332 -0.1748
13491W        W26905   5.874  14.039   2.795 -0.0724 -0.0757 -0.0046
13492W        W26906  12.656  12.631  16.245 -0.3583  0.1267 -0.3090
13493W        W26907   9.885  16.681  10.168 -0.0896  0.1213  0.0701
13494W        W26908   0.568  13.532  14.555 -0.1528  0.1551  0.1503
13495W        W26909   9.608  11.440  11.510  0.0179 -0.0692  0.0834
13496W        W26910   8.408   8.624   4.403  0.6216 -0.0185 -0.2295
13497W        W26911  14.006   0.403   1.302 -0.2216  0.1291  0.2273
13498W        W26912  15.293  15.949   4.632  0.2951  0.2187 -0.0600
13499W        W26913  11.943   3.474  16.111  0.2410  0.1927 -0.2528
13500W        W26914  13.262   3.561   5.596 -0.2213 -0.2907 -0.1674
13501W        W26915   3.160  15.686   4.132  0.1183 -0.2656 -0.0845
13502W        W26916   6.200   3.859  13.752  0.0400 -0.0144 -0.2783
13503W        W26917  10.504  12.184   2.426 -0.1893  0.0648 -0.0351
13504W        W26918   6.544  17.392   0.056 -0.0839 -0.0032 -0.2857
13505W        W26919   5.816   6.278   1.198  0.1046 -0.2356 -0.3433
13506W        W26920  16.131   1.346   3.729  0.1612 -0.0600 -0.2119
13507W        W26921   6.373   1.788   4.319 -0.2456  0.0305  0.1064
13508W        W26922   1.861   5.905   2.814  0.1325 -0.3718  0.2455
13509W        W26923  15.547   3.126   3.248  0.3832 -0.0899  0.1869
13510W        W26924  14.587  15.969  11.595 -0.0413  0.0999  0.0105
13511W        W26925   9.582  16.819  15.038 -0.1058  0.0066  0.2525
13512W        W26926  15.278   5.339  13.786  0.0046 -0.1649 -0.0320
13513W        W26927  14.390  18.315  16.373  0.5838  0.0945 -0.2724
13514W        W26928   7.177   7.778  14.379 -0.3396  0.0571 -0.1137
13515W        W26929   8.075  13.758   5.551  0.2136  0.2098  0.1640
13516W        W26930  10.224   1.098   5.656  0.2885 -0.3360  0.2077
13517W        W26931   3.271   0.988   5.448  0.0455 -0.0778  0.0375
13518W        W26932   0.850  10.734   0.713 -0.2175  0.0176 -0.1623
13519W        W26933   3.262  10.341  11.201 -0.2297  0.0499 -0.0609
13520W        W26934   3.978  12.476   2.249 -0.0341 -0.0890 -0.1696
13521W        W26935  10.040  14.807  12.761  0.0575 -0.1313 -0.0398
13522W        W26936  15.302   5.911  13.589 -0.1955  0.0789 -0.0421
13523W        W26937   2.854   9.363  10.431  0.1715 -0.2067 -0.0194
13524W        W26938   9.465  12.577   2.761 -0.1356  0.0956 -0.3083
13525W        W26939  15.915   2.325  12.036  0.0396  0.0547  0.0384
13526W        W26940   2.496  16.922   1.314  0.0857  0.1374 -0.0545
13527W        W26941   1.795  10.632   2.246 -0.3278 -0.0524 -0.1901
13528W        W26942  16.015   1.553   2.256 -0.2075  0.0634 -0.3328
13529W        W26943   5.343   2.767   3.288  0.0699 -0.1964  0.1854
13530W        W26944  12.517  12.290   0.065 -0.0405 -0.0522  0.1150
13531W        W26945  17.873   6.033   2.316  0.1817  0.0698  0.2174
13532W        W26946  14.085  11.576  15.708 -0.0420 -0.2815  0.2233
13533W        W26947   3.497  17.748  12.333 -0.0130 -0.0449  0.0860
13534W        W26948   9.425   6.074   3.107  0.3679 -0.1745 -0.1127
13535W        W26949   8.744   0.229   4.506 -0.2189 -0.0743 -0.0888
13536W        W26950   8.833  13.981  11.078 -0.3121 -0.1029 -0.0562
13537W        W26951   5.084  16.795  11.712 -0.2257  0.0178  0.2583
13538W        W26952  12.162   4.952   3.058  0.0632 -0.2783  0.4298
13539W        W26953  12.051   2.681   4.941  0.4238  0.0242 -0.3135
13540W        W26954  15.641   0.577   5.318  0.5460  0.1116 -0.0729
13541W        W26955   6.902   6.435   5.321  0.2760  0.2461 -0.1029
13542W        W26956  12.334   8.018   0.718  0.0083 -0.1285  0.0205
13543W        W26957   2.517  11.820  16.029  0.1580  0.0610  0.0436
13544W        W26958   1.717   2.423   1.548 -0.1285  0.1564  0.1437
13545W        W26959  12.630   9.567   4.161  0.0820  0.0640 -0.1755
13546W        W26960   3.289  13.484   3.727  0.0332  0.0164 -0.1944
13547W        W26961   5.046   1.929  15.852 -0.1096 -0.0182 -0.1570
13548W        W26962  12.049  14.535  16.173 -0.1510 -0.1183  0.0454
13549W        W26963   3.780  16.400  11.626  0.3647 -0.4972 -0.0041
13550W        W26964  15.805   7.859  15.757  0.1280  0.1417 -0.1908
13551W        W26965   3.046  11.373   1.878 -0.0603 -0.0679  0.0078
13552W        W26966  15.061  12.313  15.365  0.0376 -0.3722  0.2703
13553W        W26967  12.381   4.084   0.528  0.1450 -0.0574  0.0324
13554W        W26968   7.752  13.094  14.082 -0.2999 -0.1737  0.1429
13555W        W26969   0.009  16.917  12.446 -0.3537  0.2095 -0.2038
13556W        W26970   8.273  10.849  12.972 -0.0549 -0.0858  0.2401
13557W        W26971   3.571   0.886   2.750 -0.1560 -0.0586 -0.2321
13558W        W26972   3.421   4.638   5.156  0.0459 -0.3078  0.3646
13559W        W26973   5.969   0.294   4.179 -0.0515 -0.2345 -0.0072
13560W        W26974  10.323   5.499   3.323 -0.0575  0.0108 -0.0935
13561W        W26975  14.270  15.185   5.443 -0.2525  0.1044 -0.1349
13562W        W26976   2.099   8.233  12.500  0.0672  0.2233  0.1164
13563W        W26977   8.539   1.946  13.285  0.0085 -0.4757  0.2182
13564W        W26978  16.758   0.420  12.426  0.0405 -0.1465 -0.1300
13565W        W26979   6.336   2.841   1.241  0.1182  0.0209 -0.2716
13566W        W26980   9.936  17.868   5.088 -0.1771 -0.2363  0.0446
13567W        W26981   3.125   4.974  14.003  0.1041 -0.1005 -0.0383
13568W        W26982   7.148   8.044  14.854  0.2233 -0.2323 -0.0914
13569W        W26983   0.615  13.890   4.429  0.0873 -0.1720 -0.0073
13570W        W26984  17.390  18.372  13.223 -0.1204  0.1631 -0.0405
13571W        W26985  15.556  10.990  10.771  0.0649 -0.0225 -0.1519
13572W        W26986  16.229   7.636   2.139 -0.1298 -0.1230 -0.1120
13573W        W26987   5.726  12.644   6.931  0.0285 -0.0247 -0.1400
13574W        W26988   2.292   4.894  11.613 -0.0354 -0.2759  0.1485
13575W        W26989   2.721  12.205  11.181 -0.2005  0.2527  0.2350
13576W        W26990   4.079  17.186   1.040 -0.1658 -0.1583  0.1281
13577W        W26991   2.413   3.562  13.345 -0.4172  0.3264 -0.0899
13578W        W26992   1.023   1.648   2.948 -0.0342 -0.2244  0.2803
13579W        W26993   8.961   0.637   1.857  0.0323 -0.0305  0.0776
13580W        W26994   5.741  17.815  14.896  0.1615 -0.1694 -0.0616
13581W        W26995   0.175   9.059  11.611  0.1081  0.2028 -0.3237
13582W        W26996   1.048  16.529  16.369  0.1833  0.0637 -0.0378
13583W        W26997  10.460   9.450  15.045  0.0117  0.2702  0.1584
13584W        W26998   9.245  10.846  15.476 -0.0167  0.0526 -0.2171
13585W        W26999  11.919   8.554   1.942  0.4403  0.0751 -0.0480
13586W        W27000   7.159  17.772  11.944 -0.0841 -0.3459 -0.2610
13587W        W27001  16.873   7.335  13.665  0.1074 -0.2557 -0.1100
13588W        W27002  11.757   2.031   2.075  0.1931  0.1134 -0.1038
13589W        W27003  14.043   7.612  16.067  0.0373  0.1733  0.1446
13590W        W27004   0.117  11.632  15.241  0.3199  0.0443  0.0200
13591W        W27005  13.154  10.689   3.588 -0.2787 -0.0298  0.2157
13592W        W27006   1.442   7.772  13.799 -0.0997  0.0245 -0.2456
13593W        W27007  11.392   8.231  11.397 -0.3379  0.0895  0.0783
13594W        W27008  11.639   2.580  10.183  0.2316  0.1336  0.1878
13595W        W27009  13.623  11.926  14.969  0.0712 -0.0369  0.1590
13596W        W27010  10.080   1.209   4.483  0.0080  0.0301  0.3179
13597W        W27011  16.252   4.480  15.263  0.0711  0.2069 -0.0034
13598W        W27012   1.754  16.099   2.605  0.2115 -0.1957 -0.1435
13599W        W27013   4.637   5.446   3.711 -0.1573 -0.1364  0.0509
13600W        W27014   1.697  11.511  12.340  0.2049 -0.1266  0.1584
13601W        W27015  14.817   8.945   1.360  0.0381 -0.0250 -0.0094
13602W        W27016   2.995  13.290  16.476  0.2882  0.1753  0.0492
13603W        W27017  13.971   0.419  12.302 -0.2824  0.1301  0.1970
13604W        W27018  12.096  13.218   1.574 -0.0577 -0.2822  0.2095
13605W        W27019  15.506   8.969  10.905  0.0238  0.1091 -0.2499
13606W        W27020   1.293   7.726  14.694 -0.0615 -0.4002  0.1220
13607W        W27021  13.513   5.978   3.018 -0.0658  0.1870 -0.3632
13608W        W27022   4.420  12.330   1.550 -0.1232 -0.1168  0.2199
13609W        W27023  14.078   7.679   4.792 -0.1261  0.1293  0.0045
13610W        W27024   1.746   5.372   3.384 -0.1249 -0.0609 -0.0676
13611W        W27025   4.261   1.500  14.526  0.0350  0.1028 -0.0278
13612W        W27026   3.241   8.321   1.343 -0.1264  0.0041 -0.1357
13613W        W27027   8.538   0.814   4.663  0.4180 -0.0188 -0.0419
13614W        W27028  11.695   0.413   5.551  0.4093 -0.0926 -0.1331
13615W        W27029  10.203   0.001   1.798  0.0724 -0.1449 -0.0471
13616W        W27030  17.273   2.375   0.371 -0.1329 -0.3546 -0.0299
13617W        W27031  11.355   4.959  15.148  0.2409  0.1468  0.2271
13618W        W27032  12.348   2.255  13.877  0.0742  0.4404 -0.0215
13619W        W27033  11.951   6.557  10.752  0.1481 -0.0173  0.2063
13620W        W27034   6.794   0.843   5.214  0.3007  0.0406  0.1905
13621W        W27035   4.818  10.966  15.979 -0.1565 -0.0870  0.2017
13622W        W27036   7.723   2.969   1.836 -0.1418 -0.1539  0.0152
13623W        W27037   5.540  15.076  11.003  0.0496 -0.1111  0.2638
13624W        W27038   2.075  11.547   3.738  0.1616 -0.0148  0.0909
13625W        W27039  14.880   5.048   0.152  0.0610  0.2920  0.0058
13626W        W27040   8.020  14.319  11.280  0.1897 -0.1397 -0.0558
13627W        W27041  14.667   5.911   2.402  0.1625  0.2693 -0.0605
13628W        W27042   2.894   6.713   0.357 -0.0914 -0.2252 -0.0286
13629W        W27043  17.747   4.028   5.972  0.0115 -0.1529  0.1927
13630W        W27044  17.521  15.119   6.386 -0.0817  0.0766  0.0065
13631W        W27045  13.568   1.677  15.311 -0.0983 -0.0346  0.2032
13632W        W27046   6.431  16.340   4.684  0.0269 -0.1045  0.1524
13633W        W27047  16.073   4.501  11.801 -0.3120 -0.0738  0.0279
13634W        W27048  16.712   6.482   1.604 -0.3478  0.0786 -0.2090
13635W        W27049  10.065   3.590   2.362 -0.0088  0.1162  0.1183
13636W        W27050  12.418   3.255   4.269 -0.3419 -0.3477  0.2682
13637W        W27051   5.105   6.975  14.758  0.1555 -0.3301 -0.3776
13638W        W27052   4.897   5.708  14.748  0.1745  0.2687  0.2154
13639W        W27053  12.008  13.932  16.186  0.1231 -0.0484  0.0720
13640W        W27054  14.626   0.709  16.237 -0.0835  0.2173  0.0142
13641W        W27055  15.441  15.407  15.509 -0.3948 -0.3033  0.0206
13642W        W27056   9.315  13.369  15.407 -0.1494 -0.0364  0.2836
13643W        W27057  12.034   6.787   0.727  0.2216 -0.2584 -0.0557
13644W        W27058  16.007  13.290   4.888  0.0125 -0.0776  0.6238
13645W        W27059   8.166  11.515  15.256 -0.0794  0.2742 -0.3059
13646W        W27060  16.345  12.073   2.577  0.4957 -0.0088 -0.3508
13647W        W27061   5.796  13.896   0.041  0.1200 -0.2400  0.0331
13648W        W27062  15.909  17.783   5.986  0.1312  0.1098 -0.0001
13649W        W27063  12.900   3.323  12.215 -0.0358 -0.0269  0.0366
13650W        W27064  10.323  13.683   5.855 -0.2359  0.0458 -0.1435
13651W        W27065  14.798  17.193  11.022  0.2971  0.0470 -0.1979
13652W        W27066   0.460  16.538  15.582 -0.1737  0.0863  0.2329
13653W        W27067  14.257  17.943  13.469  0.0388 -0.0259 -0.0322
13654W        W27068  17.596  10.237   5.290  0.1737  0.2698  0.5149
13655W        W27069  12.996   8.531   9.595 -0.1877  0.1675 -0.1243
13656W        W27070   2.664  17.156   5.730  0.0104  0.2146  0.1829
13657W        W27071   4.557   5.207   0.479  0.1067  0.4098  0.1677
13658W        W27072   0.526  14.741   2.510 -0.4525 -0.4136  0.1117
13659W        W27073   4.298  13.624   3.551 -0.0118 -0.0460 -0.2063
13660W        W27074  16.039   1.464  16.394  0.2491 -0.0397 -0.2047
13661W        W27075   9.957  11.921  14.076  0.0189 -0.0037  0.0161
13662W        W27076   2.085  12.780  13.567  0.1970 -0.0494 -0.0119
13663W        W27077   9.416   7.706   3.830 -0.0539  0.0058  0.0233
13664W        W27078  13.456  11.755  15.433  0.2544 -0.1992  0.0515
13665W        W27079  14.594   5.764   5.078  0.0879  0.1478  0.3036
13666W        W27080  11.085   6.199  14.885  0.2224  0.1607 -0.0218
13667W        W27081   9.863   0.183   0.809 -0.1595  0.1814 -0.1154
13668W        W27082  11.568  14.557   1.462  0.3472  0.0862 -0.3458
13669W        W27083   9.187  17.247   3.917  0.4874  0.1680  0.0616
13670W        W27084   5.789  11.327   5.454  0.0939  0.2573 -0.0542
13671W        W27085  10.529   7.367  14.939 -0.3817  0.0809  0.3100
13672W        W27086  17.363   5.647  11.251 -0.0538 -0.0340  0.2275
13673W        W27087   3.065   0.787  13.179 -0.0503 -0.0567  0.0573
13674W        W27088  12.429  15.406   6.935  0.0829 -0.1086 -0.1472
13675W        W27089  11.535  17.273   1.047  0.1139  0.1177 -0.0930
13676W        W27090   2.781  10.403  14.751  0.0870  0.0035  0.2051
13677W        W27091   7.710  10.795  15.492  0.0345  0.3471 -0.0446
13678W        W27092  16.995  16.679  13.215  0.4429 -0.3561 -0.1448
13679W        W27093   7.926   2.851   0.971 -0.0020  0.0618 -0.4150
13680W        W27094   8.542   4.695  14.900  0.0569  0.0150 -0.2023
13681W        W27095   7.835   5.394   5.414  0.1288 -0.1198 -0.0416
13682W        W27096   1.033   3.548  16.354  0.0981  0.2309  0.1565
13683W        W27097   9.344   1.322   6.123  0.2465  0.0481 -0.0588
13684W        W27098  13.093  16.410   2.449 -0.1233 -0.0223 -0.3291
13685W        W27099  17.821   7.675  10.317  0.0551 -0.1760 -0.1859
13686W        W27100  10.037  11.448   5.175  0.0179 -0.2734  0.4021
13687W        W27101  12.453   2.724   3.348 -0.2320  0.1058 -0.0671
13688W        W27102  14.427   1.501   4.294 -0.2948  0.2098 -0.1919
13689W        W27103  15.066   0.779  15.138 -0.0499 -0.2359 -0.1700
13690W        W27104  16.005   3.074   5.373 -0.0004 -0.0103 -0.0001
13691W        W27105   1.264   3.945  13.805  0.5164  0.0799  0.0608
13692W        W27106  11.878  13.753  13.528  0.0303  0.5099  0.2888
13693W        W27107  17.391  11.799   1.146  0.0809 -0.3251 -0.1336
13694W        W27108  14.338   1.574   2.947 -0.2496 -0.2248  0.4461
13695W        W27109  17.577   6.728   2.847 -0.0957  0.1964 -0.1414
13696W        W27110  11.624   6.500  14.885 -0.1971 -0.0398  0.1190
13697W        W27111  13.543  17.398  14.062  0.0458  0.1168 -0.4578
13698W        W27112  10.431  16.342   2.440  0.1156  0.0303 -0.4658
13699W        W27113   0.947   4.383   4.478 -0.1685 -0.0364  0.0955
13700W        W27114  14.258   7.053   0.073  0.2558 -0.3073 -0.2738
13701W        W27115   1.633  17.743  12.701  0.1335  0.0338  0.2084
13702W        W27116  10.432   9.984  15.007 -0.2552 -0.0967  0.0766
13703W        W27117  11.831  13.651  12.395 -0.0588 -0.2487 -0.0134
13704W        W27118   2.648   3.353   2.784 -0.0468  0.0240  0.2882
13705W        W27119   2.958  15.496   1.828 -0.2211  0.0696  0.1457
13706W        W27120  11.657   4.027  13.154 -0.1327  0.2770  0.1121
13707W        W27121  11.655  16.185   2.721  0.2521 -0.0745 -0.0160
13708W        W27122   2.076   0.724   2.536  0.3139 -0.0281  0.2643
13709W        W27123   6.129  16.494  15.027  0.1001 -0.2514  0.2466
13710W        W27124  14.888   4.457  11.711 -0.1287  0.1738 -0.2509
13711W        W27125   1.410  13.768  14.013 -0.0156 -0.0237 -0.3227
13712W        W27126   4.860  10.814   2.505 -0.0848 -0.0048  0.2491
13713W        W27127  12.614   3.382  13.761  0.1558  0.0423  0.2818
13714W        W27128  15.475   0.615   2.595  0.1108  0.2528  0.0675
13715W        W27129   1.852   2.536  13.824  0.2580 -0.1407 -0.1751
13716W        W27130   6.780  13.473   5.430  0.2529  0.2952  0.0096
13717W        W27131   1.278   6.528   2.215 -0.2228 -0.0260 -0.0052
13718W        W27132   8.164  17.981   1.627  0.0238  0.1028 -0.2834
13719W        W27133   1.200   3.811   0.204 -0.3646 -0.0391  0.2392
13720W        W27134  14.009   1.638   1.483  0.1841 -0.0207 -0.1150
13721W        W27135  14.497  14.097   3.817 -0.2619  0.1393  0.0775
13722W        W27136   4.117  11.773  16.203  0.1891  0.1007  0.0171
13723W        W27137  11.356  10.770  15.851 -0.1055 -0.2788  0.1540
13724W        W27138  11.333   5.409   1.080  0.1011  0.2749 -0.0922
13725W        W27139   4.789  17.482  14.599  0.1442  0.0482  0.2311
13726W        W27140  12.229   8.201  14.903 -0.2979 -0.0670  0.2240
13727W        W27141  18.284   5.740   3.413 -0.0759  0.0096 -0.0994
13728W        W27142  13.887  13.501  15.487 -0.1938 -0.0799  0.0844
13729W        W27143   1.740  10.319  11.822 -0.0287  0.2294 -0.1932
13730W        W27144  14.597   4.582   0.116 -0.3171  0.0432  0.1856
13731W        W27145   9.266  18.295   3.871  0.2179 -0.1058 -0.1552
13732W        W27146  12.445  16.647   0.721  0.2709  0.0097 -0.1570
13733W        W27147   0.595  15.222  15.760 -0.1484  0.0388  0.1822
13734W        W27148   5.951   0.735  12.038 -0.2649 -0.0421 -0.0444
13735W        W27149  11.801  12.553   0.710  0.1434  0.4410 -0.2627
13736W        W27150   2.423  16.979  14.446 -0.1879 -0.2647  0.2033
13737W        W27151  11.233  15.483   4.001 -0.2880  0.0949 -0.1164
13738W        W27152   2.946   4.586  15.207  0.1015 -0.1196  0.0942
13739W        W27153  10.710   9.499  10.709 -0.0238  0.0574  0.0142
13740W        W27154  18.106  11.256   5.371 -0.1305 -0.0813 -0.0288
13741W        W27155   8.178   4.045   4.889 -0.0507  0.1415 -0.2876
13742W        W27156   6.400  11.212   1.412  0.2081  0.1492  0.2024
13743W        W27157   4.007   3.156  15.095  0.3317  0.3928  0.1203
13744W        W27158   3.406   4.999  11.962 -0.4013  0.2276  0.0001
13745W        W27159   0.612  15.748  14.919 -0.1704 -0.0822  0.1285
13746W        W27160   7.044   0.262  15.861  0.1422  0.0628 -0.0894
13747W        W27161  17.908  17.739  13.571 -0.2440 -0.0703  0.0913
13748W        W27162   0.619   4.104   4.656 -0.3492 -0.1858 -0.1252
13749W        W27163  17.742   5.273   5.803  0.0607  0.1757 -0.2740
13750W        W27164   7.869  10.450  12.151 -0.0304  0.2391  0.0897
13751W        W27165   7.673  17.367  12.328  0.0463  0.2593  0.1338
13752W        W27166  17.837   7.409  13.017  0.1294 -0.0455  0.2343
13753W        W27167  15.714  15.331   1.835  0.2355  0.0963 -0.0923
13754W        W27168  13.353  14.373   2.461  0.0297 -0.0425  0.1883
13755W        W27169   2.552  12.085   4.426 -0.1593 -0.1765 -0.3078
13756W        W27170  17.292  12.704   4.626 -0.1116 -0.0306 -0.0237
13757W        W27171   8.898  15.927   0.530  0.4155  0.0293  0.0940
13758W        W27172   5.102   8.825   6.139 -0.1406  0.1828  0.1756
13759W        W27173  10.142   2.601  11.752 -0.2239 -0.2616  0.3472
13760W        W27174   9.399   9.166  11.437 -0.2437 -0.0865  0.0706
13761W        W27175   0.279   2.224   2.491 -0.1842  0.2545  0.1072
13762W        W27176  10.716  10.821   3.586 -0.0418 -0.0438 -0.0247
13763W        W27177   9.055   5.306  12.383 -0.0441 -0.0407 -0.2458
13764W        W27178   7.279  15.325  13.618 -0.2325  0.4607 -0.0322
13765W        W27179  16.355  12.991  11.662 -0.2753 -0.2619  0.1382
13766W        W27180  14.265   8.767   0.404 -0.0098  0.4659  0.2192
13767W        W27181   1.751   4.310   3.039  0.1191  0.1960  0.1778
13768W        W27182   5.947   2.129  15.051  0.3345  0.3029 -0.0614
13769W        W27183  12.845   3.523  13.144  0.2078 -0.0296 -0.2807
13770W        W27184   7.076   7.913   0.649  0.2713  0.0673  0.0044
13771W        W27185   6.422   4.464   2.150  0.2500 -0.0907  0.1731
13772W        W27186  13.593  12.585  15.952 -0.1051  0.2046 -0.1300
13773W        W27187   1.945   6.053  14.389 -0.3078 -0.0900 -0.0459
13774W        W27188  14.138  10.401  13.825 -0.1010 -0.1119 -0.2756
13775W        W27189   1.675  10.109   5.693  0.1460  0.4758 -0.1992
13776W        W27190   5.898  13.974  14.939 -0.0181  0.0539 -0.2503
13777W        W27191   3.299   8.706  12.791  0.2703 -0.0300  0.0825
13778W        W27192  11.876  17.629  13.630  0.1067 -0.1577  0.2904
13779W        W27193  13.948   2.873   3.016 -0.0035  0.0285  0.1254
13780W        W27194   2.946   8.880  12.357 -0.1233 -0.1430  0.2211
13781W        W27195   5.494  15.358  14.807  0.1116  0.0260 -0.0953
13782W        W27196  16.884  16.452   1.033 -0.2634 -0.1400 -0.1581
13783W        W27197  12.554   2.759   4.700  0.0617  0.1027 -0.0055
13784W        W27198  12.720  15.006   2.349  0.1105  0.1697  0.0827
13785W        W27199   1.715   7.082   0.544 -0.0914  0.1582  0.0505
13786W        W27200  12.370   4.527   4.170 -0.1682 -0.3191  0.0355
13787W        W27201  12.461   0.263   2.310 -0.0403  0.0840  0.0794
13788W        W27202  12.381   3.706   2.161  0.1854 -0.0719 -0.1330
13789W        W27203   4.892   4.430  12.060  0.2347  0.0115 -0.1233
13790W        W27204   4.486   9.747   9.893  0.0561 -0.1967 -0.1368
13791W        W27205   5.552  15.686  13.397  0.0547  0.0418 -0.0299
13792W        W27206   9.716  10.625  13.037 -0.0660 -0.1936  0.1368
13793W        W27207   9.330   8.624   2.999 -0.0018 -0.0540  0.2803
13794W        W27208  14.004   5.202   1.920 -0.0671 -0.0774 -0.0439
13795W        W27209   5.107   2.798  14.830 -0.0958  0.0764  0.0229
13796W        W27210   0.501  16.677  12.298 -0.2283  0.1726  0.1159
13797W        W27211   7.595  14.654   0.522  0.1290 -0.1726 -0.0833
13798W        W27212  13.470  13.789  14.808  0.0073 -0.0302  0.0747
13799W        W27213   1.508  11.080   3.287  0.1438 -0.0673 -0.3630
13800W        W27214   3.783   3.646   3.081 -0.3257 -0.3629  0.3996
13801W        W27215   0.858   4.370  15.391 -0.1292 -0.0610 -0.1159
13802W        W27216   4.781   6.238   1.430 -0.0868 -0.2118  0.0362
13803W        W27217  14.174   3.853  13.148  0.0334  0.0955  0.0280
13804W        W27218  12.327   3.898   4.789 -0.0386 -0.0060 -0.0921
13805W        W27219   6.321   5.289  11.272  0.0267  0.3283  0.1563
13806W        W27220  16.292   0.449  12.179 -0.1733 -0.0080 -0.2773
13807W        W27221   7.003   5.535  15.657  0.2308  0.4229  0.1849
13808W        W27222  17.861  13.361  13.033 -0.1199  0.0192  0.3277
13809W        W27223   9.776  15.230  11.118 -0.0029  0.3685 -0.3339
13810W        W27224   4.245   5.724  13.991  0.0655 -0.0498  0.2804
13811W        W27225   4.038   5.075   0.694  0.2042  0.0696 -0.2027
13812W        W27226   8.242  12.120  12.277 -0.3731  0.2133 -0.0502
13813W        W27227  10.324   1.952  12.306  0.0688 -0.1453  0.0570
13814W        W27228  10.507  10.644  13.515  0.3075 -0.2152 -0.0267
13815W        W27229  11.344  13.731   5.419  0.0506 -0.1525 -0.1726
13816W        W27230   8.632   5.803   4.296 -0.1716 -0.3111 -0.0652
13817W        W27231  13.528   6.462   3.195 -0.1291  0.0831  0.0116
13818W        W27232  10.318  10.910  11.569  0.0347 -0.0058 -0.1453
13819W        W27233   3.630   8.152  12.137 -0.1810  0.0181  0.0007
13820W        W27234  17.794  13.001   5.208 -0.0538  0.1357 -0.1680
13821W        W27235   3.389  15.687  13.452 -0.5968  0.5054 -0.0960
13822W        W27236  12.127   4.071   5.737 -0.2409  0.1052 -0.1144
13823W        W27237   0.434   6.646  16.258 -0.2085 -0.3098  0.0826
13824W        W27238  18.106   4.001  15.042  0.1601  0.0916  0.0828
13825W        W27239   9.321   7.955   1.485  0.1608 -0.3004  0.1384
13826W        W27240   4.276  16.675  14.849 -0.1345  0.1147 -0.0631
13827W        W27241  10.767  11.501  12.204 -0.3932  0.1406 -0.2322
13828W        W27242   9.380  11.977  15.632 -0.3637  0.1656 -0.0935
13829W        W27243   7.368   3.778  12.880 -0.1212  0.0721  0.0600
13830W        W27244   8.875   5.011   3.767 -0.0143 -0.0853  0.4199
13831W        W27245   8.545   1.447  13.428 -0.0470  0.0443  0.0936
13832W        W27246  11.772   8.022  16.036 -0.0856  0.0185  0.5097
13833W        W27247  16.378   7.578   5.407 -0.1238 -0.2126  0.1823
13834W        W27248   3.687   9.287  15.749  0.2702  0.1652 -0.0031
13835W        W27249  10.286  16.774  16.333  0.3146 -0.0437  0.0693
13836W        W27250  16.141  16.983   2.891  0.0847  0.0394 -0.0708
13837W        W27251   9.566   7.669   1.892  0.0326  0.0388  0.3877
13838W        W27252   4.461   5.294   0.002 -0.0372  0.4345  0.1269
13839W        W27253   3.721   8.818   1.983  0.1502 -0.0800  0.3806
13840W        W27254   4.621   1.599  10.924  0.0062 -0.1215 -0.0392
13841W        W27255   7.019   0.560  13.683  0.2315 -0.1256  0.1675
13842W        W27256  17.273   2.177   1.954 -0.2016 -0.1282 -0.2191
13843W        W27257  10.930  11.635   0.394  0.0345 -0.1384 -0.0180
13844W        W27258   0.835  10.638  12.563 -0.0934  0.2141 -0.0236
13845W        W27259  16.960  15.065   1.418  0.0270  0.0047 -0.2698
13846W        W27260  17.890  16.854  12.387 -0.1892 -0.2605 -0.1693
13847W        W27261  17.061  12.447  11.447 -0.2650  0.3591  0.1389
13848W        W27262   4.501  11.099  13.975 -0.0300  0.0856 -0.0390
13849W        W27263  11.543  12.854   4.549 -0.0923 -0.1535 -0.2343
13850W        W27264   9.082   6.659   4.630  0.1435  0.1593 -0.0212
13851W        W27265   4.385  11.407  15.395 -0.0730  0.4995  0.3652
13852W        W27266   3.711   7.155  10.191  0.2301  0.2828  0.0868
13853W        W27267  17.086  12.804  14.445 -0.2777 -0.1532  0.2990
13854W        W27268  12.348   7.058  15.097  0.0035 -0.0828  0.0723
13855W        W27269  13.310   2.861   2.758 -0.3949 -0.1169  0.0808
13856W        W27270  14.047   0.534  15.005  0.1755 -0.0920  0.1620
13857W        W27271   1.691   7.850  10.810 -0.4465  0.2161  0.3395
13858W        W27272   9.774   9.635   0.285 -0.1913 -0.2440 -0.0657
13859W        W27273   2.987   1.023   0.455  0.2643 -0.0266 -0.3306
13860W        W27274  11.499   9.047  11.799  0.0451 -0.1280  0.1375
13861W        W27275   6.495   3.714  15.152  0.1139 -0.0219  0.2171
13862W        W27276   5.783   4.300   0.550  0.0663  0.1320 -0.0016
13863W        W27277   9.395  14.833  15.571 -0.0765 -0.1879 -0.1908
13864W        W27278   5.677  13.281   4.506  0.3938 -0.1324 -0.0447
13865W        W27279  13.210  14.737   5.614  0.2280  0.4157  0.1840
13866W        W27280   4.311   9.794   4.426 -0.1215 -0.0304  0.3065
13867W        W27281   0.680   7.073  13.638  0.0978 -0.1407 -0.0499
13868W        W27282   0.348   1.417   4.125  0.2605  0.1857 -0.1757
13869W        W27283   2.388  15.477  11.686 -0.0291  0.4451  0.1416
13870W        W27284   3.252  11.379  10.839  0.2976  0.0126 -0.0786
13871W        W27285   8.645   7.730   3.201  0.0283 -0.0190  0.0696
13872W        W27286   8.626   3.441   1.033  0.0662 -0.1014 -0.1855
13873W        W27287  11.749   9.369   0.439  0.3291  0.1059 -0.0507
13874W        W27288  10.616   9.535   0.451 -0.1754 -0.4371  0.1389
13875W        W27289  13.281   8.233   5.175 -0.2088 -0.0867 -0.3652
13876W        W27290   7.683   6.979  10.698  0.0609  0.2434  0.0807
13877W        W27291   4.850   7.320  12.302  0.0012  0.2313 -0.3092
13878W        W27292   9.011   8.889   3.792 -0.1023 -0.2690 -0.3512
13879W        W27293   2.898  11.762  13.169 -0.0302 -0.2813  0.0663
13880W        W27294   2.862  15.527   3.335  0.0962 -0.2376  0.2037
13881W        W27295  16.698   1.760  10.900  0.0663 -0.3622  0.1293
13882W        W27296   5.115  16.619  13.711  0.6269 -0.0606  0.0123
13883W        W27297   6.392   7.460  16.194 -0.0337  0.2046  0.0665
13884W        W27298   3.113  10.826   3.481 -0.0507  0.0149 -0.0427
13885W        W27299   6.894  12.102   2.051 -0.1874  0.1390  0.0210
13886W        W27300   0.213   7.463  10.617  0.3085 -0.0765 -0.1649
13887W        W27301   9.742  16.702   1.997 -0.1737 -0.2688 -0.1306
13888W        W27302  15.617  10.522  10.963 -0.0830  0.2336  0.0903
13889W        W27303   6.548   2.398  11.891 -0.5257  0.2185 -0.1382
13890W        W27304   2.468   6.945  11.331  0.0233  0.1977 -0.1878
13891W        W27305  16.832  14.544  12.192 -0.2712  0.2694 -0.0578
13892W        W27306  13.596   2.704  16.426 -0.4358  0.0252  0.4337
13893W        W27307   0.991  18.270   6.941 -0.0221 -0.4312  0.3423
13894W        W27308   3.584  17.840   2.898 -0.0607 -0.1145  0.1338
13895W        W27309   5.385  10.103  10.818 -0.0880 -0.4448 -0.2763
13896W        W27310  15.041  14.467  14.985 -0.4410  0.1496 -0.2900
13897W        W27311   1.332   2.929   5.488  0.1290 -0.0562  0.3583
13898W        W27312  12.665   6.632  13.962  0.3514  0.2353 -0.0021
13899W        W27313  12.867  13.685  15.380 -0.2196  0.1255  0.1102
13900W        W27314   2.335  11.930   5.265 -0.2542 -0.0228  0.0237
13901W        W27315   4.843  11.574  15.194  0.3251 -0.1744 -0.0209
13902W        W27316  17.166  13.444   5.255  0.2375 -0.1253 -0.0096
13903W        W27317  11.945  12.227  14.087  0.1239 -0.0052  0.4376
13904W        W27318   5.027  11.625   4.814  0.0711  0.2331  0.2173
13905W        W27319  17.816   4.307   6.425  0.0423 -0.1518 -0.1273
13906W        W27320  12.719  11.616  12.636  0.1062  0.3653  0.0366
13907W        W27321   0.211  14.283  14.887 -0.0509  0.0149  0.2394
13908W        W27322  12.467  11.496   4.349  0.8157 -0.0004  0.2196
13909W        W27323   9.510   8.815  12.553 -0.0929 -0.0279 -0.2094
13910W        W27324   4.556  16.066  11.236 -0.2322  0.3565 -0.0820
13911W        W27325  10.643   7.021   2.123  0.3155 -0.0696  0.0319
13912W        W27326   1.616   8.654  16.149  0.1561 -0.2081 -0.0540
13913W        W27327   0.181   5.481  16.025 -0.1000 -0.3536  0.1878
13914W        W27328   0.140  10.205   3.609 -0.0438 -0.0237 -0.3670
13915W        W27329   5.352   0.850   2.260  0.0398 -0.0002  0.4514
13916W        W27330  15.639  13.553  13.263 -0.1682 -0.1013 -0.1124
13917W        W27331  12.887  12.143  15.374 -0.2141 -0.1538  0.0488
13918W        W27332   6.507  18.042   4.646  0.1354  0.0525 -0.2033
13919W        W27333  10.523   9.019  13.276  0.0788 -0.1016 -0.0479
13920W        W27334  10.071   1.325   2.362 -0.0137 -0.0319 -0.0944
13921W        W27335   8.688  11.738  12.974  0.3331 -0.3884  0.0319
13922W        W27336   5.060   3.118   5.947  0.0069  0.1256  0.0681
13923W        W27337   2.154   7.507   4.746 -0.2501  0.1102 -0.3486
13924W        W27338  13.917   1.843  12.001  0.4004  0.1878 -0.0413
13925W        W27339  18.263   4.661   2.611  0.0268  0.0211  0.2734
13926W        W27340   0.417  10.726   2.673  0.0814  0.0980  0.1104
13927W        W27341  11.160   6.860  13.883  0.1887  0.2424 -0.2716
13928W        W27342   2.040  17.195   2.106 -0.2043  0.0058 -0.0805
13929W        W27343  13.646  10.849   1.840  0.0310 -0.0380 -0.0582
13930W        W27344   5.545  14.336   0.894 -0.1802 -0.2333  0.4678
13931W        W27345  16.395   6.000  11.351 -0.0408 -0.0667 -0.3964
13932W        W27346   9.635  15.098   6.131  0.0651  0.4458  0.1790
13933W        W27347   0.964   7.323  14.626 -0.1437 -0.0965  0.1679
13934W        W27348   3.523   8.685  10.780 -0.0568 -0.0868 -0.2930
13935W        W27349  10.282   9.312  14.569 -0.0542  0.0533 -0.3037
13936W        W27350   1.487   9.047  12.457  0.0067 -0.1354  0.2262
13937W        W27351  15.224  14.235   4.367  0.1809  0.1895 -0.0857
13938W        W27352   6.332  11.292  13.898  0.2384 -0.1078 -0.0386
13939W        W27353  10.238   5.776   0.247 -0.0474 -0.0318  0.1177
13940W        W27354   0.570  14.741  14.059 -0.0855  0.0503  0.3440
13941W        W27355  11.960  14.096   5.918  0.1668 -0.0994 -0.2614
13942W        W27356   3.140  12.785  14.134  0.1764 -0.2183 -0.2254
13943W        W27357   4.036   0.357  11.219 -0.2127 -0.0617  0.4656
13944W        W27358  12.448   7.419  13.899  0.1480  0.0185  0.2296
13945W        W27359   8.267   5.224  16.322  0.1516  0.3379 -0.4920
13946W        W27360  14.106  12.598   0.708  0.2004 -0.2761 -0.1241
13947W        W27361  16.707  10.338  11.025  0.4121 -0.0885 -0.1432
13948W        W27362   1.181   6.954   1.179 -0.0142 -0.1122 -0.0397
13949W        W27363  13.949   7.630   1.150  0.2863  0.0617 -0.1309
13950W        W27364   6.690   2.066  13.108  0.1199  0.0449  0.2049
13951W        W27365   5.998   3.527  15.252 -0.0777  0.1283  0.0106
13952W        W27366   4.419  18.174  12.230 -0.1813  0.0829 -0.4318
13953W        W27367  11.053   5.818   0.042 -0.0342 -0.1053 -0.0568
13954W        W27368  18.114  16.980  11.351 -0.0307 -0.0231  0.2597
13955W        W27369  17.655   5.116   3.155  0.0964 -0.1898  0.0636
13956W        W27370   5.309   9.026  12.663  0.0746  0.0212  0.0496
13957W        W27371  12.383  15.491   1.133 -0.0780  0.0838 -0.2039
13958W        W27372   3.041   2.940   6.106 -0.0469 -0.1676 -0.2513
13959W        W27373   5.383   6.933  15.767  0.0069 -0.1187 -0.1530
13960W        W27374   1.411   4.181   0.702 -0.0234 -0.0758 -0.1246
13961W        W27375   4.822   4.202  16.247 -0.1571  0.1131  0.1308
13962W        W27376  14.042  13.166   3.457 -0.0713  0.1480  0.2091
13963W        W27377  12.296  18.340  13.188 -0.2886  0.4951 -0.3648
13964W        W27378  16.498   6.901   3.341  0.0247  0.2269 -0.2486
13965W        W27379   1.638  16.402   0.382 -0.1002 -0.0877 -0.1493
13966W        W27380  14.088   8.987  14.627  0.0983 -0.0426 -0.0195
13967W        W27381   1.761  11.157   0.195  0.1847  0.0653  0.0952
13968W        W27382  14.725   1.027   1.140 -0.0660  0.1846 -0.2528
13969W        W27383  12.586   5.314  11.317 -0.0612  0.1989  0.1255
13970W        W27384   3.817  12.304   6.152  0.1631 -0.1885  0.0267
13971W        W27385  10.492   3.321  11.636 -0.1650  0.1268  0.0598
13972W        W27386  13.839  12.218   5.842 -0.2751  0.0880 -0.4363
13973W        W27387   5.943   3.220   4.761 -0.0491 -0.0953  0.0645
13974W        W27388   3.901  16.212   2.940  0.3384  0.0046  0.1438
13975W        W27389   7.051   0.573   1.227 -0.1606 -0.0896 -0.0872
13976W        W27390  10.284  17.755  14.542  0.1946 -0.2335  0.2913
13977W        W27391   3.628   9.681   0.095 -0.0285  0.0378  0.1888
13978W        W27392   0.485   5.811   0.444  0.2009 -0.3052 -0.3461
13979W        W27393  11.184  17.189   5.183  0.3075 -0.3430  0.2129
13980W        W27394   5.791   1.909   5.360 -0.2332 -0.2460  0.2846
13981W        W27395   2.712   6.556   3.506  0.0798 -0.0501  0.3927
13982W        W27396   0.420   8.175  12.245  0.1833 -0.2335  0.3239
13983W        W27397  17.551   9.657   5.195  0.1013 -0.1538  0.0166
13984W        W27398  16.211  16.915   7.345 -0.2099 -0.0948 -0.1028
13985W        W27399  17.402   8.270  11.655 -0.0581 -0.1064 -0.2407
13986W        W27400   7.990  16.183  11.510  0.0946  0.1683 -0.2616
13987W        W27401   0.537   0.818  13.541  0.2628  0.2761  0.3321
13988W        W27402   3.698   6.139   2.354  0.3276  0.1570 -0.0067
13989W        W27403  14.756   9.332   3.013  0.0296 -0.0566  0.2058
13990W        W27404   5.734   0.656   3.841  0.1834  0.1786  0.0251
13991W        W27405  14.684   6.128  11.334  0.2217 -0.2598  0.2650
13992W        W27406   0.940  11.337  13.690 -0.0841  0.1919  0.2190
13993W        W27407  11.995  16.415  13.090 -0.1474  0.2774 -0.0295
13994W        W27408   2.781  17.762  13.971 -0.1038 -0.2388 -0.1360
13995W        W27409  13.127   9.090   2.446 -0.4921  0.1165 -0.1994
13996W        W27410   7.452   7.792   1.906  0.2495  0.0643  0.1564
13997W        W27411  11.872   2.452   3.685 -0.2602 -0.2395  0.1108
13998W        W27412   3.542   4.683   1.947 -0.0352  0.0629 -0.1693
13999W        W27413   2.141   0.659  14.662  0.0783 -0.1042 -0.0001
14000W        W27414  15.531  15.395  13.182  0.0744 -0.0296 -0.2144
14001W        W27415   7.840  13.148  11.104  0.0930 -0.3142  0.2065
14002W        W27416   2.307  12.457   1.265  0.0142  0.1250  0.0557
14003W        W27417   5.404  13.532   2.366  0.0071 -0.3378  0.1619
14004W        W27418   0.694  10.127  10.464 -0.1496  0.2161 -0.2464
14005W        W27419   8.407   0.341   5.001  0.0893  0.1186 -0.1685
14006W        W27420   0.370   9.006  16.202  0.1320 -0.1511  0.3548
14007W        W27421   0.118   0.589   3.406 -0.1086  0.0163 -0.1799
14008W        W27422  11.223  11.637  16.126 -0.1008  0.1065  0.1511
14009W        W27423  12.624  16.772   3.628  0.0149  0.1467 -0.0824
14010W        W27424  14.506   7.803  10.658  0.0698  0.2448  0.1036
14011W        W27425  16.198  15.556   5.039  0.3615  0.0147 -0.1356
14012W        W27426   2.099  13.156   4.522  0.2329 -0.0433  0.0930
14013W        W27427   6.413  12.261   1.093  0.3063  0.2761 -0.0108
14014W        W27428   7.051  11.099  16.408 -0.0372 -0.1435 -0.0899
14015W        W27429  13.957   9.659   3.620  0.0155  0.2376  0.1061
14016W        W27430   1.237   3.225   1.885  0.1649 -0.1229 -0.2739
14017W        W27431   4.555   8.448   0.668  0.2670  0.0482  0.0289
14018W        W27432   5.446   9.910  12.963  0.3191  0.2785 -0.0920
14019W        W27433  10.979  18.086   3.028  0.2275  0.5773 -0.2141
14020W        W27434  16.127  11.965   0.011  0.2118 -0.3719 -0.0343
14021W        W27435  13.244   8.338   4.599  0.1209  0.2091  0.1047
14022W        W27436  17.780   4.881  14.454  0.0256  0.0805 -0.2832
14023W        W27437  13.594   1.397   1.684  0.0822  0.0236  0.2976
14024W        W27438   4.773   1.546  14.513  0.0413 -0.0365  0.2430
14025W        W27439   5.447  10.533   4.144  0.0236  0.0293 -0.0733
14026W        W27440   5.542   8.470  11.553 -0.1175  0.1432  0.1935
14027W        W27441   4.983  17.926  13.670 -0.1119 -0.1169  0.1112
14028W        W27442  14.106   0.938   0.638 -0.1005 -0.1025  0.2706
14029W        W27443  13.216  13.396   1.014 -0.2535 -0.2026 -0.3365
14030W        W27444   7.122   8.152  13.953 -0.0339 -0.0450  0.0299
14031W        W27445  17.308   4.484   1.627  0.0565 -0.1281  0.0910
14032W        W27446   3.091  14.154  11.278 -0.1740 -0.2030 -0.0194
14033W        W27447   5.691   6.604   2.946  0.2842 -0.4073 -0.3348
14034W        W27448  17.620   1.125  14.913 -0.1202 -0.1759 -0.3482
14035W        W27449  18.079  15.575  11.710 -0.1117 -0.0238  0.0357
14036W        W27450   1.104  18.396   5.411  0.2425 -0.2877  0.1622
14037W        W27451  12.831   2.205  15.504 -0.1712  0.0676  0.1140
14038W        W27452  15.264   3.703   5.040 -0.3505 -0.4426 -0.0364
14039W        W27453   7.494   8.347   1.473  0.1565 -0.3328 -0.0387
14040W        W27454  16.080  17.827  11.577 -0.0324 -0.4416 -0.1173
14041W        W27455   1.353   1.735   6.339 -0.0923 -0.1384 -0.0605
14042W        W27456  17.921   7.195  11.371 -0.3772 -0.0240  0.4281
14043W        W27457  17.092   9.680   2.931 -0.0409 -0.2295 -0.1298
14044W        W27458   1.122   6.953  10.444  0.0213  0.1356  0.2672
14045W        W27459   4.586  17.617  10.866 -0.0478  0.2159 -0.1386
14046W        W27460   4.103  17.107   5.551  0.0933 -0.3098  0.0784
14047W        W27461   5.618  15.312   1.089 -0.3737  0.1761 -0.0668
14048W        W27462  17.793  11.527   6.223  0.4459 -0.1762  0.1408
14049W        W27463   4.785   1.081   5.701 -0.1708  0.2530 -0.0568
14050W        W27464  15.409   4.331  13.598  0.2512  0.0552  0.2751
14051W        W27465   8.034  13.437   2.094  0.1620  0.1664  0.1755
14052W        W27466   5.039  14.266   0.299 -0.2906  0.1277  0.0541
14053W        W27467  13.237  13.315  13.284 -0.3316  0.0397 -0.1798
14054W        W27468  13.774  12.695  13.869 -0.0618  0.2012  0.2012
14055W        W27469   2.654  13.613   5.876 -0.0142 -0.1509 -0.1516
14056W        W27470  11.717  17.639   3.606  0.2671  0.5776 -0.3034
14057W        W27471   7.398   1.741   4.359 -0.0452 -0.0560 -0.3613
14058W        W27472  18.363   0.300   1.532 -0.1979 -0.0126  0.0867
14059W        W27473   6.231  13.797   0.240  0.1134  0.0757  0.1729
14060W        W27474  17.785  11.384   4.101 -0.1317 -0.1823 -0.0594
14061W        W27475  14.470   0.998  14.216 -0.0926 -0.1539  0.1752
14062W        W27476   5.879  16.161   1.260  0.0622  0.0112  0.4068
14063W        W27477  11.974  17.204   2.512 -0.1089 -0.1204  0.1573
14064W        W27478   7.138   1.271   4.318 -0.1505 -0.0454 -0.1676
14065W        W27479  13.285  18.142   0.311  0.3498 -0.1488 -0.0810
14066W        W27480  11.164   1.112  15.647  0.0661 -0.4024  0.1822
14067W        W27481  18.292  12.332  15.923  0.0602 -0.0152 -0.0009
14068W        W27482  13.249  10.533   1.792  0.2352  0.1572  0.1381
14069W        W27483   0.392   2.714  14.911 -0.2005  0.1616 -0.3248
14070W        W27484   7.117  14.083   1.378 -0.0507 -0.2427  0.0750
14071W        W27485  10.329   8.942  15.026  0.3544 -0.3147  0.0157
14072W        W27486   2.687  14.658  14.379  0.0090  0.3954 -0.2029
14073W        W27487   8.060   2.550  10.273  0.2927  0.0354  0.0605
14074W        W27488   1.278   5.987   1.177  0.1040  0.1094  0.0662
14075W        W27489   5.762  13.254   3.766 -0.0337  0.0369  0.1721
14076W        W27490   3.481   4.498   2.756  0.2496  0.0509 -0.3081
14077W        W27491   8.235   9.433   6.306  0.3492  0.1128 -0.2063
14078W        W27492  17.800   3.949  14.187 -0.3320  0.1398  0.0589
14079W        W27493   8.033   1.928   4.453 -0.1990 -0.1078 -0.0183
14080W        W27494  17.090  12.588   3.575 -0.2258  0.1151 -0.0909
14081W        W27495   0.330  18.001  11.708  0.1876  0.3274  0.1320
14082W        W27496   9.258   1.192   2.595  0.3414  0.0643 -0.1477
14083W        W27497   9.016  10.264   1.318 -0.0840 -0.0494  0.2073
14084W        W27498   8.095  17.426   0.298  0.0240 -0.2122  0.2712
14085W        W27499   7.871  16.697   4.150 -0.1081 -0.1119  0.1164
14086W        W27500   9.047   9.329   1.542 -0.2699 -0.0759 -0.1025
14087W        W27501  12.370   3.991  10.944  0.1279  0.0441  0.1125
14088W        W27502   2.616  15.788   0.039 -0.0404 -0.2713 -0.2941
14089W        W27503  15.472   4.667  12.617 -0.0254  0.0790 -0.0021
14090W        W27504   9.876  17.765  15.331  0.0996  0.2130  0.1950
14091W        W27505  18.225   9.243   4.861  0.0037  0.0476 -0.0202
14092W        W27506   1.747  17.625  16.040  0.0020  0.1146 -0.0867
14093W        W27507   4.991   2.880   5.128  0.0315 -0.2557 -0.1508
14094W        W27508  10.779   8.741   2.567 -0.0285 -0.1741 -0.1399
14095W        W27509   3.551  16.214  13.317 -0.2299 -0.1967  0.0875
14096W        W27510   0.647   9.270   1.843  0.0514 -0.0303  0.2286
14097W        W27511  12.109  18.372  11.446 -0.3809 -0.0568 -0.0809
14098W        W27512   0.790   5.565   1.121  0.0436 -0.0850  0.0859
14099W        W27513  12.672  11.775  13.533 -0.0935  0.2024  0.0501
14100W        W27514   8.187   3.556  10.098  0.1875 -0.1848  0.0444
14101W        W27515  15.951  10.892  16.105  0.2066  0.0058 -0.0429
14102W        W27516  15.990  16.201   5.552 -0.2241 -0.0208  0.2262
14103W        W27517   1.219  11.394  14.109  0.2681 -0.1263  0.2432
14104W        W27518  12.524  14.557   0.058  0.4113 -0.1368  0.1551
14105W        W27519   5.193   4.392  12.561 -0.0897  0.1710  0.0783
14106W        W27520  10.042   4.687   4.322  0.0079  0.0856 -0.2203
14107W        W27521   7.558  14.556   5.715 -0.0454 -0.1934  0.0703
14108W        W27522   1.274  16.772   5.712  0.1580 -0.2313  0.1717
14109W        W27523   2.890   6.692  14.982 -0.2111 -0.2367  0.0637
14110W        W27524   6.426   7.031  12.523  0.4095  0.0817  0.1759
14111W        W27525   9.106   9.383  14.519  0.3066  0.1035  0.0377
14112W        W27526   8.352   1.696   2.535 -0.0329  0.0200 -0.3673
14113W        W27527  13.966   8.184   3.957 -0.4049 -0.1557 -0.0050
14114W        W27528   6.699   3.784   3.993 -0.0573 -0.0340 -0.0349
14115W        W27529   9.970  12.659   5.065 -0.1584  0.2437 -0.1225
14116W        W27530   3.569  16.868   1.820 -0.0253  0.2964 -0.0931
14117W        W27531  11.942   6.370  11.699 -0.0801  0.2152  0.1450
14118W        W27532  15.853  14.173  13.060  0.0172 -0.0147 -0.2968
14119W        W27533  13.407  16.400  12.992 -0.0981 -0.2718 -0.2065
14120W        W27534  18.014  15.036   2.139  0.3036  0.1305 -0.1450
14121W        W27535  10.012  10.738  14.448 -0.0316  0.0958  0.0715
14122W        W27536   6.730   6.813  11.142  0.1085 -0.1229 -0.0758
14123W        W27537  18.200   9.513  13.960 -0.1387 -0.0285  0.0468
14124W        W27538   8.260   7.381   1.279  0.3251  0.0902 -0.2010
14125W        W27539   6.653   6.741   6.159  0.1761  0.1051  0.2645
14126W        W27540  11.417  12.568   1.586 -0.3523 -0.0269  0.2128
14127W        W27541   0.616  12.939  16.132  0.2393 -0.3160 -0.5953
14128W        W27542   0.663   2.114   3.322  0.2117 -0.0524 -0.1737
14129W        W27543   6.353  10.462   2.036 -0.1874  0.0024 -0.1605
14130W        W27544   8.127   4.122  10.508 -0.2710  0.0642 -0.3875
14131W        W27545  13.874   3.861  14.018  0.0325 -0.1307  0.0791
14132W        W27546   4.524   4.382   0.766 -0.0887  0.0119 -0.0962
14133W        W27547   2.979   4.092  11.091 -0.0571  0.3424  0.2263
14134W        W27548  17.150  15.674   1.319  0.0811 -0.0251  0.0310
14135W        W27549  10.108  14.539   5.055  0.2453  0.0735  0.1619
14136W        W27550   3.025   2.314  12.118 -0.0013 -0.1037  0.0097
14137W        W27551   9.183  11.484  10.752 -0.0606 -0.1353  0.2941
14138W        W27552  13.973  14.520   0.856  0.0111  0.1619  0.0218
14139W        W27553   4.659  15.170  12.621  0.0359  0.1092 -0.1925
14140W        W27554   6.935   7.713   2.646  0.4350 -0.5916 -0.3595
14141W        W27555   7.066   0.804  11.043  0.2673  0.1059 -0.0200
14142W        W27556  18.357  11.971   0.771  0.4521 -0.0589 -0.1862
14143W        W27557  13.699   4.166  14.584  0.3883  0.4739  0.1705
14144W        W27558  15.417  13.471  14.769  0.0739  0.2721  0.3188
14145W        W27559   8.238  10.282  11.692  0.1006 -0.0242 -0.1915
14146W        W27560  13.125  11.461   2.541  0.1368 -0.1676 -0.3491
14147W        W27561   4.829  17.352  10.461  0.1671  0.0441  0.0437
14148W        W27562  11.283  15.795  11.510  0.0706 -0.2001 -0.0304
14149W        W27563  15.356  12.111  13.256 -0.0750 -0.3073 -0.2615
14150W        W27564   8.315   1.409   4.376  0.1361  0.1768 -0.0594
14151W        W27565  14.848   5.887   3.749 -0.1806  0.2230 -0.1101
14152W        W27566  15.905  15.075  15.417 -0.3576  0.0482 -0.0415
14153W        W27567   6.108  16.003  11.647 -0.1036  0.2015 -0.2053
14154W        W27568   2.462   0.651   2.868 -0.0296  0.2172 -0.0401
14155W        W27569  16.465   5.537  11.150 -0.0096 -0.1052  0.0127
14156W        W27570  15.661  17.339  11.815  0.0924  0.0570 -0.0884
14157W        W27571  17.972   0.960  16.443  0.0384  0.1649  0.0549
14158W        W27572  16.916   8.326  16.126  0.0254  0.1006 -0.1020
14159W        W27573  16.450   9.486   3.870 -0.0476 -0.0114  0.0412
14160W        W27574   7.499   2.542   1.641  0.0390  0.0571  0.3392
14161W        W27575   0.725   8.116  10.338 -0.0326  0.0795 -0.2052
14162W        W27576   8.235   7.090  11.347 -0.2183  0.0596  0.2568
14163W        W27577  12.128   9.551   3.202  0.0868 -0.3888 -0.1242
14164W        W27578   7.116   2.624   3.107 -0.0927  0.0808  0.1202
14165W        W27579   2.954  17.984  15.262 -0.0178 -0.0186  0.2392
14166W        W27580  14.080  10.041  15.672 -0.0482  0.3060  0.2731
14167W        W27581   2.181   2.904   4.085  0.0243  0.2591  0.0511
14168W        W27582  13.432   0.758   2.355 -0.0511 -0.1666 -0.0828
14169W        W27583  13.896  13.633  11.974 -0.0824  0.1751 -0.0873
14170W        W27584  13.083  14.713   2.081 -0.0871  0.1211 -0.1150
14171W        W27585  14.147  16.988   4.370  0.0435  0.0509  0.0809
14172W        W27586   2.308  12.663   4.527 -0.5276 -0.0085  0.0576
14173W        W27587  13.947  14.787   5.349  0.0024  0.0845  0.0392
14174W        W27588  10.030   3.454  11.496  0.0544  0.2560 -0.0310
14175W        W27589  11.056   5.931   3.438 -0.2801  0.0511  0.1010
14176W        W27590  10.341  11.925   4.782  0.0991  0.3472  0.1271
14177W        W27591  12.984   8.184  16.488 -0.0921 -0.1710  0.1742
14178W        W27592  10.890   1.453   6.010 -0.0873 -0.0858  0.1257
14179W        W27593   2.462   9.772   4.692 -0.1556 -0.2157 -0.2020
14180W        W27594  17.852   8.298  12.051  0.0133  0.2780  0.2646
14181W        W27595   7.486   3.166   2.423 -0.1966 -0.2977  0.2510
14182W        W27596   1.235  17.060   4.861 -0.1945 -0.1094 -0.1781
14183W        W27597   1.459  15.059   5.958  0.3106 -0.3147 -0.2096
14184W        W27598  13.180  17.371   5.093 -0.0942 -0.2377 -0.4869
14185W        W27599  12.743   0.429   0.809 -0.0481 -0.2607  0.1490
14186W        W27600   0.128  10.008  15.232 -0.0326  0.0160 -0.0755
14187W        W27601  17.475  13.166   5.593  0.1718 -0.0377  0.1309
14188W        W27602   0.587   2.422  12.312  0.0955 -0.2825  0.3005
14189W        W27603  10.432   8.238   5.702  0.0474  0.2114 -0.4259
14190W        W27604   1.970  16.394   5.925  0.1662  0.2958 -0.0584
14191W        W27605  16.624   7.386  11.083 -0.0640 -0.0384  0.3027
14192W        W27606   4.235   1.562   4.463 -0.0317 -0.0308  0.1431
14193W        W27607   2.925  16.605   2.471  0.0698  0.0698  0.0146
14194W        W27608  13.181  15.618   0.740  0.0034 -0.1268 -0.0396
14195W        W27609  14.981   3.282  13.314  0.2631 -0.1494  0.0403
14196W        W27610  10.940   7.664  13.018  0.3751 -0.0524  0.0639
14197W        W27611   8.228  13.134   4.366  0.3946 -0.2064 -0.0247
14198W        W27612   5.979   3.538   1.712 -0.0673  0.3396  0.3033
14199W        W27613  10.772  10.792   0.041  0.0292  0.2663 -0.1509
14200W        W27614   7.105  11.929  14.670  0.2570  0.0604  0.2944
14201W        W27615  16.967  18.299  12.526 -0.4926 -0.3265 -0.0286
14202W        W27616  11.340  17.115  12.801 -0.0971  0.1735  0.3729
14203W        W27617   7.642   5.335  12.472  0.3460  0.1855 -0.2740
14204W        W27618  11.390  10.812   1.634  0.0320  0.3746  0.2195
14205W        W27619  14.633  16.072   0.151 -0.0611  0.2045  0.2284
14206W        W27620  16.169   9.656  15.528  0.1194  0.4697 -0.1228
14207W        W27621  16.714   1.211  13.743 -0.3392  0.1332  0.0085
14208W        W27622   4.448  16.910   3.791  0.0811 -0.1017  0.0574
14209W        W27623  14.185   6.718   1.094  0.1005 -0.0639 -0.1738
14210W        W27624   6.673   8.399  12.250  0.2351  0.0038 -0.0828
14211W        W27625   8.021  14.713   1.634  0.0258 -0.3610  0.2159
14212W        W27626   7.138  15.867  10.629  0.1782 -0.1801 -0.2165
14213W        W27627   4.528   3.261  13.839  0.1908  0.1813 -0.2495
14214W        W27628  18.339   9.101  10.099 -0.2446 -0.0597 -0.1003
14215W        W27629  10.205  16.248   3.374 -0.0734  0.1378  0.0291
14216W        W27630  14.005   7.360   4.364 -0.0578  0.2782 -0.1640
14217W        W27631   9.907   3.087  15.746 -0.0803 -0.0596  0.0580
14218W        W27632  17.377   6.600   1.926 -0.1810 -0.3419  0.0799
14219W        W27633   1.124  15.431  12.099  0.4359 -0.0690 -0.2818
14220W        W27634  12.415   5.934   5.580 -0.0948  0.0134 -0.2754
14221W        W27635   0.230   0.730   1.771  0.0190 -0.0282 -0.0618
14222W        W27636  16.830   7.978   0.078  0.0603 -0.1859  0.0466
14223W        W27637   8.924  10.664   2.912 -0.1196  0.0253 -0.2141
14224W        W27638  15.536   7.819  14.017  0.0080  0.4913  0.0199
14225W        W27639  15.248   8.547   3.672 -0.1984 -0.0516  0.3189
14226W        W27640   4.212   5.685   0.009  0.1632  0.0676  0.1805
14227W        W27641   7.282   1.896  13.779  0.0881 -0.0279  0.1792
14228W        W27642   7.473   4.236  14.058  0.3945  0.1552 -0.2534
14229W        W27643   7.979  11.296  11.481  0.1909 -0.0071 -0.0745
14230W        W27644  12.067  16.393  13.563  0.0071 -0.1218  0.1391
14231W        W27645   8.411   8.524  15.680  0.1331  0.1873 -0.1384
14232W        W27646   0.451  12.769  14.386 -0.0230  0.0952  0.0401
14233W        W27647   1.036   9.183   3.683  0.0722 -0.2513 -0.1534
14234W        W27648   9.586   0.929  16.145  0.0534 -0.3049 -0.1660
14235W        W27649  13.703  15.325   4.071 -0.2571  0.1516  0.0566
14236W        W27650  15.848  10.996   0.665  0.0303 -0.2657 -0.3843
14237W        W27651  17.236   6.185   4.915 -0.0692  0.1714  0.0757
14238W        W27652   4.539  12.369  11.514  0.0363 -0.0345 -0.2213
14239W        W27653   0.074   9.694  15.760  0.3032  0.1268 -0.1592
14240W        W27654   4.165  13.398  15.603 -0.0075  0.2935  0.3691
14241W        W27655   8.670  17.038  13.263 -0.0613  0.3115  0.2186
14242W        W27656  12.726  12.427  12.220  0.0462  0.1441 -0.0971
14243W        W27657   5.498   8.859   5.307  0.0312  0.0141 -0.0428
14244W        W27658  17.609  11.941  16.334  0.2531  0.1452 -0.1717
14245W        W27659  12.884   4.139   0.393 -0.1864  0.2548 -0.1221
14246W        W27660   0.126   2.110  12.409 -0.2180  0.2560  0.2083
14247W        W27661   9.263  14.683  10.550 -0.0047 -0.2235 -0.1877
14248W        W27662   0.554   3.385  13.266 -0.0203 -0.2176  0.3911
14249W        W27663  11.959   0.994   1.863  0.0979  0.1127 -0.0224
14250W        W27664   1.670   9.607   5.920 -0.0613 -0.1267  0.1283
14251W        W27665   2.985   5.292  11.948  0.0638 -0.1441 -0.1296
14252W        W27666  15.805   9.290  11.995 -0.1242  0.1188  0.3354
14253W        W27667  15.245  11.676   0.395 -0.0764  0.2005 -0.1974
14254W        W27668   0.677  11.865   3.856  0.2345  0.1767 -0.0788
14255W        W27669  17.028  14.642   4.421 -0.0300  0.3814 -0.0294
14256W        W27670  16.999  10.131   5.660 -0.1610  0.0828 -0.0830
14257W        W27671   5.555   3.826   1.916 -0.0383 -0.1232 -0.1988
14258W        W27672  12.855  13.788   4.824  0.2155 -0.1655  0.2911
14259W        W27673   5.292  12.747  14.968 -0.3342 -0.1084  0.1293
14260W        W27674   3.630   5.569   4.766  0.0398 -0.0521  0.1990
14261W        W27675  12.378  17.519   0.172 -0.1785  0.0501 -0.2479
14262W        W27676  16.783   6.764  13.055 -0.3449  0.3305  0.0910
14263W        W27677   0.553  12.338   4.019  0.0859  0.1050 -0.1104
14264W        W27678  16.101   1.168   3.089  0.0485  0.1162  0.0321
14265W        W27679   4.357   6.884  16.013  0.4300  0.3095  0.0398
14266W        W27680  17.265   2.004  15.169  0.2563 -0.1663  0.1399
14267W        W27681  14.759  10.273  10.475 -0.0922  0.0864  0.1247
14268W        W27682  13.584   9.957   6.494  0.3702 -0.0095 -0.2057
14269W        W27683   2.010   5.996  10.630  0.3676 -0.0162  0.0015
14270W        W27684   3.569   3.823  14.915  0.1370  0.0873  0.2162
14271W        W27685   6.095  11.262  12.483 -0.1378  0.1493  0.0961
14272W        W27686   1.679   1.069  16.151 -0.2840 -0.1716 -0.1173
14273W        W27687   3.445  12.033   0.479  0.1897  0.0657 -0.3353
14274W        W27688   3.198   7.916   4.140 -0.3768 -0.2064 -0.2834
14275W        W27689   2.589  16.707  15.278  0.3654 -0.4132 -0.0306
14276W        W27690   7.900  16.471   0.328 -0.1823  0.0731  0.2664
14277W        W27691  14.419  13.036   0.059 -0.1092 -0.0074  0.1383
14278W        W27692   8.853   3.243   0.472 -0.3746  0.5180 -0.1429
14279W        W27693   9.820  18.123   2.192  0.2140  0.0028 -0.0441
14280W        W27694  11.147   5.379  14.899  0.1150 -0.0070  0.0175
14281W        W27695  11.870  14.012   3.649  0.0405  0.2448  0.2554
14282W        W27696   7.286  15.430  15.842 -0.3882 -0.1883 -0.0570
14283W        W27697   4.014  12.255   1.804  0.0066 -0.0804 -0.0985
14284W        W27698   7.264   5.894  11.329 -0.1498 -0.1376 -0.2575
14285W        W27699  10.074   0.828  11.747  0.3364 -0.1673  0.1172
14286W        W27700  13.384   5.071   1.355 -0.1894 -0.3512 -0.2331
14287W        W27701  14.823   7.401  15.635  0.1641  0.0596 -0.0997
14288W        W27702   7.959   9.762  13.678  0.1461 -0.1792 -0.2644
14289W        W27703  17.421  15.903   2.377 -0.3135  0.0812  0.0653
14290W        W27704   8.727  13.393   5.040 -0.0362 -0.2359  0.2026
14291W        W27705  15.737  13.343  16.229  0.0246  0.2624  0.1344
14292W        W27706  12.957  14.081  14.866 -0.0830 -0.0967  0.0170
14293W        W27707  13.627   2.166  11.737  0.3624 -0.0605  0.1793
14294W        W27708   1.554   5.872  14.608  0.1221 -0.0508 -0.1110
14295W        W27709   7.821  17.977  15.787  0.0826 -0.0404 -0.0926
14296W        W27710  14.066  16.718   3.692 -0.1353  0.1771  0.1506
14297W        W27711  13.024   5.624  13.772 -0.1445 -0.2569 -0.1665
14298W        W27712   4.539  14.923   1.629  0.1597 -0.0366 -0.3198
14299W        W27713   6.090   4.581  15.848  0.0043 -0.0851  0.0721
14300W        W27714   4.440   5.843  15.627 -0.0856  0.0478  0.1602
14301W        W27715  13.748   5.694   4.289  0.4485 -0.0217  0.0165
14302W        W27716  12.349   4.500  10.961 -0.1259  0.0386 -0.2373
14303W        W27717   6.141  15.353   3.596  0.0009 -0.2726  0.1880
14304W        W27718   4.277   4.593   1.247 -0.0190 -0.1810 -0.2775
14305W        W27719  15.303   7.529   4.680 -0.0698  0.0141 -0.0904
14306W        W27720  15.284   0.360  16.473 -0.0329 -0.1379  0.1644
14307W        W27721  15.627   2.422  14.973 -0.0691  0.2512  0.0159
14308W        W27722   0.901  17.432   1.467  0.0464 -0.0924 -0.2130
14309W        W27723   6.166   6.288   3.992  0.1203 -0.1215  0.0799
14310W        W27724   4.500   1.238   2.730  0.0086  0.0120 -0.3123
14311W        W27725   1.304   8.314  10.374  0.0782 -0.0970  0.1292
14312W        W27726   9.446   8.152   4.533  0.2019  0.3203  0.1578
14313W        W27727   3.622   3.051   1.950 -0.1005 -0.3042 -0.0299
14314W        W27728   2.101   1.442   5.709  0.0407  0.0871  0.1360
14315W        W27729  13.101   0.016   1.944  0.1187  0.0093 -0.0124
14316W        W27730   5.725   1.036  12.745 -0.4966 -0.4256  0.0957
14317W        W27731   8.155  13.726  12.885  0.0075 -0.0676 -0.1013
14318W        W27732   5.656   2.498   3.674  0.2038 -0.0299 -0.2918
14319W        W27733   2.713   1.430   6.015  0.2415  0.0393  0.0624
14320W        W27734  13.339  16.461   4.728 -0.1322 -0.0284  0.1942
14321W        W27735  11.336  16.351   3.060  0.0969  0.0942 -0.3175
14322W        W27736  15.069  12.117   0.358  0.1274  0.2102 -0.2095
14323W        W27737   5.533  13.639  12.032 -0.0235 -0.3820 -0.1038
14324W        W27738  14.114   1.634   6.071  0.3072  0.0466  0.0425
14325W        W27739   0.684   3.091  14.784 -0.1312  0.1556  0.1686
14326W        W27740   5.368  13.220   5.961  0.1003 -0.0582 -0.0028
14327W        W27741  10.727   5.046  12.563  0.0923  0.2498 -0.0687
14328W        W27742  15.004  14.025  14.146 -0.2029 -0.3172 -0.0803
14329W        W27743   1.036  10.236   0.667  0.0029 -0.0890  0.0560
14330W        W27744   9.370   4.112   1.717 -0.1940  0.3073  0.0933
14331W        W27745  16.410   2.747  10.620  0.1338  0.4346  0.0162
14332W        W27746   0.202  17.970   5.577  0.1177 -0.1661  0.0466
14333W        W27747   8.380   6.231  15.915  0.0836  0.2896  0.0745
14334W        W27748  14.195   2.179   0.989  0.4291  0.2096  0.4374
14335W        W27749   1.272   6.157   0.669 -0.0326  0.2170  0.3422
14336W        W27750   8.346   6.781   3.270  0.1539 -0.1434 -0.2514
14337W        W27751   5.625   1.431  13.073 -0.0134 -0.2808 -0.0140
14338W        W27752   2.424   8.432  14.711  0.0910 -0.1351 -0.1946
14339W        W27753  12.716   5.297   3.022 -0.2606  0.1545 -0.4025
14340W        W27754   3.999   9.952  14.688  0.2534 -0.0783  0.0294
14341W        W27755   3.114  11.279   4.111  0.2163 -0.0658  0.2208
14342W        W27756   8.555   4.651   3.618 -0.1588  0.2398  0.2393
14343W        W27757  17.116   8.492  15.126  0.0339  0.2582  0.3654
14344W        W27758  11.129   0.722  10.491  0.0693  0.0826  0.1448
14345W        W27759  16.196   1.647   1.219 -0.1175 -0.2362  0.0416
14346W        W27760   6.216  13.129   4.533 -0.0137 -0.2650 -0.2445
14347W        W27761  12.440  16.743  13.320 -0.1682  0.3227 -0.0259
14348W        W27762   2.989  10.284   4.252  0.0790  0.0098 -0.0882
14349W        W27763  10.251  13.266  13.233 -0.3864 -0.1469  0.2250
14350W        W27764  16.944  10.832   4.934 -0.3377 -0.0565  0.2743
14351W        W27765  14.994   4.640   1.999 -0.1579  0.1754 -0.1736
14352W        W27766   0.623  11.009   3.606  0.1055  0.0493  0.0865
14353W        W27767   9.003  16.288   2.055 -0.2704 -0.3400  0.1166
14354W        W27768  16.391   0.382   6.460 -0.0997 -0.3584  0.1876
14355W        W27769   5.706   7.220  11.989 -0.1182 -0.2859  0.3155
14356W        W27770  10.765  14.240   0.656 -0.0691 -0.0636  0.0141
14357W        W27771   8.456   8.162  14.826  0.3659 -0.0782 -0.3172
14358W        W27772   0.865   9.630  14.142 -0.1694 -0.1735  0.3342
14359W        W27773   2.405   9.366  14.957  0.1199 -0.0249  0.2295
14360W        W27774  17.064   1.276   5.126 -0.0107  0.0403  0.0276
14361W        W27775   2.670  11.744   2.444 -0.1596 -0.3185  0.1587
14362W        W27776   8.443   0.287   2.862 -0.0540  0.0141 -0.1136
14363W        W27777  12.356  10.051  13.855  0.0096  0.0301  0.0561
14364W        W27778  10.481  11.022   2.119  0.0901  0.0650  0.0484
14365W        W27779  15.489   3.458   0.739 -0.0220  0.1828  0.1266
14366W        W27780  15.141  11.677   4.224 -0.0296  0.1100  0.1474
14367W        W27781  16.533   2.879  11.804 -0.1514 -0.1690  0.2353
14368W        W27782  13.006   2.860  12.346 -0.0405 -0.0219 -0.4824
14369W        W27783  12.643   8.654   1.684 -0.0623  0.2034 -0.2736
14370W        W27784   5.113  10.199   3.883 -0.3735  0.2027 -0.0644
14371W        W27785  12.816  15.748  11.806 -0.1561 -0.0233 -0.1681
14372W        W27786  13.678  16.833   4.580 -0.1396 -0.0564 -0.3614
14373W        W27787   7.763  16.631  14.196  0.0143 -0.0949 -0.0511
14374W        W27788   8.163   5.338   1.339 -0.0520  0.1009 -0.0558
14375W        W27789  17.581   2.674   2.803  0.0254  0.6067  0.0599
14376W        W27790  10.036  17.896   0.669 -0.1986  0.2236  0.0518
14377W        W27791  10.976   7.195  13.610 -0.1104 -0.0936  0.1951
14378W        W27792   8.582   2.866  13.183  0.2639  0.0626 -0.3226
14379W        W27793   1.655  11.333   5.234 -0.0267  0.2224 -0.0191
14380W        W27794  18.164  16.424  11.516  0.3248 -0.2856 -0.3814
14381W        W27795   4.138  14.562   1.029  0.1076 -0.1391 -0.3667
14382W        W27796   9.079   7.859  13.376  0.1051  0.1213  0.0769
14383W        W27797   3.388   6.489  11.868  0.0413 -0.3839  0.1007
14384W        W27798   7.372   3.778   5.798 -0.0800  0.1037  0.1684
14385W        W27799   5.633  15.945   2.614 -0.1444 -0.3408 -0.0462
14386W        W27800   3.241   5.037  15.312  0.0341  0.0352 -0.3689
14387W        W27801   6.083  16.744  10.921  0.1371 -0.2061 -0.2066
14388W        W27802   2.505   7.380  15.877 -0.3256  0.0704  0.0771
14389W        W27803   9.369   9.617  14.186  0.2532  0.1132 -0.1701
14390W        W27804   7.560   6.078   3.364 -0.0166 -0.0746  0.0633
14391W        W27805   1.682   0.591   1.340  0.0202  0.0889 -0.1581
14392W        W27806   7.020  14.705   4.067  0.1873 -0.0623 -0.1640
14393W        W27807   6.519   6.164  13.816  0.4894 -0.1692  0.3577
14394W        W27808   3.104  10.304  14.364  0.0691 -0.1523 -0.0081
14395W        W27809   3.613   4.468  16.467 -0.0661 -0.3444 -0.0269
14396W        W27810   9.202  13.487   4.874  0.0586  0.1193 -0.1447
14397W        W27811   1.944   8.210   5.822 -0.2063  0.1636  0.0561
14398W        W27812   6.282  14.262   3.010 -0.0200  0.4423  0.0815
14399W        W27813  13.234   1.051   0.432  0.0888 -0.0202 -0.0603
14400W        W27814   8.403  10.100   3.677  0.2668 -0.0650  0.0261
14401W        W27815  11.583   6.464   4.702  0.0210  0.0509  0.1324
14402W        W27816   9.054   0.514  11.062  0.0914 -0.0374 -0.1614
14403W        W27817  16.107   2.503  11.101  0.1547 -0.0466  0.1495
14404W        W27818  12.138   7.148  16.058  0.1939 -0.0216  0.0098
14405W        W27819   2.620   4.259   5.093 -0.0918 -0.1309 -0.0433
14406W        W27820  12.817   9.592   1.166 -0.3513  0.0929  0.0594
14407W        W27821   5.371   3.489  14.263 -0.0804  0.1148 -0.0647
14408W        W27822   5.838  14.424  13.861 -0.1164  0.2780 -0.0418
14409W        W27823  13.471  13.021  14.167  0.1776 -0.1426 -0.3095
14410W        W27824   4.113   9.404  11.589  0.0425  0.3528  0.2653
14411W        W27825  10.190   9.447  15.834 -0.2636 -0.2338  0.0278
14412W        W27826   7.213   1.435  16.321 -0.1064 -0.3919 -0.1289
14413W        W27827   6.101   2.707  16.270 -0.0882  0.0476 -0.1413
14414W        W27828  11.248   9.254   1.770 -0.1536 -0.0216 -0.2208
14415W        W27829   0.998  16.700   2.877 -0.0062  0.0036 -0.4374
14416W        W27830   2.091   8.748  13.926  0.0164 -0.1049 -0.1483
14417W        W27831   5.776   1.039  14.163  0.0088 -0.1780 -0.0616
14418W        W27832   1.466  16.988   4.451  0.0008  0.1851 -0.0593
14419W        W27833   5.169  10.440   2.681  0.0131  0.0251  0.0278
14420W        W27834  13.855  17.703  13.691 -0.0495 -0.0106 -0.1847
14421W        W27835   1.667  15.240   4.857  0.1052 -0.0126  0.1398
14422W        W27836  15.570   2.162  13.546 -0.0530  0.1408  0.1657
14423W        W27837   5.536   4.183  14.107  0.0974  0.1084  0.0823
14424W        W27838   2.159  14.489  11.971  0.0837 -0.1997 -0.1962
14425W        W27839   4.153  15.622   4.354  0.0303 -0.3132 -0.2452
14426W        W27840   6.633  18.152   3.453 -0.3025 -0.0308  0.1155
14427W        W27841   8.411  15.981  14.500 -0.0715  0.1122  0.0707
14428W        W27842  15.488  12.708  12.927  0.0947 -0.0509 -0.0423
14429W        W27843   6.758   5.101  15.528 -0.0466 -0.0966 -0.0791
14430W        W27844   2.164  15.771   0.315 -0.0364 -0.0618  0.0159
14431W        W27845   6.223   4.429  11.783 -0.1027  0.2084 -0.0394
14432W        W27846   5.504   1.006  10.662  0.0155 -0.0670 -0.0424
14433W        W27847   8.264   0.073   3.245  0.1896  0.0682 -0.2698
14434W        W27848   5.023  17.022   5.945 -0.0185 -0.0465 -0.1798
14435W        W27849  14.957  16.796   3.287 -0.0169  0.2022 -0.0255
14436W        W27850   9.160   6.714  14.002  0.3527  0.0921 -0.1801
14437W        W27851   9.220   4.548  13.248  0.1114  0.2078 -0.1093
14438W        W27852   9.534   9.303   2.871  0.2110 -0.4670 -0.0142
14439W        W27853  11.104   7.214   4.591 -0.0776  0.1761 -0.1369
14440W        W27854   9.125  14.149  15.873  0.1384  0.0865  0.0382
14441W        W27855   0.070  10.004  13.875  0.5033 -0.1221 -0.1592
14442W        W27856  13.393   4.009   4.762 -0.3069 -0.0317 -0.0858
14443W        W27857  16.282   4.033  14.873 -0.0689  0.1564  0.0674
14444W        W27858   6.946  12.290  11.049 -0.0720  0.0942  0.2804
14445W        W27859   6.055   4.051   1.907 -0.3522  0.1092  0.0403
14446W        W27860  13.773   5.174   6.033 -0.3138 -0.1676  0.0489
14447W        W27861   9.741   0.637  11.408  0.3387 -0.1986 -0.0690
14448W        W27862   1.469  16.972   3.875 -0.0174  0.0357 -0.0442
14449W        W27863  16.506  14.606   4.485 -0.1958 -0.2905 -0.0407
14450W        W27864   3.475   1.180  15.949 -0.0684  0.0048  0.2041
14451W        W27865  15.729   8.269  10.943 -0.2399 -0.4198 -0.1197
14452W        W27866   3.171   5.641   4.544 -0.1613 -0.1464 -0.2331
14453W        W27867  12.388   9.148   3.002 -0.1168 -0.0651 -0.0327
14454W        W27868   0.235   3.623   0.087  0.2150  0.0323  0.1167
14455W        W27869  17.845  13.393   4.441 -0.2981  0.0129 -0.1789
14456W        W27870   2.912   1.299   5.546  0.0680 -0.0018 -0.1830
14457W        W27871   6.607   4.763  11.978  0.0606  0.2154  0.3710
14458W        W27872   6.844   2.959   3.707  0.0780 -0.2227  0.0757
14459W        W27873   5.926  17.505   0.723 -0.0440  0.2783  0.0632
14460W        W27874   1.277   3.915   3.842  0.0011  0.0596  0.1436
14461W        W27875   8.478  15.777   0.932 -0.0059 -0.2347 -0.2035
14462W        W27876  15.289   9.615  16.158  0.0843  0.3137  0.0621
14463W        W27877  18.219   6.519   4.637  0.1032 -0.0435  0.0609
14464W        W27878  10.367   7.012   0.856 -0.1075  0.2533 -0.1079
14465W        W27879   6.598  10.821   3.070 -0.2647  0.0066  0.0743
14466W        W27880   9.630  13.893   2.977  0.1577 -0.0741 -0.1652
14467W        W27881  15.963  16.823   4.781 -0.0230 -0.1816  0.0718
14468W        W27882   6.218   0.941  14.340  0.1103  0.0733  0.0622
14469W        W27883   1.572   6.834   1.970  0.1244 -0.3663  0.0679
14470W        W27884   0.630   4.702  12.358 -0.1368 -0.0487  0.1031
14471W        W27885  15.347   2.055   2.547 -0.2601  0.0106 -0.2757
14472W        W27886   7.242   5.482   3.439  0.0763 -0.2343 -0.4738
14473W        W27887  10.543   1.396  10.799  0.1439  0.1760 -0.1199
14474W        W27888   3.388  12.827  12.794 -0.1040 -0.0951  0.1702
14475W        W27889   3.380   7.474   2.320 -0.1231  0.2283  0.1626
14476W        W27890   5.336   0.796   1.310 -0.1192 -0.3278  0.0572
14477W        W27891  18.028   8.808   3.605 -0.0793  0.1714 -0.2588
14478W        W27892  15.510  17.496   1.503  0.0426 -0.0720  0.1062
14479W        W27893   7.780  11.738   0.003 -0.0883  0.0278 -0.1372
14480W        W27894   8.228  10.155   1.730  0.0011 -0.0546 -0.5774
14481W        W27895   1.894  15.444   2.641  0.0823  0.1197  0.1171
14482W        W27896   7.003   5.115   4.307 -0.2598 -0.3995 -0.0256
14483W        W27897  16.998   6.206   4.434  0.0958  0.1913  0.0696
14484W        W27898   5.505  17.650  11.196  0.2851  0.0447 -0.3971
14485W        W27899   0.039  15.182   5.907  0.0093  0.1131 -0.0122
14486W        W27900   3.348  16.042   1.693  0.0782  0.1083  0.1203
14487W        W27901  18.349   9.353   1.275  0.3581 -0.2124  0.0755
14488W        W27902   2.287   2.020   0.879 -0.1498 -0.1732 -0.0249
14489W        W27903  16.723  11.461   0.266  0.1253 -0.2030  0.0218
14490W        W27904   1.425  13.026   5.855 -0.0503  0.1958  0.0170
14491W        W27905  13.806  14.425  12.725 -0.1634  0.0998  0.0055
14492W        W27906   4.661   7.874  10.693 -0.1120 -0.3418  0.0087
14493W        W27907   6.611  17.530   2.232 -0.4269  0.1914  0.1435
14494W        W27908  13.947   1.630   0.198  0.1459  0.1637 -0.0287
14495W        W27909  10.588   7.488   6.095 -0.3765 -0.1654 -0.0337
14496W        W27910  13.101  12.772  14.581 -0.1222 -0.1463  0.3510
14497W        W27911   5.175  15.731   2.738 -0.1331  0.2428 -0.1825
14498W        W27912  17.882   6.705   4.278 -0.0651  0.1785  0.0526
14499W        W27913  15.359   5.319   3.463  0.1997 -0.1265  0.3399
14500W        W27914  10.686   8.123  12.903  0.0074  0.2235  0.0171
14501W        W27915   4.930  13.624   5.810  0.0059  0.3813  0.0302
14502W        W27916   8.801  13.779   4.633  0.0666 -0.2908 -0.2157
14503W        W27917   1.928  11.052   3.592 -0.2950  0.4248  0.0302
14504W        W27918   3.665  10.412   4.819 -0.2161 -0.1333  0.1742
14505W        W27919  17.393   9.893   1.445 -0.3488 -0.1532  0.0669
14506W        W27920   7.939   3.108   3.156  0.1762  0.1188  0.2808
14507W        W27921   3.663   8.946  16.145  0.0748 -0.0029  0.1061
14508W        W27922   5.476   3.941   4.933 -0.2367 -0.0931  0.2020
14509W        W27923  13.920   1.772   1.029  0.1724  0.1641  0.2876
14510W        W27924   3.073   8.085  11.921  0.2409  0.0948  0.2175
14511W        W27925   3.212  17.950  14.018 -0.1049  0.0383 -0.0506
14512W        W27926   1.732   3.663  10.730  0.1302 -0.2532  0.1897
14513W        W27927   3.519   8.967  13.114  0.0076 -0.1186  0.0905
14514W        W27928  12.552   1.946   0.754  0.3024  0.0758  0.0491
14515W        W27929   9.921  14.867   4.179  0.2398 -0.3335 -0.0753
14516W        W27930  17.350   7.724  15.019 -0.3927  0.1925 -0.0767
14517W        W27931  16.306   5.503   3.518  0.1259  0.1012 -0.5537
14518W        W27932  13.229  16.709  14.184 -0.2592 -0.0745 -0.0713
14519W        W27933  13.287  12.391   4.743 -0.0567 -0.4678 -0.0047
14520W        W27934  17.145  11.045   6.176  0.2159 -0.2025  0.1599
14521W        W27935   1.644  13.134  13.102  0.2007 -0.4440 -0.3527
14522W        W27936  13.273   3.793   3.393  0.3526 -0.0039  0.5359
14523W        W27937   1.048  14.347  11.689  0.0590 -0.0026 -0.2695
14524W        W27938  16.379  18.210  14.063  0.2816 -0.2389 -0.2632
14525W        W27939  16.496  11.030  13.157  0.1905  0.4436  0.0637
14526W        W27940   3.259   5.970   9.687  0.0928 -0.2355 -0.1268
14527W        W27941  18.277   5.870  13.602  0.0334  0.1273 -0.0717
14528W        W27942   7.925  14.229  13.095 -0.2536 -0.1858 -0.1409
14529W        W27943   3.776  16.939   3.174  0.4741  0.3849 -0.0802
14530W        W27944  18.254  17.489  12.774 -0.1781  0.2886  0.0527
14531W        W27945   2.616   7.372   3.583  0.3296  0.1697 -0.2231
14532W        W27946  10.193   9.187  12.891 -0.0735 -0.1281 -0.1663
14533W        W27947   2.244  13.027  11.725 -0.0041 -0.2907  0.0067
14534W        W27948   6.068  14.744  16.123  0.0307  0.0317  0.1051
14535W        W27949  17.650   7.939  14.425 -0.0240 -0.1389  0.3123
14536W        W27950  16.139  18.291   1.192  0.5790 -0.3635 -0.1176
14537W        W27951  18.089   7.752  12.740  0.3291  0.0445 -0.0663
14538W        W27952  10.889  15.758   0.886 -0.0856  0.0545 -0.3011
14539W        W27953   3.219  10.124  12.229 -0.3727  0.0442  0.0764
14540W        W27954   9.075  15.837  11.101 -0.2542 -0.1982 -0.0059
14541W        W27955  17.488  15.848   1.760 -0.1567 -0.2486  0.0679
14542W        W27956   0.761   1.035   2.787 -0.4579  0.2012  0.0493
14543W        W27957   2.858  12.993  11.464 -0.1553 -0.0706  0.2545
14544W        W27958  18.099  18.153  13.776 -0.0701 -0.0291  0.2051
14545W        W27959  16.575   5.991  13.407  0.0921 -0.0645  0.0787
14546W        W27960  15.652   6.417   0.100  0.2400 -0.4305 -0.0697
14547W        W27961  12.450   0.519   4.234 -0.2202 -0.1386 -0.0784
14548W        W27962   9.676   2.537  11.958  0.1349 -0.1145  0.1553
14549W        W27963   1.191   9.084   1.904  0.1087 -0.0145 -0.0165
14550W        W27964  11.689  15.126  13.554 -0.2010 -0.2138  0.0119
14551W        W27965   0.322   1.431   3.604 -0.0972  0.0851  0.0764
14552W        W27966   6.903   2.493  15.974  0.2242  0.1774  0.0960
14553W        W27967   8.484  18.125  12.514  0.1176  0.2515  0.1593
14554W        W27968  14.759   3.639   1.287 -0.1306 -0.2563 -0.0234
14555W        W27969  18.050  13.591   5.809 -0.2055 -0.0673 -0.2403
14556W        W27970   7.937   3.920   4.440 -0.0474 -0.0937 -0.1806
14557W        W27971  12.189  17.594  12.758  0.2428  0.0625  0.1884
14558W        W27972   1.558   3.552  16.246  0.3098  0.0736  0.0822
14559W        W27973  16.530  17.488   5.305  0.0250 -0.1656  0.0912
14560W        W27974  15.195  17.601   3.034  0.0917  0.0457 -0.1939
14561W        W27975  12.575   4.667   3.138 -0.1653 -0.0058 -0.0323
14562W        W27976  10.478   6.760  15.229 -0.2888 -0.1498  0.2372
14563W        W27977  17.699  15.562  12.873  0.0491 -0.3147 -0.1896
14564W        W27978  14.147  16.331   5.166 -0.3307  0.2919 -0.1204
14565W        W27979  18.084   9.011  13.835  0.2218  0.0941 -0.4031
14566W        W27980  16.921  11.678   4.348 -0.2585 -0.2034  0.3716
14567W        W27981   8.942   9.370  10.401  0.0900  0.3108  0.0095
14568W        W27982   8.740   0.892  15.055 -0.0529  0.2136 -0.2213
14569W        W27983   9.496  18.350   1.381 -0.0302  0.1548  0.2493
14570W        W27984   4.707   6.932  10.631  0.0999  0.3730 -0.1366
14571W        W27985  16.173  18.245   4.839  0.1473  0.0426 -0.1356
14572W        W27986  13.033  16.500   3.450 -0.4390  0.0659  0.2652
14573W        W27987  16.803   9.682   5.372  0.0521  0.1714 -0.1683
14574W        W27988  16.849  16.695  11.560 -0.1722  0.0528  0.1644
14575W        W27989  15.262   0.683   1.937 -0.2930 -0.1825 -0.0450
14576W        W27990  16.770   6.971  16.484  0.0887 -0.0056  0.0341
14577W        W27991  10.796   0.295   3.262 -0.0064  0.0719  0.1662
14578W        W27992  16.106  12.351  15.346  0.1708 -0.0105 -0.0795
14579W        W27993   0.379  14.675  13.324  0.1264  0.0991 -0.1757
14580W        W27994  14.166   3.652   3.476  0.0242  0.3917  0.1870
14581W        W27995   9.305   6.045   0.483 -0.0213 -0.0060  0.1953
14582W        W27996   6.598   6.579  12.741 -0.1635  0.1467 -0.0587
14583W        W27997   8.393  15.934  12.801 -0.2175  0.1661 -0.1065
14584W        W27998  12.513   1.993   5.404  0.0369  0.1385 -0.1379
14585W        W27999   6.145   4.927  11.822 -0.1484  0.0504 -0.3342
14586W        W28000  16.926   6.401  15.587 -0.0792 -0.0566 -0.2059
14587W        W28001   8.543  14.728  11.416 -0.2838 -0.1458 -0.0872
14588W        W28002  13.873   3.845   1.588 -0.1444  0.0250  0.0715
14589W        W28003   5.782   3.768   2.968  0.2286  0.2897 -0.2990
14590W        W28004  17.908   3.021  15.166  0.0416 -0.0871  0.1465
14591W        W28005   3.514  14.606  16.393  0.0977 -0.1130  0.3499
14592W        W28006  16.521  13.065   4.260 -0.0469  0.4565  0.1167
14593W        W28007  10.260   6.931   1.371  0.4521  0.1470 -0.2999
14594W        W28008  16.276  10.587  11.026 -0.0237  0.1561 -0.3138
14595W        W28009   6.302   6.383   0.027 -0.0181 -0.0515 -0.1139
14596W        W28010   7.739   0.380   3.445 -0.2328  0.1387 -0.0260
14597W        W28011  18.301  15.335   5.310  0.1722 -0.2163  0.2917
14598W        W28012   1.513  13.346  14.394  0.3573  0.1790  0.0729
14599W        W28013   3.634  17.456  15.032 -0.0996 -0.1525  0.0321
14600W        W28014  16.485   9.338  11.633 -0.1645 -0.1086  0.4653
14601W        W28015  11.029  13.439   4.523 -0.0469  0.0438  0.3864
14602W        W28016   1.519   1.934   5.084 -0.2108 -0.0244 -0.3109
14603W        W28017   7.992  18.067   1.131  0.0082  0.0491  0.0767
14604W        W28018   9.772  16.196  10.393  0.1078 -0.1649  0.0401
14605W        W28019   2.574  16.300  11.051 -0.1158  0.2024 -0.0459
14606W        W28020  11.325  14.764   4.643  0.1186  0.0812  0.1288
14607W        W28021  15.390  15.372  16.022 -0.1503  0.0828 -0.1036
14608W        W28022   8.969   4.910  10.362  0.4988 -0.0156  0.1598
14609W        W28023  10.335   9.559   5.320  0.4600 -0.3226 -0.0160
14610W        W28024  13.463   9.708   5.489  0.0024  0.0672  0.0002
14611W        W28025   9.578   9.318  13.555  0.0108 -0.1599 -0.0240
14612W        W28026  11.522   2.532  12.318  0.1419 -0.2502  0.3703
14613W        W28027   2.730   3.734  15.094 -0.2378  0.1069 -0.0314
14614W        W28028   0.902   2.846  16.136  0.0517  0.3337 -0.0141
14615W        W28029   6.949   8.219  13.198  0.1186  0.0512 -0.1355
14616W        W28030  13.556   5.559  15.010 -0.2913 -0.1008  0.1863
14617W        W28031  14.219  15.234   4.164  0.1602 -0.1967  0.3874
14618W        W28032   3.802   2.993   4.506  0.1217 -0.0875  0.0285
14619W        W28033   7.035   8.529  13.559  0.0450  0.0680  0.0368
14620W        W28034   3.748   6.091  10.887 -0.2370 -0.0923  0.1290
14621W        W28035   4.069   7.407   0.803 -0.0374  0.0348  0.2721
14622W        W28036   1.198  13.811  12.551  0.0320  0.0369  0.1680
14623W        W28037  11.084   4.348   3.653  0.0055  0.0617  0.1993
14624W        W28038   9.242   8.409  15.684 -0.2377 -0.0407  0.1684
14625W        W28039  15.438   5.065  15.386  0.2838  0.2718 -0.5943
14626W        W28040   0.713   9.414   0.118 -0.0695 -0.1651  0.0986
14627W        W28041  16.741  13.739  14.437 -0.2479 -0.1576 -0.1816
14628W        W28042  17.832   4.290   0.410 -0.0452  0.2636  0.0265
14629W        W28043   5.727   5.742   0.451  0.2178 -0.1795 -0.0236
14630W        W28044  10.634   7.721   2.590 -0.0743 -0.2423  0.2144
14631W        W28045   2.796  12.470   1.453  0.0197 -0.0634  0.3194
14632W        W28046   3.216   0.628   5.983  0.1501 -0.1928  0.0211
14633W        W28047  11.945   6.275   2.516  0.0490  0.0711 -0.0534
14634W        W28048  12.686   1.700  15.950  0.4899  0.1903  0.2014
14635W        W28049   6.788  14.019  11.065  0.0931 -0.2546  0.1611
14636W        W28050  13.695   3.931  15.723  0.0497 -0.1170 -0.0479
14637W        W28051   7.343   9.344  13.980 -0.3465  0.1361 -0.2801
14638W        W28052   4.795   2.800   1.708  0.0975 -0.1002  0.1842
14639W        W28053  11.492  12.532   3.150 -0.1091  0.0652  0.1017
14640W        W28054   0.887  11.203   4.717  0.0911  0.1222  0.1207
14641W        W28055  17.462   4.450   0.023 -0.0334  0.0382 -0.0117
14642W        W28056  16.817   8.973   3.549  0.1209 -0.1401  0.2131
14643W        W28057  11.573  11.922  14.034 -0.1293  0.0707 -0.3299
14644W        W28058  16.828  18.135  12.026 -0.0544  0.1986  0.0379
14645W        W28059  14.735  17.947   1.248 -0.2314 -0.1339 -0.2141
14646W        W28060  14.775   5.488  13.680 -0.0842  0.0135 -0.1025
14647W        W28061  17.175   7.423  15.972 -0.1103  0.0821  0.1312
14648W        W28062  13.162   8.462  15.470 -0.1752 -0.3878 -0.2574
14649W        W28063  16.899  13.686   2.519 -0.1323  0.1725  0.2551
14650W        W28064  16.861  11.018  16.507 -0.0104  0.1384 -0.0516
14651W        W28065   4.973  14.228  11.472  0.0496  0.3198  0.1684
14652W        W28066  12.928  18.158   3.943 -0.0621 -0.0689  0.1980
14653W        W28067   2.228   0.785  12.484 -0.1083 -0.3311 -0.0761
14654W        W28068   1.474  17.790   0.047  0.0869 -0.2660  0.3180
14655W        W28069   4.589  15.796   2.507  0.0377  0.0513 -0.1377
14656W        W28070   2.532  13.817   5.110  0.0777  0.2892 -0.0935
14657W        W28071   0.418   2.812  13.489 -0.0191  0.4167 -0.1299
14658W        W28072   4.344   5.973  10.463  0.0641 -0.1525 -0.2421
14659W        W28073   2.745   8.723  16.164 -0.1209  0.0117  0.2678
14660W        W28074   8.576   7.516  11.228 -0.0750  0.1707 -0.1830
14661W        W28075   1.322  16.247   5.057  0.2269  0.1394 -0.0569
14662W        W28076  12.972   2.276   5.382  0.3146  0.3904  0.0213
14663W        W28077   8.169   5.188  12.210  0.3076 -0.3001 -0.1266
14664W        W28078   5.600  10.470   5.176  0.1347  0.1004  0.0729
14665W        W28079   6.886   9.298   3.430 -0.0234  0.0072 -0.2204
14666W        W28080   0.423   4.810   0.167  0.2192  0.0878  0.1079
14667W        W28081   6.056   1.467   2.899  0.3545  0.1336  0.0527
14668W        W28082  16.177   1.238  15.961 -0.0951  0.1166  0.3443
14669W        W28083   2.218  10.637  13.682 -0.1366 -0.1273  0.2770
14670W        W28084   6.700   8.828   0.560  0.1798  0.3207 -0.1513
14671W        W28085  15.140   7.169  14.929 -0.0280 -0.2172  0.0145
14672W        W28086   7.076  16.002   3.176  0.1830  0.4111  0.3465
14673W        W28087  10.091   2.768   5.010  0.1323  0.1212 -0.0551
14674W        W28088   9.231   1.305  11.048  0.3060 -0.0264  0.0463
14675W        W28089  14.427   2.165   1.471  0.0731  0.3017 -0.0439
14676W        W28090   4.127   1.555  11.195  0.0091 -0.0002 -0.0398
14677W        W28091   9.391   9.492   0.046  0.1650  0.3493  0.0167
14678W        W28092   9.321   9.231  16.123 -0.1757  0.0242  0.1699
14679W        W28093   0.635   6.447   0.531 -0.0248 -0.1029 -0.2887
14680W        W28094  15.946   5.790  14.909 -0.0179 -0.0327 -0.2526
14681W        W28095  15.740   0.824   1.743 -0.0607 -0.0132 -0.2926
14682W        W28096   6.505  14.517   4.820 -0.0934 -0.1822  0.0601
14683W        W28097   4.817   8.592  13.209 -0.1588 -0.1249 -0.3514
14684W        W28098  10.544  10.548   9.932 -0.0280 -0.2730 -0.2383
14685W        W28099  10.015  12.151   0.250  0.1701 -0.0082  0.5047
14686W        W28100   9.767   3.006  15.253 -0.0500  0.1339 -0.1040
14687W        W28101  14.530   6.492  10.958  0.3172  0.0976 -0.0889
14688W        W28102   9.539   8.543  12.949  0.0354 -0.1372 -0.1038
14689W        W28103   7.528   0.062  14.510 -0.0853  0.0928  0.4740
14690W        W28104   3.749  13.961  12.463  0.0958  0.3031  0.2723
14691W        W28105   7.843   0.797  10.283  0.0090 -0.0147 -0.1551
14692W        W28106  16.562  13.614  12.605 -0.1240  0.1436 -0.3799
14693W        W28107   6.802   9.744   0.343 -0.1042 -0.4334 -0.0851
14694W        W28108   1.359  14.129   2.605  0.2690  0.1015 -0.0596
14695W        W28109   7.533  13.233  12.306  0.1062  0.1575  0.1281
14696W        W28110  12.829   2.779   2.442  0.0279 -0.0355 -0.0228
14697W        W28111   8.471   2.029  14.255  0.0650 -0.3154  0.5192
14698W        W28112   4.703   6.451  13.662 -0.1697 -0.2075  0.0682
14699W        W28113  12.223   9.870   5.273  0.2226  0.1674  0.4883
14700W        W28114   2.571   5.433  11.410  0.0716  0.0664  0.1217
14701W        W28115  11.547   6.196   1.251 -0.0013  0.3160  0.0447
14702W        W28116  17.082  17.305   1.367  0.3820 -0.0886  0.0261
14703W        W28117   9.788   2.115  10.597 -0.2749  0.2084 -0.1944
14704W        W28118   5.365   3.812  11.309 -0.0664  0.1280  0.1673
14705W        W28119  10.843   0.662  15.580  0.0072  0.1605 -0.1274
14706W        W28120   2.820  11.471  15.729 -0.3571 -0.2615 -0.0193
14707W        W28121  12.808   1.167   1.953  0.0387 -0.2168 -0.0917
14708W        W28122   2.388   0.368  11.739 -0.0743 -0.1385  0.1486
14709W        W28123   9.245  16.856  16.375 -0.0348 -0.1898  0.1762
14710W        W28124   9.896   5.643  12.176  0.0601  0.2531  0.1425
14711W        W28125   1.420   2.717  14.121  0.0121 -0.1514  0.1621
14712W        W28126  11.572  16.042  10.155  0.2496 -0.3334  0.1627
14713W        W28127  14.696   7.303  16.406 -0.0681 -0.2140 -0.0718
14714W        W28128   9.126   2.312  10.786  0.2382 -0.1547 -0.2568
14715W        W28129  17.125   2.911   1.711 -0.1737 -0.3231  0.2554
14716W        W28130   0.780  16.648  12.783  0.2510 -0.0484  0.2294
14717W        W28131  16.639  12.123   4.448 -0.0978 -0.1488 -0.2814
14718W        W28132  14.236  16.282   5.677  0.2973  0.0941  0.0134
14719W        W28133   2.419  13.710  16.399 -0.0600 -0.0875 -0.0373
14720W        W28134   7.986  13.062   0.820  0.3908  0.1206  0.1869
14721W        W28135  12.254  13.762   5.742 -0.4479  0.1280  0.0423
14722W        W28136  15.271  15.299   1.558 -0.0492 -0.1750  0.1786
14723W        W28137   3.838  10.143   0.778  0.2477 -0.1688  0.2314
14724W        W28138   6.017   1.955  14.195  0.0374 -0.1562 -0.1195
14725W        W28139  14.442   4.717   4.308  0.2182  0.0335 -0.1317
14726W        W28140  11.905   2.679   5.462  0.1304  0.1238 -0.1683
14727W        W28141   3.634  18.017  12.773  0.2543 -0.0648  0.1238
14728W        W28142  17.524  12.864  15.068  0.1148 -0.5186  0.0788
14729W        W28143   1.484  10.818  11.013 -0.2566  0.0824 -0.0074
14730W        W28144  15.148   8.445   5.739  0.1230  0.1746  0.2276
14731W        W28145   5.812   4.394   6.128  0.0527  0.1436 -0.1823
14732W        W28146   5.068   5.128  13.884  0.1197 -0.0500 -0.0241
14733W        W28147  16.111  12.908   3.964  0.0377  0.0844  0.1109
14734W        W28148  12.053   3.742  10.540  0.2201 -0.0584 -0.1018
14735W        W28149   3.020   1.462  12.557 -0.0900  0.0320 -0.1214
14736W        W28150   4.211  13.895  13.171  0.1580  0.0130  0.4936
14737W        W28151   8.007  15.951   3.131 -0.3805  0.0620  0.0390
14738W        W28152  17.270   0.829  13.149  0.1886  0.0695 -0.1408
14739W        W28153   1.744  12.007   2.890 -0.1709  0.1089 -0.2126
14740W        W28154   8.165   1.908   3.869  0.4147 -0.1749  0.0901
14741W        W28155  14.902  16.568   0.843  0.1255 -0.0131  0.0522
14742W        W28156  14.428   2.076   5.085  0.1939 -0.0247 -0.2584
14743W        W28157   4.928   7.698  11.967  0.1572  0.2373 -0.2965
14744W        W28158   5.191  12.390   1.563 -0.1186 -0.0534  0.0691
14745W        W28159  14.398  12.795  15.330  0.4066  0.0108  0.2257
14746W        W28160   2.062  12.163   5.746 -0.3928 -0.2386  0.1262
14747W        W28161  10.142   1.142  15.568  0.0695 -0.3233 -0.1052
14748W        W28162  15.783  10.405   0.609  0.1342  0.0308  0.0057
14749W        W28163  12.274   9.445   1.668 -0.0471  0.1364 -0.0149
14750W        W28164   1.556   4.462  12.714 -0.3793  0.1961 -0.1773
14751W        W28165   5.410  11.830  16.042  0.3793 -0.0608  0.0696
14752W        W28166   7.228  16.491   1.802  0.1332 -0.2041 -0.0796
14753W        W28167   2.715  11.634   5.222 -0.3239  0.0244 -0.3687
14754W        W28168  15.547   8.394  11.858  0.1956 -0.1586  0.3249
14755W        W28169   0.054  11.576  13.090 -0.0775 -0.1349  0.0223
14756W        W28170   6.073   0.550  10.059  0.3274 -0.0334 -0.1350
14757W        W28171  10.369  16.196  16.042  0.0064  0.1570 -0.0609
14758W        W28172   1.731  13.799  11.432  0.0206 -0.0171 -0.4235
14759W        W28173   5.558  15.259   0.404 -0.2822 -0.2932 -0.4066
14760W        W28174   5.435   5.255   3.500  0.1251  0.2456 -0.1975
14761W        W28175   9.714   0.100   2.956 -0.2771 -0.1746  0.0975
14762W        W28176   8.631  12.927   5.218  0.0466 -0.0772 -0.1808
14763W        W28177  10.505   7.389   0.097 -0.0332  0.2400 -0.4616
14764W        W28178   8.412  12.572  13.145  0.1881 -0.1580 -0.3693
14765W        W28179  17.422   0.841   3.726  0.1331 -0.2024  0.0515
14766W        W28180  12.031   7.270   3.210 -0.1505 -0.0723  0.2284
14767W        W28181   8.056  16.298  13.438 -0.0997 -0.0035 -0.1343
14768W        W28182  16.589  18.247   2.519 -0.1624 -0.0254  0.1175
14769W        W28183   0.671  12.415  14.098  0.0770  0.0849  0.1768
14770W        W28184   5.507   6.220   9.786  0.0078 -0.0959  0.0859
14771W        W28185   4.688  17.864  10.411 -0.1463 -0.0007  0.2045
14772W        W28186   8.353  11.252  14.279 -0.1523  0.0788 -0.0253
14773W        W28187   9.798   8.941  13.808 -0.0575 -0.0929  0.1093
14774W        W28188  13.921   9.979   5.755 -0.0996 -0.0697  0.4183
14775W        W28189   0.020   5.031  11.722 -0.4101 -0.0411  0.3098
14776W        W28190  11.691  16.145   1.258  0.1683 -0.1014 -0.1891
14777W        W28191   5.396  11.092  10.422  0.3465 -0.2166 -0.2482
14778W        W28192  16.567   7.131   4.449  0.0541  0.1287 -0.0689
14779W        W28193   0.059  15.126   1.176  0.2042 -0.1130 -0.0903
14780W        W28194   1.660   9.340   3.493 -0.2027  0.1047 -0.1677
14781W        W28195   6.228  14.466   5.283  0.1735  0.1081 -0.0446
14782W        W28196   1.866  15.691  16.391  0.3551 -0.2370 -0.0631
14783W        W28197  11.059   0.177  15.493  0.4651  0.2423 -0.2241
14784W        W28198  11.824   4.081  10.845 -0.2392  0.0275 -0.0961
14785W        W28199  13.614   2.682  11.675 -0.1391  0.2149  0.0985
14786W        W28200   9.030  14.044  14.810  0.3113 -0.0902 -0.1672
14787W        W28201  12.862   3.880  11.124 -0.0993 -0.1661  0.1503
14788W        W28202  18.156  14.627   6.501  0.3513 -0.0777  0.0935
14789W        W28203  15.314  13.986  14.600  0.0602 -0.1483  0.1222
14790W        W28204   9.986  11.793   1.742  0.1056  0.2340 -0.0443
14791W        W28205   2.423  11.952  14.012  0.0778  0.0765 -0.1738
14792W        W28206   8.967   3.293  16.488  0.0178 -0.1613 -0.2303
14793W        W28207   6.482  11.267  14.427 -0.0405  0.1498  0.0088
14794W        W28208  16.311   2.913  12.309 -0.0802 -0.3887  0.1574
14795W        W28209   0.005  14.814   2.320  0.2538  0.1639  0.0245
14796W        W28210   2.741   2.731  11.096  0.2184 -0.1526 -0.1716
14797W        W28211   6.413   9.787  15.555  0.0762  0.2277  0.4117
14798W        W28212  14.459   9.663   4.880 -0.3481  0.3244 -0.0126
14799W        W28213   6.840   8.712   5.236 -0.2063 -0.2699  0.3661
14800W        W28214   4.428  12.192  15.844 -0.3297 -0.0930 -0.1891
14801W        W28215  17.245   4.689  13.345  0.2107  0.1431  0.1074
14802W        W28216   5.530  11.945   3.378 -0.1497  0.1946  0.2751
14803W        W28217   9.803  14.079   1.634  0.0528  0.3801  0.0468
14804W        W28218  14.336   9.665   1.488  0.1273 -0.0890  0.1360
14805W        W28219   4.520  15.651  11.933  0.1952 -0.0035 -0.2477
14806W        W28220  12.340  10.773   2.128 -0.0007  0.2653 -0.2555
14807W        W28221   1.412  14.524   5.940  0.1943 -0.0145  0.0676
14808W        W28222   1.990   2.141  15.737  0.1601 -0.0699  0.1315
14809W        W28223  10.062   7.176   5.390 -0.1756  0.2879 -0.1676
14810W        W28224  11.391  18.061   5.881 -0.0020 -0.2614 -0.1423
14811W        W28225   3.464  14.507  15.893 -0.2143  0.1618 -0.4854
14812W        W28226   0.873   2.632   4.195  0.0162 -0.0779 -0.0295
14813W        W28227  11.953   1.304   4.991  0.0012 -0.2797 -0.0391
14814W        W28228  16.869  17.905  11.222  0.1118  0.0395 -0.1530
14815W        W28229  14.982  12.925   6.900 -0.0817 -0.0598 -0.0307
14816W        W28230  17.112  15.613   2.132 -0.1765 -0.2646 -0.0033
14817W        W28231  13.056   2.907   1.032 -0.0682 -0.0833  0.1884
14818W        W28232  10.835   7.696   4.584  0.2917  0.3666 -0.0908
14819W        W28233  10.106  12.804  11.771  0.0087 -0.0216 -0.2296
14820W        W28234  15.407  10.863   1.411 -0.0401 -0.3953 -0.0735
14821W        W28235  17.490   2.489   1.062  0.5422 -0.0585 -0.1560
14822W        W28236   5.640   6.807  12.536 -0.1278 -0.2088  0.0948
14823W        W28237   7.562   9.040  12.139  0.0437 -0.2017 -0.2280
14824W        W28238   6.412   3.730  10.552  0.0359 -0.0783  0.1856
14825W        W28239  11.369   2.618  14.293 -0.2332 -0.0569 -0.0757
14826W        W28240  17.256  15.877  13.546  0.0814  0.1304  0.3153
14827W        W28241   0.170  11.789   5.834 -0.2953 -0.2764 -0.2924
14828W        W28242  10.239  17.675  10.502  0.1434 -0.1990  0.2840
14829W        W28243   1.471   4.889  14.238  0.3731 -0.0632  0.1378
14830W        W28244  16.241  10.472  12.470  0.2217 -0.2768  0.0533
14831W        W28245   4.797   4.839   3.533 -0.0953 -0.0857  0.1519
14832W        W28246  10.268   4.581   2.147  0.1756  0.1851 -0.0206
14833W        W28247   9.330   3.405  15.862 -0.4339 -0.1068  0.2546
14834W        W28248   0.369   4.329  15.719 -0.0059  0.0633 -0.1645
14835W        W28249  13.803   3.848  13.506  0.1319  0.4051 -0.2003
14836W        W28250   2.608   8.806  11.891 -0.0008 -0.2278  0.4672
14837W        W28251  17.078   8.342   4.546  0.1102  0.1171 -0.0254
14838W        W28252   6.028   0.999   4.642 -0.0035  0.1410 -0.0039
14839W        W28253  16.673   6.117   2.822  0.4035  0.2020 -0.0413
14840W        W28254   5.029  10.062   5.574 -0.4384  0.1083  0.2580
14841W        W28255   4.944   3.709   3.283 -0.0888  0.0906  0.2525
14842W        W28256   8.926  14.235  14.016 -0.0663 -0.1300 -0.1755
14843W        W28257   9.909   0.831   2.305 -0.0563 -0.0120 -0.3811
14844W        W28258   7.378  17.329   4.594  0.1922  0.4434  0.2639
14845W        W28259   1.777   3.153  13.300  0.1718  0.1468 -0.0309
14846W        W28260   5.754   6.479   4.171 -0.0865  0.0711  0.3180
14847W        W28261  11.170   2.884   1.465 -0.0984  0.3402  0.1744
14848W        W28262   6.678  14.739  16.059 -0.6399  0.0106  0.1788
14849W        W28263  17.927  13.457  12.339  0.4022  0.1255 -0.0425
14850W        W28264  12.609   6.253   5.258  0.0348 -0.2489 -0.0816
14851W        W28265   2.585   9.381   1.772 -0.0520 -0.1593 -0.0986
14852W        W28266  14.774  11.008  11.185  0.1208  0.3157  0.1760
14853W        W28267   5.592  14.890   4.984 -0.0733  0.4498 -0.1630
14854W        W28268   8.803  13.240  14.150  0.0769  0.3105 -0.1201
14855W        W28269  11.269  12.733  16.449 -0.0227  0.1309  0.2167
14856W        W28270   3.847   2.412  12.478  0.0484  0.0359 -0.1454
14857W        W28271  17.863   5.183  12.059 -0.1063 -0.0218 -0.0583
14858W        W28272  11.818  13.550   5.617  0.2941  0.1123  0.2242
14859W        W28273   3.890   4.640  13.311  0.2370  0.0844 -0.1225
14860W        W28274  17.541  15.902   4.703 -0.0733 -0.3329 -0.1164
14861W        W28275  13.142   4.055   1.073 -0.0134  0.2077 -0.2634
14862W        W28276   0.225   7.236  15.773  0.4662  0.2082 -0.0096
14863W        W28277  18.069  16.813   6.842 -0.2072 -0.1698 -0.1599
14864W        W28278   9.072   7.345  13.354  0.0812  0.0971  0.1019
14865W        W28279   5.925   2.011  16.094 -0.2328  0.1352 -0.1643
14866W        W28280  15.221   9.996  15.307  0.0719 -0.0959  0.0824
14867W        W28281   7.964   3.325  11.114  0.1040 -0.0722 -0.0373
14868W        W28282   6.055  10.067  15.158  0.1475  0.2802  0.1676
14869W        W28283  10.383  13.794  16.482  0.1106 -0.1179  0.0276
14870W        W28284   0.470   2.643  13.956 -0.3012  0.1929  0.0752
14871W        W28285  14.805   9.215   5.116  0.1673 -0.1451 -0.2551
14872W        W28286   4.024  10.804   4.216 -0.1000 -0.2613 -0.0714
14873W        W28287  10.468  10.045   4.535  0.1387 -0.2242 -0.1574
14874W        W28288   5.895   7.219  16.320  0.0513  0.3482 -0.0919
14875W        W28289   4.518  11.902   2.933 -0.1878  0.0517 -0.0124
14876W        W28290   9.192   6.167  11.694 -0.2422  0.0765 -0.1383
14877W        W28291   0.867   1.276   1.359 -0.0040 -0.0622  0.4147
14878W        W28292   6.534   5.200  10.799 -0.0903 -0.0536 -0.0364
14879W        W28293   5.924  13.571   1.585 -0.1380 -0.0331 -0.0732
14880W        W28294  11.977  18.001   4.411  0.1630 -0.0487 -0.0670
14881W        W28295   4.803   0.975  15.372 -0.1991 -0.2370 -0.3979
14882W        W28296   6.470   4.225   3.838  0.0015 -0.0297  0.0879
14883W        W28297   0.312   7.280  11.532  0.1396  0.4498 -0.1856
14884W        W28298  16.332  14.879  14.489 -0.0103 -0.0107  0.1331
14885W        W28299   1.866  14.581  14.650 -0.0291 -0.2372  0.1018
14886W        W28300   0.642   8.897  11.393  0.0564 -0.1257 -0.0674
14887W        W28301  12.651  11.302   1.066 -0.0395  0.2783  0.2658
14888W        W28302  16.633  15.073   5.815  0.0897 -0.0687 -0.5340
14889W        W28303  10.562   9.214   9.872  0.1479  0.0389 -0.1993
14890W        W28304   9.684  13.128   4.126  0.2102  0.1990 -0.1301
14891W        W28305  17.500  14.397   2.356  0.0774  0.1804 -0.1661
14892W        W28306   4.930  15.190  13.055  0.1230  0.0988  0.0516
14893W        W28307  15.966   8.892   0.626 -0.0479  0.1747 -0.1196
14894W        W28308   7.569   5.575  16.425  0.2332  0.0474 -0.1056
14895W        W28309  14.191  15.483  14.094  0.1270  0.1996  0.3105
14896W        W28310  10.341   7.895  14.834  0.3020 -0.1023 -0.0542
14897W        W28311   6.298   8.116  12.523 -0.1989 -0.0901  0.1619
14898W        W28312   7.639   8.960   2.242 -0.0709 -0.0502 -0.0027
14899W        W28313  13.508  15.694   5.966 -0.3287  0.3753 -0.1266
14900W        W28314   6.538  14.438   2.604 -0.1701  0.0124 -0.1834
14901W        W28315   7.522   6.550  16.145  0.0849 -0.1474  0.0267
14902W        W28316  16.174  17.261  14.288  0.1431 -0.1327  0.2300
14903W        W28317   6.661  10.058  16.488 -0.1834 -0.1184 -0.3228
14904W        W28318  14.650  17.037   4.564  0.1140 -0.2429  0.1035
14905W        W28319   4.145   1.205   3.726 -0.1004  0.0778 -0.0406
14906W        W28320  14.374   1.317   1.415  0.1066 -0.0548  0.2276
14907W        W28321  14.674   2.879   4.817  0.1856  0.1977  0.1931
14908W        W28322   2.639   5.801   0.666 -0.0310  0.0517  0.1268
14909W        W28323   1.699  13.127   9.862  0.1853 -0.0875 -0.2310
14910W        W28324   7.060  13.034  16.141  0.0990 -0.1370  0.2879
14911W        W28325  11.643   8.767  16.439  0.4079 -0.2077 -0.3556
14912W        W28326  11.122  14.252  16.366  0.2223 -0.0254 -0.0279
14913W        W28327   5.499  12.348   2.668 -0.3468 -0.1802 -0.2198
14914W        W28328   2.455  12.685   5.204 -0.1336 -0.0789 -0.0402
14915W        W28329  11.447   5.226   5.432  0.0429 -0.2093 -0.4769
14916W        W28330  16.823   4.820   5.420 -0.0022 -0.5307 -0.0857
14917W        W28331  14.192   3.827   0.505  0.1369  0.1688  0.2741
14918W        W28332  14.634   9.889   3.916 -0.1105  0.0735  0.0242
14919W        W28333   9.555   0.344  13.314  0.0228 -0.0880  0.0737
14920W        W28334  18.056   8.504   1.659  0.1036 -0.0790 -0.1483
14921W        W28335  17.993  11.992   2.807 -0.0270 -0.2165 -0.1175
14922W        W28336   2.008  12.660  16.391 -0.0779 -0.0635  0.0982
14923W        W28337   0.056   7.132   3.130 -0.0321  0.0302  0.4404
14924W        W28338  17.564  14.921   2.646  0.3226 -0.1826  0.0911
14925W        W28339   1.680   4.190  15.750  0.1000  0.0622  0.1610
14926W        W28340   9.620   3.010   2.984 -0.0695 -0.0690 -0.3895
14927W        W28341   7.304   9.722  11.049  0.3631  0.1525  0.2287
14928W        W28342   4.561   9.666  12.595 -0.0875 -0.2367 -0.0231
14929W        W28343   3.260   2.034  13.778 -0.1520  0.2199  0.3214
14930W        W28344   5.828  14.813  12.397  0.0214 -0.1323  0.0608
14931W        W28345   6.791  16.246  14.550  0.2227 -0.1041  0.2195
14932W        W28346   4.828  15.922  12.322  0.0116 -0.2324  0.0573
14933W        W28347   5.677   9.260   0.245  0.1436  0.1338  0.2661
14934W        W28348   3.903  13.736  13.501 -0.4207 -0.0860 -0.3106
14935W        W28349   3.175  10.392   5.162  0.1934 -0.2476 -0.3015
14936W        W28350   7.967   7.118   3.424  0.0884  0.1683 -0.0101
14937W        W28351  17.262   8.314   3.068 -0.0585  0.2635  0.0280
14938W        W28352  10.390  18.202   4.502 -0.0026 -0.0562  0.2171
14939W        W28353   2.099  14.716  15.044 -0.2712  0.0380 -0.2216
14940W        W28354  17.660  18.195  13.633 -0.2329  0.1063 -0.0745
14941W        W28355   3.049  14.067   1.987 -0.1419 -0.0553 -0.1108
14942W        W28356  17.257  14.685  12.467  0.0553 -0.0718  0.1833
14943W        W28357  17.113   2.427  12.757  0.2177 -0.1724  0.0161
14944W        W28358  13.125  11.511  10.760  0.0804 -0.0598 -0.0694
14945W        W28359   5.779   8.697  14.880 -0.1290  0.2596 -0.2463
14946W        W28360   8.230   1.302   0.774  0.0197  0.0407  0.0951
14947W        W28361   8.678   5.915   4.754  0.1437  0.0591 -0.0869
14948W        W28362   2.438  15.274   2.152  0.0381  0.1504 -0.0461
14949W        W28363   1.049  13.753   4.189 -0.0182 -0.3431  0.0871
14950W        W28364   0.437  13.269   0.878  0.1461  0.0867  0.1071
14951W        W28365   9.767   1.246   4.034  0.1298  0.0012 -0.0360
14952W        W28366   4.365   5.815   5.358 -0.0543 -0.0187  0.1472
14953W        W28367   0.282   3.681   3.609  0.0243 -0.1175  0.0840
14954W        W28368  17.653   9.364   1.698  0.2847  0.1620  0.4733
14955W        W28369   5.131   4.985   2.826 -0.2060  0.0624  0.0473
14956W        W28370   8.864  15.113   5.720  0.0733  0.3585 -0.2060
14957W        W28371   4.881   5.050   0.043  0.0534 -0.1798  0.0273
14958W        W28372   7.440  12.180   3.911 -0.0202  0.2892 -0.3035
14959W        W28373  17.827   2.661   3.273 -0.2412  0.0179 -0.1879
14960W        W28374  16.068   0.250  16.047 -0.4163  0.0319 -0.4790
14961W        W28375  14.328  10.893  11.026 -0.0554 -0.3335 -0.2221
14962W        W28376  15.064  11.734  15.571  0.0968  0.0596 -0.2052
14963W        W28377  16.149   0.049   4.391  0.0542 -0.0681 -0.3752
14964W        W28378   2.013   8.703   5.692  0.1105 -0.0516 -0.0156
14965W        W28379  10.298  14.357   0.831 -0.0122 -0.1339  0.0708
14966W        W28380  18.121  12.437  12.804  0.0214 -0.1791  0.1207
14967W        W28381   1.119   5.229   5.290  0.0882 -0.0971 -0.1056
14968W        W28382  12.092   0.676  10.299 -0.1476 -0.1579 -0.3326
14969W        W28383  10.881  13.360  15.198  0.1836 -0.0328  0.0920
14970W        W28384  17.467   2.831  16.361 -0.2334 -0.2049  0.0380
14971W        W28385   8.979  12.693   1.811 -0.0546 -0.1280  0.0504
14972W        W28386  11.668   8.054   1.977 -0.2799  0.1777  0.2090
14973W        W28387  17.668   1.095  13.515  0.0183  0.1855 -0.1481
14974W        W28388   1.207   4.519  13.515  0.1679 -0.0669  0.1679
14975W        W28389   9.671   6.965   2.473  0.1031  0.0406  0.1646
14976W        W28390  17.293  18.017   2.577 -0.2779 -0.3501 -0.1076
14977W        W28391  11.701  17.587   2.728  0.0822  0.1121 -0.0258
14978W        W28392  11.922  17.189   0.360  0.3022  0.0826  0.2047
14979W        W28393  14.058   2.832   2.115  0.2018 -0.0125 -0.0176
14980W        W28394   1.758   7.812   4.647 -0.0452  0.0717  0.0044
14981W        W28395  12.460   0.473  13.349 -0.2861  0.2899 -0.1409
14982W        W28396  10.124  13.249   4.347  0.0008  0.0917  0.0845
14983W        W28397   1.112   6.352  13.295 -0.0812  0.0403  0.1301
14984W        W28398   4.661   2.359   5.016 -0.1709  0.2866  0.2473
14985W        W28399   9.851  10.505   5.092 -0.3217  0.1504  0.0615
14986W        W28400  16.557   5.637  10.606 -0.0698 -0.1582 -0.2843
14987W        W28401   1.751   7.464  15.742 -0.0081 -0.1314 -0.1561
14988W        W28402   6.786  17.680   4.349  0.1033  0.0134 -0.1549
14989W        W28403  12.155   2.385   2.139 -0.4240  0.2230 -0.0449
14990W        W28404  14.639   2.160  13.061 -0.0124 -0.1354  0.0625
14991W        W28405  16.714   3.240  12.482  0.0042  0.2526  0.3798
14992W        W28406  17.528   4.897  10.901 -0.0050  0.0263  0.0029
14993W        W28407   3.160   5.560  14.592  0.2568 -0.0101 -0.1267
14994W        W28408  11.056   0.987   2.270 -0.1446  0.2887 -0.0561
14995W        W28409  10.485  12.546   4.221 -0.0699 -0.0933 -0.2142
14996W        W28410   7.765   3.299  10.610  0.1567  0.0508  0.0680
14997W        W28411   9.574   1.136   0.143  0.1010  0.1310 -0.3156
14998W        W28412   5.240  14.353  15.587  0.0050 -0.1052  0.1051
14999W        W28413  17.573  11.533   0.086  0.1046  0.0931 -0.1226
15000W        W28414   0.186  10.017  11.308  0.2137  0.0423  0.1386
15001W        W28415  10.025  10.142  15.309  0.0441 -0.1588  0.1744
15002W        W28416  12.556   1.260   3.410  0.0391 -0.3885 -0.0851
15003W        W28417   6.857  15.325   0.811  0.3397 -0.3617 -0.1922
15004W        W28418  17.738  14.061  14.456 -0.2228 -0.1811 -0.0293
15005W        W28419  14.213   6.874   4.467 -0.0305 -0.2628  0.1428
15006W        W28420   2.901  16.951  16.179 -0.0201  0.0379  0.1363
15007W        W28421   4.709   2.237   3.065 -0.2819 -0.1842  0.4568
15008W        W28422  10.354  17.071  10.806  0.2263  0.0186  0.1491
15009W        W28423  13.999   9.760  14.628  0.0570  0.3498  0.2002
15010W        W28424  17.462   9.113  15.457 -0.3499  0.0872  0.0317
15011W        W28425  15.881   8.167  10.420  0.1802  0.1588 -0.1846
15012W        W28426   4.395  17.300  11.273 -0.3007 -0.1593 -0.0299
15013W        W28427  14.893   3.710  10.140  0.0785 -0.1077  0.1757
15014W        W28428  17.854   7.714  14.822  0.3737 -0.2492 -0.0800
15015W        W28429  11.210  15.581   0.131 -0.4467 -0.0573 -0.0651
15016W        W28430   5.973  15.795   2.106 -0.0034 -0.5115  0.1370
15017W        W28431   4.660   8.053  15.619 -0.1321 -0.1485 -0.2528
15018W        W28432  17.363   8.391  13.146  0.0298 -0.0115  0.1187
15019W        W28433   4.736  14.706  14.680  0.0390  0.0220 -0.1710
15020W        W28434  17.079   0.505  15.771 -0.0265  0.0675 -0.0098
15021W        W28435   2.574  15.355   4.729  0.1148  0.0331 -0.2165
15022W        W28436   4.300   1.278  16.085  0.0978  0.0260 -0.1783
15023W        W28437  13.635   0.872  12.562 -0.1229 -0.2718  0.1035
15024W        W28438   8.368  16.790   0.988  0.0088  0.0521 -0.2085
15025W        W28439   7.892   1.992  10.247 -0.2022  0.0672 -0.3261
15026W        W28440   7.835   0.416  11.858 -0.0880 -0.1679  0.1756
15027W        W28441   9.617  13.788   1.238 -0.2610 -0.3303 -0.1900
15028W        W28442  17.044   9.165   4.074 -0.1731  0.0441 -0.3041
15029W        W28443   2.300  10.700  16.084  0.3360  0.1251 -0.0612
15030W        W28444   7.039   9.655  14.240  0.3451  0.0251 -0.1752
15031W        W28445   3.669   5.069   1.562 -0.0002  0.0214  0.1472
15032W        W28446   2.933   3.857   1.504 -0.1485 -0.2932  0.0816
15033W        W28447  11.697   1.103  13.670  0.0678 -0.2527 -0.0093
15034W        W28448  13.583  15.150   1.461 -0.0573  0.0009 -0.1584
15035W        W28449   0.226   8.396   4.448  0.1219 -0.1183  0.0121
15036W        W28450  14.596   9.215   9.796 -0.1343 -0.1463 -0.4180
15037W        W28451   1.071   7.366  10.140  0.0823 -0.1380  0.0413
15038W        W28452   3.361  12.163   4.777 -0.1566  0.0155  0.2996
15039W        W28453  10.169  12.174   1.969 -0.0420 -0.2538  0.1731
15040W        W28454  10.301   9.379   2.931  0.3810 -0.2292 -0.0591
15041W        W28455   6.578   3.547  13.958 -0.0412 -0.2145  0.1837
15042W        W28456   3.010  13.266  14.634  0.0556  0.2566 -0.0758
15043W        W28457   2.777  12.018  14.780  0.0704 -0.0708 -0.0310
15044W        W28458   7.914  13.560   3.879  0.0825 -0.1412  0.1719
15045W        W28459   7.380   5.269  11.974  0.2809 -0.1576  0.3070
15046W        W28460  16.787  10.172   4.250  0.2519 -0.1221 -0.1583
15047W        W28461  17.534   3.685   1.340 -0.2517  0.0115  0.0143
15048W        W28462  14.074  11.562  13.948 -0.1448 -0.0322  0.3044
15049W        W28463  15.622   9.831   3.576  0.3134  0.3811 -0.1222
15050W        W28464   2.302   9.463  16.001  0.0947  0.1375  0.2035
15051W        W28465   7.600   0.402   0.104  0.0080  0.0349  0.0152
15052W        W28466   6.536  12.322   1.667 -0.1081 -0.0953  0.0804
15053W        W28467   9.081  14.217   0.988 -0.0932  0.0530 -0.0927
15054W        W28468  17.240  16.863  11.227  0.4522 -0.0040 -0.3592
15055W        W28469   6.351   7.553  14.813  0.1234 -0.3983  0.0625
15056W        W28470  11.158   5.798   2.942 -0.2463  0.1196 -0.4314
15057W        W28471  17.477   5.052   0.759  0.2184 -0.0540  0.0751
15058W        W28472  12.783  15.278   2.796 -0.1756 -0.1500  0.2500
15059W        W28473  16.176  17.705  16.205  0.0464  0.0032 -0.0272
15060W        W28474   7.929  10.469   4.141 -0.0733 -0.2311 -0.2245
15061W        W28475   0.534  11.695  12.954  0.0324  0.0981  0.0933
15062W        W28476   4.959  13.680   2.671 -0.0639 -0.0958 -0.2319
15063W        W28477   7.282  10.004   5.406 -0.1863  0.0968  0.1253
15064W        W28478  15.539   3.516   1.348  0.0338  0.2107 -0.0594
15065W        W28479  14.468   2.105  15.325  0.1252  0.0307 -0.2260
15066W        W28480   0.960   8.236   3.101 -0.0436 -0.2272  0.1237
15067W        W28481   1.959   8.119  14.698  0.0798  0.1871 -0.0590
15068W        W28482   9.798   6.745  11.236 -0.0679  0.3039  0.1091
15069W        W28483  14.677   3.455  13.750 -0.2377  0.2597 -0.3631
15070W        W28484  13.746   9.361  14.283 -0.3990 -0.1394 -0.2555
15071W        W28485   6.614  14.019   4.733  0.1782 -0.0150  0.1079
15072W        W28486   7.456   0.034  15.769 -0.1808  0.0302 -0.0645
15073W        W28487  10.335   6.802   4.206 -0.1245 -0.0195  0.1293
15074W        W28488   9.937   3.442  12.067 -0.0942 -0.2075  0.2023
15075W        W28489   1.856   7.618   4.154 -0.0288  0.0808 -0.1345
15076W        W28490   0.723   0.520  12.432  0.1444 -0.1397 -0.1675
15077W        W28491   0.410   0.147  11.004 -0.2859  0.2147  0.0281
15078W        W28492  10.674   8.134   0.841  0.0684  0.1795 -0.2000
15079W        W28493   2.932   7.827   2.278  0.0684 -0.1394 -0.2216
15080W        W28494  15.750  17.541   1.092 -0.0134 -0.0185 -0.0180
15081W        W28495  11.595   2.017   3.405  0.1413  0.0144 -0.0236
15082W        W28496   9.065   7.960   9.973  0.1168 -0.2111  0.1265
15083W        W28497   4.956   8.696   5.019 -0.0078  0.4193  0.0522
15084W        W28498   8.066   2.657  16.164  0.3000 -0.0022 -0.1509
15085W        W28499  16.542  11.972  13.989 -0.0151  0.0786 -0.2255
15086W        W28500   5.537  16.468   3.137 -0.1017 -0.0060  0.1082
15087W        W28501  17.882  16.290  14.694 -0.3179  0.2497 -0.1756
15088W        W28502  16.468   3.656   1.173  0.1242  0.0175  0.1279
15089W        W28503  13.388   5.909   4.044  0.1024  0.0174 -0.1559
15090W        W28504   8.060   4.519   1.498  0.1077  0.0139  0.0157
15091W        W28505  14.236   4.870  14.552  0.1023  0.1628 -0.0653
15092W        W28506  12.761  15.126   6.635  0.2896 -0.0440  0.1380
15093W        W28507  13.987   4.179  11.337  0.1248 -0.2747  0.1103
15094W        W28508  13.384  14.160  12.484 -0.0439  0.1327 -0.1726
15095W        W28509   8.386  10.238  10.765  0.0337  0.2927  0.1256
15096W        W28510   3.138   7.830  13.296 -0.1129 -0.0271 -0.1111
15097W        W28511   8.523  16.144   4.964  0.2134 -0.0313  0.0491
15098W        W28512   3.583  15.331   5.653  0.0691  0.0722 -0.1889
15099W        W28513   1.930   7.670   2.465 -0.0948  0.3447  0.0551
15100W        W28514   4.155   4.933   1.714  0.1665  0.1917  0.0170
15101W        W28515   2.583   5.539   3.826 -0.0661  0.0892  0.0582
15102W        W28516  14.413   9.053  11.275  0.2945  0.0118 -0.0490
15103W        W28517   0.320  17.703   3.690  0.0091  0.0264 -0.0907
15104W        W28518  16.221   3.979   4.534 -0.2575  0.0177 -0.0303
15105W        W28519  16.205   1.597  15.549 -0.2393  0.0316  0.0921
15106W        W28520   3.265  11.909  13.974  0.1539  0.0801 -0.0870
15107W        W28521  11.558   9.394  13.439  0.0716 -0.5004  0.1183
15108W        W28522  10.571   4.220  16.465 -0.3218  0.0298 -0.1910
15109W        W28523   6.024  10.907   0.714  0.1737 -0.0628  0.2259
15110W        W28524   8.709  16.461   3.920 -0.3418 -0.0104  0.3624
15111W        W28525   3.583  11.874   3.524  0.1727  0.1590 -0.1401
15112W        W28526  17.824   0.261  14.847 -0.0301  0.1041  0.0348
15113W        W28527  16.109  18.232   2.232  0.0295  0.1029 -0.0442
15114W        W28528  17.038   4.055   0.840 -0.2449 -0.0605 -0.0069
15115W        W28529   8.794   3.941  11.831  0.0107  0.0242 -0.0019
15116W        W28530   9.956   0.635  10.916 -0.1128  0.1102 -0.0965
15117W        W28531   2.762   0.787   1.038  0.0057 -0.3856  0.1854
15118W        W28532  17.879  14.701   0.054 -0.2700 -0.0556 -0.1982
15119W        W28533   3.720  13.509  13.994 -0.0473 -0.1335  0.4858
15120W        W28534  18.032  10.151   3.530 -0.2838 -0.0951  0.2138
15121W        W28535  13.761  13.949  11.109 -0.2287  0.0265 -0.1778
15122W        W28536   7.491  12.495   0.348  0.3990 -0.0903 -0.3936
15123W        W28537   5.948   3.150  16.392 -0.1145 -0.2562  0.0896
15124W        W28538   8.230   0.224  10.806 -0.2764 -0.2374  0.0166
15125W        W28539   4.511  14.000  10.751  0.0209 -0.0572  0.2804
15126W        W28540   0.684   4.461   3.051 -0.1805 -0.1249 -0.0620
15127W        W28541  12.144   4.805  15.337  0.2258  0.3324 -0.2260
15128W        W28542  15.519  12.230   3.112 -0.0346  0.0800  0.1125
15129W        W28543  10.652   4.871  10.033  0.0018  0.1001  0.1579
15130W        W28544   4.921   7.480   0.312 -0.0650  0.2998  0.2318
15131W        W28545   7.723  14.636   2.636  0.0241  0.4395 -0.0531
15132W        W28546  12.606   1.886  14.156  0.0890 -0.0873  0.0829
15133W        W28547  13.932  15.734  16.139  0.1254 -0.0177  0.0378
15134W        W28548  10.737   7.736   3.510  0.2229  0.2321 -0.2952
15135W        W28549  14.016   2.536   0.607  0.0022 -0.0417 -0.3772
15136W        W28550  12.673   2.495   1.470  0.0811 -0.0671 -0.0982
15137W        W28551   1.715   4.791   6.262 -0.2437  0.0438 -0.1377
15138W        W28552  13.272  16.972   4.823  0.0983 -0.2207 -0.0684
15139W        W28553  12.071   4.524  14.533  0.0762  0.1731  0.2039
15140W        W28554  18.217  15.409   0.450  0.0168  0.1726  0.0163
15141W        W28555  11.411  15.952   1.770  0.2400  0.3032  0.1754
15142W        W28556  10.487  16.817   3.637 -0.2344 -0.0507 -0.0104
15143W        W28557  13.825   1.753  12.573 -0.0339  0.0306  0.0861
15144W        W28558  13.542   9.394   4.472 -0.3300  0.1893 -0.4491
15145W        W28559  12.764   8.719   3.866  0.1470  0.1791 -0.0159
15146W        W28560   5.162   2.101   1.101 -0.1548 -0.1316 -0.0596
15147W        W28561   9.249   2.722  13.942 -0.2205  0.0370 -0.2160
15148W        W28562   0.938  14.360   2.891 -0.0202  0.0924  0.2475
15149W        W28563   7.396   7.196  15.412  0.0554 -0.1653 -0.1940
15150W        W28564  15.675   5.225   3.097  0.0473  0.0392 -0.2532
15151W        W28565   1.814  13.713   1.624  0.1019 -0.1067  0.0751
15152W        W28566   9.682   0.301  14.980 -0.0321 -0.1843 -0.0556
15153W        W28567   5.054  13.551  12.140  0.4151 -0.0341 -0.0993
15154W        W28568  10.564  14.888  14.260 -0.1688  0.1092 -0.1474
15155W        W28569  14.327  18.116  14.740 -0.0031  0.0095 -0.1650
15156W        W28570   4.443   3.054   2.600  0.1694 -0.0334  0.2239
15157W        W28571  13.034   3.984  12.368  0.1273 -0.1598  0.2385
15158W        W28572   7.314  14.776   0.029 -0.0633 -0.1678 -0.4369
15159W        W28573  17.378  16.578   3.944 -0.1489  0.3562 -0.2687
15160W        W28574   4.803   3.088  16.080  0.2219  0.0860  0.2525
15161W        W28575  15.497  13.572   4.985  0.2980 -0.0243  0.0483
15162W        W28576  10.486  11.919   0.288 -0.0179 -0.1777 -0.1065
15163W        W28577  10.819   9.611  15.784  0.0224  0.1245  0.1017
15164W        W28578  18.052   7.167  13.976  0.0826 -0.0095 -0.0878
15165W        W28579   8.540   6.692  11.547  0.1019 -0.0912 -0.1158
15166W        W28580   0.779  16.693  15.958  0.0173 -0.3133 -0.1267
15167W        W28581   8.825   7.990   5.016 -0.0479  0.0524  0.1878
15168W        W28582   0.969  12.673   4.955 -0.1070  0.1517 -0.2196
15169W        W28583   2.191  13.588   0.642 -0.0193 -0.3134 -0.0627
15170W        W28584  11.276   2.188   2.054  0.0511  0.1367 -0.1679
15171W        W28585   7.447   8.159  15.647  0.1321 -0.3970  0.0820
15172W        W28586  17.635   9.061  14.105 -0.4076 -0.2188  0.1077
15173W        W28587   8.656   5.035   3.160 -0.0206 -0.1363 -0.0391
15174W        W28588  16.694   9.928  11.550 -0.1925 -0.0386 -0.2762
15175W        W28589  13.006  13.423   4.483  0.2211 -0.0173 -0.2508
15176W        W28590   7.032   6.335   1.888 -0.1368 -0.0668 -0.1826
15177W        W28591   2.502   9.652   1.317 -0.1462 -0.2186 -0.1355
15178W        W28592  14.392   2.726   3.585 -0.3498  0.2060 -0.1652
15179W        W28593  16.783  17.073   5.442 -0.5630 -0.3543  0.1873
15180W        W28594   2.767   2.961   5.520 -0.1085 -0.1997 -0.0655
15181W        W28595   9.391  12.361   1.650 -0.1593  0.4609 -0.0130
15182W        W28596   3.382   6.688   0.304  0.1554 -0.1014  0.2273
15183W        W28597   6.957   7.139  15.631 -0.1093  0.0323 -0.1650
15184W        W28598   6.360  16.958  15.172 -0.0669  0.0058 -0.0269
15185W        W28599   6.914   8.493  16.253  0.3056 -0.3277 -0.0599
15186W        W28600   7.861  10.969   2.155  0.4280  0.0859  0.3073
15187W        W28601  13.825   9.091   1.121 -0.0213  0.2024  0.1615
15188W        W28602  16.720  12.943  15.501  0.2589  0.0220 -0.1331
15189W        W28603  10.638  15.685  12.756  0.0138 -0.0266 -0.0962
15190W        W28604   7.589   1.266   2.451 -0.0416  0.1030  0.1278
15191W        W28605   9.864   3.315   4.204 -0.2172 -0.1101 -0.0321
15192W        W28606  16.453   0.713  10.426 -0.1394  0.1235  0.0794
15193W        W28607  14.816   7.320  11.439 -0.0150  0.1225 -0.4047
15194W        W28608   3.358  12.324  14.326  0.3637  0.0609 -0.0453
15195W        W28609   3.535  14.163   2.973  0.2286  0.0177 -0.0183
15196W        W28610   7.158  14.339  12.383 -0.1420 -0.1730 -0.3497
15197W        W28611   7.651  10.244  15.605  0.0463 -0.1598 -0.1177
15198W        W28612   7.413   2.405  16.064  0.2819  0.5101 -0.0039
15199W        W28613  17.947   6.559   0.986 -0.3297 -0.0417  0.1229
15200W        W28614   9.904   9.767   1.087 -0.2156  0.0328 -0.1366
15201W        W28615   2.689  11.893   3.102 -0.0221  0.0456  0.1536
15202W        W28616  11.930   4.582   1.327 -0.1592 -0.0032 -0.1253
15203W        W28617  13.421   7.024   9.880  0.2994 -0.1747 -0.0243
15204W        W28618  10.994  17.175  14.354 -0.2557  0.0776 -0.0364
15205W        W28619  11.844   8.171  14.205 -0.0995 -0.0018 -0.2855
15206W        W28620  13.988  16.708  15.687 -0.1814  0.0270 -0.0458
15207W        W28621   1.413   5.699  10.906 -0.3844 -0.0245 -0.2397
15208W        W28622   4.714   5.150   4.935 -0.0623 -0.0206  0.2290
15209W        W28623   2.618  14.838   4.828  0.0262 -0.0743 -0.0031
15210W        W28624  12.197   7.495  11.738  0.0911 -0.1330  0.1335
15211W        W28625   4.146   7.833   5.869 -0.1068  0.3840  0.3246
15212W        W28626  17.246   7.817   5.756  0.2522 -0.2749  0.2078
15213W        W28627   5.416   0.405   2.127 -0.0774 -0.2609  0.2155
15214W        W28628  14.281   0.301   4.263 -0.1464  0.1993 -0.0891
15215W        W28629  17.393   9.532  14.582  0.1145  0.1416 -0.3297
15216W        W28630  13.351  11.490  14.958 -0.3271  0.0309  0.1087
15217W        W28631   8.578  17.780   4.365  0.1444  0.0631  0.1343
15218W        W28632   5.127  16.748   4.320  0.0399 -0.0818 -0.1680
15219W        W28633   1.093  13.321   2.802  0.3979 -0.4233 -0.0416
15220W        W28634  13.232   3.127   2.359 -0.0580 -0.0872  0.1524
15221W        W28635   6.583   3.359  11.397  0.1700  0.0862 -0.2459
15222W        W28636   4.495  18.119  11.684 -0.2584  0.3366 -0.0679
15223W        W28637  18.353   8.095  11.981  0.0207 -0.1395  0.4073
15224W        W28638  13.238   0.438   2.876  0.0120 -0.1845 -0.1242
15225W        W28639  10.273  18.267  14.634  0.2829 -0.0094  0.1580
15226W        W28640  17.097  12.904   0.717  0.2982 -0.3552 -0.0824
15227W        W28641  15.708  12.513  12.363 -0.1772  0.0126  0.0176
15228W        W28642  16.680   3.368  11.905 -0.0292  0.1833  0.0254
15229W        W28643  17.458   5.602   3.330  0.1712  0.0669 -0.2289
15230W        W28644  17.559  10.232   3.354  0.0187 -0.0341 -0.1484
15231W        W28645  16.073  17.883   3.316  0.4516 -0.1450 -0.1875
15232W        W28646   6.211   1.064  13.798 -0.1555  0.2175 -0.0815
15233W        W28647  16.446   1.719  13.802 -0.0432  0.0983 -0.4602
15234W        W28648   0.342   5.728   1.381  0.1756 -0.2576 -0.0692
15235W        W28649  17.346  16.441  11.677  0.2546 -0.0857  0.0220
15236W        W28650  16.424   2.622   4.165  0.4973 -0.3143 -0.3231
15237W        W28651  15.943   6.830   0.150 -0.1062 -0.0233  0.2573
15238W        W28652   8.139  17.601  16.007  0.4150  0.2471 -0.0393
15239W        W28653  12.954  18.051   4.473  0.1377 -0.1789  0.0247
15240W        W28654   5.467  17.732   2.189  0.2731  0.1364 -0.0181
15241W        W28655   8.101  16.167  15.528  0.0798  0.0449  0.2305
15242W        W28656   0.958  13.579  15.694 -0.0505  0.2299  0.1734
15243W        W28657   9.074   6.305  10.633  0.1723 -0.3557 -0.0523
15244W        W28658  18.245   0.244  12.903  0.1559  0.2957 -0.1778
15245W        W28659   3.139  15.471  10.573 -0.2128  0.3108 -0.2705
15246W        W28660   3.783  11.156  16.306  0.2046  0.0774 -0.2415
15247W        W28661   1.574  10.472  12.371  0.3269  0.1698  0.1758
15248W        W28662   9.683   4.950   2.987 -0.3402 -0.2945 -0.0372
15249W        W28663  15.816  15.424   4.848 -0.0912 -0.4808  0.0548
15250W        W28664  11.194  16.444   0.002  0.0983 -0.0335 -0.0774
15251W        W28665   4.017   5.551  12.757  0.1941  0.0845  0.2981
15252W        W28666   1.627  16.862   6.453 -0.1442 -0.1404  0.0369
15253W        W28667   3.616   4.046  15.433 -0.0340 -0.3128  0.0614
15254W        W28668   9.728   4.249  12.379  0.0186  0.1634  0.0813
15255W        W28669  18.085  16.261  15.969  0.1341  0.3829  0.1903
15256W        W28670  17.602   4.029  13.729 -0.2404  0.4036  0.1123
15257W        W28671   3.826  18.024   1.629  0.1701  0.0838  0.1450
15258W        W28672  13.294  18.287  12.585 -0.4681  0.0435 -0.2451
15259W        W28673  13.098  11.527   5.701  0.1399 -0.0523 -0.0574
15260W        W28674   9.240   4.274   3.446  0.0188 -0.1255 -0.0933
15261W        W28675   0.217   4.532   3.222 -0.2010 -0.3470 -0.0096
15262W        W28676  12.535  12.849   1.684  0.3119 -0.1632 -0.2350
15263W        W28677   5.668   4.944  13.215 -0.1893 -0.0876 -0.1770
15264W        W28678  14.077   2.207  10.581 -0.0768 -0.1496  0.1681
15265W        W28679   0.110  17.224   3.453 -0.0401 -0.1431 -0.1030
15266W        W28680  15.801   5.898   5.769  0.3008 -0.3828  0.0324
15267W        W28681  12.911   6.931  12.599 -0.0934  0.1168  0.1824
15268W        W28682   8.303   3.571  15.305  0.1416 -0.1662 -0.0947
15269W        W28683  14.008   0.816   5.370 -0.0516 -0.3362  0.0928
15270W        W28684   6.203   5.965   5.088 -0.1993  0.1535  0.1436
15271W        W28685  13.288   6.750   2.824 -0.0228  0.3271 -0.4558
15272W        W28686   5.857   9.185  15.032 -0.0193 -0.1279 -0.0741
15273W        W28687   5.843  16.632   5.895 -0.1062 -0.2461 -0.1602
15274W        W28688  11.462   9.229  15.580 -0.2205 -0.0868  0.0864
15275W        W28689  11.888   5.008  11.506 -0.1833 -0.0390 -0.4116
15276W        W28690   7.384   3.213  14.140 -0.0807 -0.0144  0.2520
15277W        W28691   7.354   8.317  11.649  0.0624  0.0490  0.1733
15278W        W28692   0.442   3.085   0.652  0.1535  0.1841  0.0319
15279W        W28693   1.873  17.329   3.988  0.2343 -0.1926 -0.0642
15280W        W28694   7.547   9.593  12.394 -0.0310  0.1070 -0.0981
15281W        W28695  12.477  17.784   3.721 -0.1219 -0.2360 -0.1592
15282W        W28696   0.719   5.406  12.695 -0.0443 -0.2894 -0.0692
15283W        W28697  10.963  11.022  15.708 -0.2462 -0.0277  0.3851
15284W        W28698  10.769  16.754  13.742 -0.0915 -0.0064  0.0916
15285W        W28699   9.500   5.520  14.579  0.0791  0.0734  0.0162
15286W        W28700  14.030   4.332  10.084  0.0015  0.0621 -0.0864
15287W        W28701   6.308  12.583   5.301 -0.0090  0.0675  0.2016
15288W        W28702  16.553   3.085   0.345  0.0926  0.1312 -0.1037
15289W        W28703  17.350  11.307  10.672  0.3263  0.0684 -0.1506
15290W        W28704  17.585  14.180  11.724 -0.0886 -0.1671  0.1501
15291W        W28705  10.734   2.317  15.251  0.0331 -0.2219 -0.3706
15292W        W28706   3.552  14.422  12.876 -0.1582  0.2487 -0.0549
15293W        W28707   8.598   3.781  15.729  0.0562 -0.4242 -0.0813
15294W        W28708   0.772   8.787  15.775  0.2880  0.1341  0.1690
15295W        W28709  15.211  17.703   1.822  0.3442 -0.3147 -0.1679
15296W        W28710   0.744  11.003   1.839  0.0321 -0.4156 -0.0139
15297W        W28711  17.612   9.941  14.411 -0.1451 -0.2653 -0.4875
15298W        W28712  17.516   9.959  11.487  0.1343 -0.2748  0.1087
15299W        W28713   4.012   9.049   1.627  0.1234 -0.0359  0.2593
15300W        W28714   8.804   3.724  14.264 -0.0083  0.0555 -0.0536
15301W        W28715   5.438   1.081   1.798  0.1161 -0.2500 -0.2747
15302W        W28716  13.615  16.696   1.590 -0.4179 -0.1727 -0.2308
15303W        W28717   6.794   4.110  15.344  0.0405  0.2190  0.0302
15304W        W28718  16.030   9.879  13.963 -0.0983  0.0216 -0.3284
15305W        W28719   0.240   7.026  12.596 -0.0861  0.4484  0.1363
15306W        W28720  12.305  13.557  13.257 -0.0328 -0.0741 -0.1356
15307W        W28721   9.723  16.710   1.076 -0.3528 -0.0272 -0.2256
15308W        W28722   2.701   2.983   3.876 -0.1889 -0.0090 -0.0987
15309W        W28723  16.371   7.035  15.961  0.2386 -0.1331 -0.0278
15310W        W28724  16.495  15.212  11.760 -0.0628 -0.0940  0.2179
15311W        W28725  18.017  16.716  14.429 -0.0221  0.0268  0.0367
15312W        W28726  15.272   0.273  15.131  0.2467  0.1043 -0.0644
15313W        W28727   8.534  15.145   2.201  0.1317 -0.1919  0.0686
15314W        W28728   1.026   4.914  12.578 -0.0153 -0.0014  0.0577
15315W        W28729   9.162   5.506  14.131  0.2023 -0.0817  0.3621
15316W        W28730  18.005   2.422  14.669 -0.1736 -0.0961 -0.0477
15317W        W28731   4.619  14.544   6.268 -0.1945  0.2515 -0.0813
15318W        W28732   6.333   2.208  14.500  0.0094 -0.4462 -0.1372
15319W        W28733   2.666   2.925   1.067 -0.1400 -0.1647  0.1382
15320W        W28734  14.385  15.776   5.856  0.0976  0.2685 -0.5012
15321W        W28735  12.022  10.906   5.279 -0.0676  0.0135 -0.2240
15322W        W28736  15.275   0.243   4.343  0.1727  0.0330 -0.1579
15323W        W28737  14.582  17.594  11.344  0.2697 -0.2004 -0.1447
15324W        W28738  13.068   2.688  16.230 -0.1508 -0.0750  0.0208
15325W        W28739  13.355  13.629   0.065 -0.0154 -0.1037 -0.0260
15326W        W28740  18.081   3.654   4.581 -0.0085 -0.0884 -0.0443
15327W        W28741  11.784  11.284  12.451  0.2850  0.0333 -0.4538
15328W        W28742   9.979   5.163   4.115  0.1197  0.1251 -0.2037
15329W        W28743  12.034  15.042  13.016  0.3595  0.0600  0.0232
15330W        W28744   5.626   7.712  12.584 -0.3688 -0.1607 -0.1169
15331W        W28745   4.140   3.012   0.014 -0.0347 -0.4836  0.0565
15332W        W28746  14.753   8.357   1.127  0.0578  0.2468 -0.0607
15333W        W28747  13.963  13.924  16.046 -0.3669  0.2687 -0.2085
15334W        W28748  10.793  17.513  15.739  0.2627  0.3587  0.2223
15335W        W28749   8.641   3.043   3.241 -0.1251  0.0128 -0.0518
15336W        W28750  13.724  17.978  15.190  0.0411 -0.1112  0.0897
15337W        W28751  12.807   4.378  11.808  0.1835  0.0651 -0.0264
15338W        W28752   1.414  11.486   1.232  0.3362  0.1363  0.0799
15339W        W28753  11.443   3.766   0.336  0.0075 -0.0775  0.1329
15340W        W28754  13.174   2.652   0.315 -0.1647 -0.0397  0.1099
15341W        W28755   6.991   7.531  10.495 -0.1872  0.1719  0.0503
15342W        W28756   6.039  18.242   4.871  0.1387 -0.2137 -0.0524
15343W        W28757   3.910  10.085  16.325 -0.2336 -0.2470 -0.1075
15344W        W28758   8.563  16.793   2.661 -0.0572  0.0932 -0.0086
15345W        W28759   6.258   1.202   1.910  0.0510  0.0468 -0.0792
15346W        W28760   0.224  10.112   1.766 -0.0274  0.0116 -0.1370
15347W        W28761   7.103   5.275   0.273 -0.3029 -0.0395 -0.0548
15348W        W28762   8.242   9.885  11.348  0.1838 -0.0406 -0.1963
15349W        W28763  18.328  16.267   1.886 -0.0285  0.0901  0.1195
15350W        W28764  12.071  11.713   4.187 -0.3168 -0.0024  0.0803
15351W        W28765   1.545   0.367   3.532  0.3644  0.0280 -0.2195
15352W        W28766   8.320   8.065   3.545 -0.0142  0.1225 -0.3676
15353W        W28767   3.939  15.282  13.263 -0.0147  0.1927  0.4996
15354W        W28768   0.359   4.259  15.237  0.0578  0.3121 -0.2210
15355W        W28769   3.102   3.700  11.468 -0.1694  0.1566  0.0522
15356W        W28770   1.999  17.661  13.672 -0.5562  0.2471 -0.0906
15357W        W28771   4.383  18.183  14.199  0.0295 -0.0275 -0.0365
15358W        W28772   5.338  15.889  11.644  0.0816 -0.2322  0.1901
15359W        W28773  15.610  11.560  15.845  0.1038  0.2158  0.0238
15360W        W28774   9.504   4.803  12.932  0.2618  0.0827 -0.1893
15361W        W28775  10.619   8.566   3.645  0.0598  0.5247  0.0457
15362W        W28776  18.032  14.456  14.452 -0.2058  0.1046 -0.0992
15363W        W28777  12.914   6.833  13.610  0.0604  0.3483 -0.1218
15364W        W28778   9.103  10.971   2.440  0.2878 -0.0860  0.0402
15365W        W28779   2.085  12.316   5.261  0.0151  0.0315 -0.1791
15366W        W28780   3.349  13.129  15.467  0.1558 -0.0541  0.1124
15367W        W28781   6.475  17.142   1.831 -0.0567 -0.2335 -0.1168
15368W        W28782   9.993   3.232  13.119  0.0985 -0.2907 -0.1312
15369W        W28783   1.998   1.140  12.147  0.2072  0.3256  0.1571
15370W        W28784  12.903   0.725   6.227  0.0805 -0.0109  0.0942
15371W        W28785   8.069   0.482   1.367 -0.1991  0.1046  0.0961
15372W        W28786   9.485  10.676  14.109  0.2481 -0.5507 -0.0278
15373W        W28787   9.023   7.716   4.634 -0.3437 -0.4896 -0.2992
15374W        W28788  16.373  12.452  10.798  0.2423  0.2547 -0.1320
15375W        W28789   9.465   5.971  10.841  0.2302  0.2070 -0.0504
15376W        W28790   7.955   6.350   2.273  0.3046  0.2352 -0.3030
15377W        W28791   5.315  15.799   4.182 -0.0978 -0.2942 -0.0840
15378W        W28792   1.260  14.346  15.960  0.4334  0.1710  0.0077
15379W        W28793   5.598   2.224   1.310  0.1492  0.0776 -0.4363
15380W        W28794   8.245  13.626  14.492  0.0843  0.1090  0.2476
15381W        W28795  13.164  13.045  15.062 -0.1297  0.1524  0.0039
15382W        W28796   9.605   3.825  12.163  0.2031  0.1704  0.3116
15383W        W28797  17.047   1.595   5.826 -0.2603 -0.1879  0.2275
15384W        W28798   2.448   0.651  15.651  0.1284  0.2443  0.1461
15385W        W28799   8.038   7.244   0.033  0.2418  0.2251 -0.3440
15386W        W28800   6.853  15.598  15.741  0.0014  0.0292  0.2028
15387W        W28801   6.307  13.334   0.214 -0.0694 -0.2872 -0.0914
15388W        W28802   5.488  17.588   1.566 -0.2068  0.3159  0.2242
15389W        W28803  17.472   7.434   2.784  0.0114 -0.2382 -0.3263
15390W        W28804  10.937  12.985   5.312  0.2369  0.2535  0.1813
15391W        W28805   1.815   6.316   3.953 -0.2192 -0.2487  0.0588
15392W        W28806  15.133   7.804   9.610 -0.0339  0.0810  0.1003
15393W        W28807  17.667   4.483   4.596 -0.1373  0.1310  0.5672
15394W        W28808  11.466   0.033   4.481  0.0008 -0.3283 -0.2066
15395W        W28809  10.133  14.145   6.019 -0.0532 -0.0203 -0.0160
15396W        W28810   1.657  12.394  16.135 -0.1250  0.1780  0.3288
15397W        W28811  13.501  17.522  15.982  0.1265 -0.0213  0.0750
15398W        W28812  10.053   8.232   4.469 -0.0073 -0.1992 -0.0189
15399W        W28813   7.020  16.701  14.721  0.0131  0.0612  0.3376
15400W        W28814   7.743   2.024   1.615  0.0351  0.2384  0.1396
15401W        W28815   0.066  15.509   6.730 -0.0625 -0.1238 -0.0682
15402W        W28816  14.008  17.343   2.277 -0.1633 -0.2499  0.0339
15403W        W28817  15.345  17.129   1.121 -0.2928 -0.0815  0.2540
15404W        W28818  10.147  12.332  11.576 -0.1808 -0.1360  0.0397
15405W        W28819   3.594   1.742   3.090  0.1279 -0.0793 -0.1754
15406W        W28820  12.103  15.798  11.935  0.0203  0.2462  0.1728
15407W        W28821  16.652   3.600  15.103 -0.0391  0.3120  0.0837
15408W        W28822   7.205   2.335  12.978  0.0514 -0.1398  0.3768
15409W        W28823  13.913  14.996  11.875 -0.0527  0.1474 -0.1828
15410W        W28824   7.656  11.766  11.522 -0.1918  0.1541  0.1734
15411W        W28825   8.369   2.698  11.194 -0.0033  0.1435  0.0504
15412W        W28826  11.039   7.129   3.090  0.2547 -0.0921  0.3768
15413W        W28827   5.322  16.327  16.129 -0.1018  0.0947 -0.2671
15414W        W28828   2.220   2.271  16.197 -0.0905  0.2145 -0.1193
15415W        W28829  17.394   7.181  15.045 -0.0643  0.3141  0.0431
15416W        W28830   3.758  10.137   1.375 -0.1813 -0.1282  0.0528
15417W        W28831   1.587   4.148   0.070 -0.2951  0.0401  0.1044
15418W        W28832  14.435   1.727  11.872  0.0177  0.2987 -0.0253
15419W        W28833   3.822   6.278  14.654  0.0769 -0.0021  0.1921
15420W        W28834  12.422  15.501   3.117  0.0128 -0.0386  0.0777
15421W        W28835   0.770   9.837   2.454  0.4447  0.2426  0.0023
15422W        W28836   3.802  17.999  13.231 -0.0097  0.1686 -0.2825
15423W        W28837  17.147   3.322   3.495 -0.1260 -0.2231 -0.1226
15424W        W28838  11.268  10.123  11.769 -0.0609 -0.1805  0.3223
15425W        W28839   1.996   3.980   5.846  0.3702 -0.2916 -0.0897
15426W        W28840   0.139   1.067   0.077 -0.3511 -0.2489 -0.0778
15427W        W28841  11.957   9.492  14.690 -0.0304  0.1681  0.0446
15428W        W28842  14.967   9.284  12.161 -0.3987  0.2755 -0.2285
15429W        W28843   7.058  12.976  12.955 -0.2111 -0.0932 -0.1837
15430W        W28844   1.433   6.866   4.709 -0.1145 -0.0616 -0.0818
15431W        W28845   2.056   0.419   2.127  0.1591  0.3216  0.0416
15432W        W28846   5.743  13.076  12.045  0.2287 -0.2730  0.2495
15433W        W28847   8.805   2.781  12.607  0.3664  0.4491 -0.1311
15434W        W28848  15.417  10.869  14.225 -0.0044  0.1019 -0.2375
15435W        W28849  13.880   2.982   5.385  0.1659  0.0387  0.2135
15436W        W28850   0.610   1.595   1.724  0.0358  0.2225 -0.1215
15437W        W28851  12.392   2.126  14.906 -0.1756  0.0838 -0.1353
15438W        W28852   6.726  10.016   3.791 -0.0707 -0.0647  0.1604
15439W        W28853   0.733   5.882   5.496  0.1076  0.1300  0.2225
15440W        W28854  16.382   1.181   5.201 -0.2027 -0.1415 -0.1932
15441W        W28855  15.365   8.082  10.699 -0.0732  0.2006 -0.0177
15442W        W28856   3.770  11.896  12.980 -0.2086  0.2571 -0.0629
15443W        W28857  10.574   2.018   4.988  0.0174  0.0903 -0.1537
15444W        W28858   7.630   5.893  10.677 -0.1680 -0.0933 -0.1273
15445W        W28859  10.723  11.755  15.035  0.0831 -0.1295  0.2159
15446W        W28860  14.937   4.786  12.395 -0.1967  0.0054  0.0444
15447W        W28861   6.968  16.340  12.042 -0.2727  0.0591  0.0946
15448W        W28862   3.073   7.739   2.760  0.2484 -0.3176  0.2158
15449W        W28863  14.014   9.239  12.491 -0.0407  0.0177  0.0191
15450W        W28864   6.302  12.084   5.119  0.0886 -0.3281  0.0838
15451W        W28865  18.160   9.381   9.743  0.0904 -0.2399  0.1422
15452W        W28866   9.440   6.600  11.655  0.0110 -0.2073  0.1104
15453W        W28867   8.672  11.515   1.848 -0.2851  0.3284 -0.1828
15454W        W28868  10.862   7.076   4.086 -0.0531 -0.3303 -0.0604
15455W        W28869  15.927   2.931  12.780 -0.2141  0.3185 -0.2589
15456W        W28870  15.966  10.246  11.945 -0.0251 -0.0362 -0.2620
15457W        W28871   6.389  13.137  15.102  0.2997 -0.1750  0.1647
15458W        W28872   7.197   6.813  10.464 -0.0344 -0.0594 -0.0644
15459W        W28873   7.658   6.395  15.221 -0.0853  0.1618  0.0566
15460W        W28874  13.999  15.687   6.230 -0.2129  0.1820  0.2892
15461W        W28875  13.203  15.384   2.329  0.3098 -0.0220 -0.1799
15462W        W28876  11.617  15.035   0.588 -0.1169 -0.2577 -0.2794
15463W        W28877  18.228   7.853   5.490 -0.1173 -0.0100  0.1000
15464W        W28878   4.936  13.912  15.815  0.2989  0.1833  0.3100
15465W        W28879  16.802  12.960   0.180  0.1252  0.2769  0.3023
15466W        W28880   5.913   6.432  15.466 -0.0300 -0.1375  0.0460
15467W        W28881  10.022  14.887  10.765  0.1116 -0.2711  0.2965
15468W        W28882  17.082  18.056   1.035  0.0383  0.0716 -0.2737
15469W        W28883   4.167   3.895  15.318  0.2949  0.1965 -0.0434
15470W        W28884  15.935  16.386   3.433  0.2172  0.2405  0.0542
15471W        W28885   3.193   9.094  15.900 -0.0246  0.1506 -0.2479
15472W        W28886   0.845   4.736  10.442 -0.2723  0.0534  0.0533
15473W        W28887  14.133  14.034   1.039  0.1144  0.0876  0.2644
15474W        W28888  17.537  11.735  10.905  0.0711  0.3002  0.2159
15475W        W28889   1.123   5.998  11.165  0.2517 -0.1551  0.0894
15476W        W28890   6.057   2.717  15.382  0.0114 -0.0262  0.0240
15477W        W28891  16.813   0.244   4.352 -0.0746 -0.2189 -0.0446
15478W        W28892  10.640  12.455  13.843 -0.1942 -0.3099 -0.1614
15479W        W28893   1.430   8.855   3.667  0.1300 -0.0427 -0.0793
15480W        W28894  14.356   7.930  12.686 -0.2801  0.0283  0.3575
15481W        W28895  14.438  17.219   3.439  0.0367  0.0255  0.0704
15482W        W28896   7.627   0.096   5.476  0.0673  0.0523  0.1545
15483W        W28897  10.811  14.842   0.844  0.0894 -0.2242  0.2528
15484W        W28898   2.365   4.114   4.673 -0.2122 -0.0914 -0.1527
15485W        W28899  11.220   3.251   0.263  0.0078  0.2441  0.3174
15486W        W28900   0.952   1.505   6.249 -0.0666 -0.2604  0.0776
15487W        W28901  12.800  14.628  14.941 -0.1069 -0.0789 -0.0075
15488W        W28902   5.586   8.943   3.370 -0.3533 -0.0346  0.1368
15489W        W28903  17.164  18.287   4.076  0.1727 -0.1777  0.1366
15490W        W28904   7.895  12.313   3.886 -0.0319  0.0872  0.0639
15491W        W28905   5.208  10.534  15.145  0.0143  0.0099  0.3021
15492W        W28906  18.050  11.240   0.944 -0.0207 -0.0243 -0.0903
15493W        W28907   5.359   7.293   1.017  0.0783 -0.1475 -0.0553
15494W        W28908   1.487  11.355  14.544 -0.1070 -0.2842 -0.2263
15495W        W28909   2.311   3.065   1.412 -0.2405  0.3774  0.0143
15496W        W28910  10.329   5.636  11.864 -0.0430  0.2026  0.1136
15497W        W28911  14.173   5.736  15.582  0.0068 -0.2377 -0.4441
15498W        W28912  11.352   3.544  15.179 -0.1394 -0.0463  0.0863
15499W        W28913  12.759   7.133  14.187 -0.2649 -0.1213  0.0835
15500W        W28914   9.177   6.779   5.155  0.2565 -0.0912 -0.0021
15501W        W28915  16.078  11.069  14.256 -0.2100 -0.0492  0.0489
15502W        W28916   2.399   7.984  14.093 -0.2213 -0.0643  0.0162
15503W        W28917  12.992  17.829   3.380 -0.0634 -0.2004  0.0451
15504W        W28918   9.674   3.411   1.925 -0.0281  0.1677 -0.0831
15505W        W28919   0.437  12.655  15.523  0.0283  0.1986  0.1160
15506W        W28920  15.773   9.965  13.005 -0.2675 -0.0054 -0.1826
15507W        W28921  11.382   4.403   3.143 -0.4214  0.2872  0.0880
15508W        W28922   1.281   7.400  15.633  0.2922  0.0013  0.0104
15509W        W28923  18.215   1.360   0.433  0.2924  0.0135  0.0336
15510W        W28924  11.907  15.076   3.396 -0.0282 -0.2379  0.1840
15511W        W28925   1.077   1.837  14.053  0.2465  0.1332 -0.3292
15512W        W28926  12.592   9.443  12.555  0.1181  0.1642 -0.0295
15513W        W28927   3.732   7.496  12.033 -0.3610  0.3255 -0.0828
15514W        W28928   6.863   6.244   1.302 -0.0267 -0.2857 -0.3015
15515W        W28929  13.134   3.524   4.532  0.1068 -0.1948  0.0844
15516W        W28930   6.896   8.192  11.826  0.0332 -0.0020 -0.2169
15517W        W28931  12.889   0.417  13.669 -0.1121 -0.1411 -0.0097
15518W        W28932   1.387  17.903  13.487 -0.0812  0.3230  0.2308
15519W        W28933  16.974   7.730  12.917  0.2201  0.1189  0.2683
15520W        W28934  12.042   6.574  12.910 -0.3061  0.0897 -0.0459
15521W        W28935   9.396  11.535   2.500 -0.0522  0.2033 -0.0104
15522W        W28936   1.827   7.758  12.799  0.3005 -0.3686  0.0521
15523W        W28937   0.546  17.826   4.600  0.2982  0.1839  0.3002
15524W        W28938   6.566  15.868   4.684  0.1102  0.1402  0.3144
15525W        W28939   2.045   1.568   0.303  0.0786  0.0920 -0.1347
15526W        W28940   9.792  18.029   1.117  0.0277  0.2541 -0.2617
15527W        W28941   8.057  12.908  11.532 -0.0217  0.2874  0.4177
15528W        W28942   1.190   0.693   1.715 -0.1964 -0.1700 -0.2052
15529W        W28943  14.261  11.694   1.992  0.0800 -0.2032  0.1208
15530W        W28944  14.479   0.474   1.143 -0.4104  0.1943  0.1756
15531W        W28945   1.126  14.189   3.839  0.0054  0.0365  0.1022
15532W        W28946  12.334  15.668  10.563  0.3656  0.0405  0.1413
15533W        W28947  10.076   3.397  15.187 -0.0878 -0.2879 -0.0100
15534W        W28948   3.326   2.073   0.534  0.0777  0.1362 -0.0322
15535W        W28949  14.567   3.989  14.813  0.2168 -0.2480  0.1634
15536W        W28950   7.372  12.563  12.975 -0.1984  0.1507  0.2266
15537W        W28951   2.246   9.158  11.969  0.2194 -0.2302 -0.0508
15538W        W28952  15.569   8.554   1.323 -0.2930 -0.1064 -0.0315
15539W        W28953   4.050   0.571  15.705 -0.1548  0.0456  0.0807
15540W        W28954   1.044   1.195   1.853 -0.0562 -0.2342  0.0970
15541W        W28955  10.089   0.885   5.201  0.1869  0.2439 -0.0558
15542W        W28956   7.120   2.025  10.834  0.0174  0.0090  0.3613
15543W        W28957  14.119   7.794  13.940 -0.2481 -0.1238 -0.0507
15544W        W28958  14.655  11.890   2.403  0.1696  0.0160 -0.0209
15545W        W28959  10.085  18.395   9.704  0.2638  0.5182 -0.0250
15546W        W28960   2.301   5.721   1.941 -0.1009  0.1631  0.2407
15547W        W28961   2.910   2.073  12.556 -0.1780  0.2749  0.1170
15548W        W28962   1.861  17.187  13.983  0.1959  0.5297  0.1728
15549W        W28963   3.188  14.243   0.965  0.1108 -0.1837  0.1196
15550W        W28964   0.504  10.545   5.927 -0.0811  0.0099  0.2758
15551W        W28965  15.600  14.004   3.532  0.0779 -0.1968 -0.1364
15552W        W28966   2.901   2.465   1.773 -0.1188  0.0611  0.2447
15553W        W28967   4.144   8.695   0.529  0.0886 -0.3997  0.1880
15554W        W28968   5.121   9.987   0.494 -0.2098  0.1807  0.0110
15555W        W28969  12.579   9.513   0.624  0.1580  0.1472 -0.0932
15556W        W28970  13.631   8.667  13.618 -0.0985 -0.0930 -0.2211
15557W        W28971   8.188  18.242   5.509  0.0053 -0.0486 -0.1124
15558W        W28972   3.708   6.444  15.725  0.2447 -0.0103  0.0838
15559W        W28973   1.827   8.958  11.474  0.2563  0.1236 -0.1018
15560W        W28974  16.810  11.753  13.197 -0.0979  0.0013 -0.0434
15561W        W28975  13.668   7.214   1.228  0.0205  0.2904  0.1442
15562W        W28976  10.323   9.057   3.387 -0.1039 -0.3491  0.0116
15563W        W28977  15.608   9.109  11.386  0.3603 -0.2281  0.0090
15564W        W28978  14.606   9.115   4.630  0.0878  0.0414 -0.0335
15565W        W28979   7.214   6.855  12.019  0.2794 -0.2539 -0.1901
15566W        W28980   1.568   5.838   3.657 -0.2862  0.0852  0.0544
15567W        W28981  15.058   8.647  14.891  0.2030 -0.0470 -0.2443
15568W        W28982  14.874   0.698  14.394 -0.0930  0.0877 -0.2865
15569W        W28983  17.350   9.438   3.291  0.2640  0.1202 -0.0854
15570W        W28984   7.961   4.373  14.189  0.2590 -0.2113 -0.1225
15571W        W28985   7.881   4.210   0.026 -0.1652 -0.1021  0.1335
15572W        W28986  11.611   8.894   9.796 -0.0368  0.2639  0.2718
15573W        W28987   8.596   0.551   5.468 -0.2289 -0.1022  0.0247
15574W        W28988  11.896   8.316  12.280 -0.1490 -0.1207 -0.0133
15575W        W28989   9.141   9.149   2.022  0.3251  0.0823 -0.1973
15576W        W28990   7.503  17.632  15.098 -0.0375 -0.0929  0.5029
15577W        W28991  11.701   7.878   0.051  0.2715  0.0157  0.2439
15578W        W28992   2.792   1.717  13.016 -0.1188 -0.0381  0.1341
15579W        W28993   1.657  16.179   2.118  0.0122  0.3070 -0.0605
15580W        W28994  17.987  11.457   0.462  0.3567  0.0683 -0.1478
15581W        W28995  13.372   6.111  15.615  0.0488 -0.1626  0.1083
15582W        W28996   3.325  17.535  11.471 -0.0144 -0.0288 -0.1015
15583W        W28997  17.816  12.362  15.100  0.0877  0.0826  0.1157
15584W        W28998  14.647  17.669   3.738  0.3539 -0.4192 -0.0058
15585W        W28999   5.650  11.556  11.087  0.0694 -0.1253 -0.2774
15586W        W29000   0.394  18.317   1.439 -0.4459  0.3395 -0.3248
15587W        W29001   8.861   8.050   0.100  0.3366 -0.1686 -0.2749
15588W        W29002   2.343  15.350   0.146 -0.0194  0.0823 -0.0770
15589W        W29003  10.942   8.136  11.224 -0.0917  0.3155  0.1005
15590W        W29004   6.878  14.249   0.863 -0.0451 -0.2676 -0.1239
15591W        W29005   8.491   5.638   3.275  0.2685 -0.0381  0.0860
15592W        W29006   4.197  10.819  12.282  0.0448 -0.0103  0.1926
15593W        W29007  17.656  10.760   5.292 -0.1840 -0.0747 -0.1116
15594W        W29008  12.825   3.111  13.385  0.0230  0.0690 -0.1440
15595W        W29009   3.272   0.490  10.725  0.0655  0.0592 -0.3349
15596W        W29010   4.196   7.662  11.060  0.0121 -0.3623  0.0271
15597W        W29011  14.553  12.636  16.272  0.0963 -0.0598 -0.0192
15598W        W29012   2.496  18.281  11.646  0.0371  0.0292  0.2300
15599W        W29013  13.691   7.121   0.266  0.0796  0.0847  0.1678
15600W        W29014  13.849  14.378   4.429  0.0878  0.1626  0.0818
15601W        W29015   8.951  10.557  13.946 -0.0320 -0.2962  0.2472
15602W        W29016   8.973  17.599   4.655  0.2748 -0.0874  0.2204
15603W        W29017   8.026   5.792   1.519 -0.2142 -0.1333 -0.1412
15604W        W29018  10.094  11.158  15.683 -0.1186 -0.1056 -0.0135
15605W        W29019   6.818  10.287   2.270 -0.3954  0.2560 -0.3540
15606W        W29020  13.935  15.121  10.482 -0.0018  0.1976 -0.0061
15607W        W29021   0.651   4.746   2.597 -0.3410  0.4397 -0.0567
15608W        W29022  11.624   2.994  14.139 -0.0359  0.3304 -0.1869
15609W        W29023   9.096   1.561   1.695  0.0438  0.0646  0.1492
15610W        W29024  17.221   7.756  11.616 -0.0447  0.1965 -0.0078
15611W        W29025  12.825   8.883  13.393 -0.3915  0.0659 -0.1227
15612W        W29026   8.039   6.950  15.354  0.1430 -0.2873  0.0445
15613W        W29027   6.198   4.117   2.471 -0.0941  0.0506 -0.0563
15614W        W29028   3.063  15.258   6.054  0.0884 -0.1244 -0.2351
15615W        W29029   6.062  10.494  12.470  0.1627  0.4214  0.3211
15616W        W29030  10.472  16.611  14.836  0.0872 -0.1661 -0.0199
15617W        W29031  15.284  17.221  12.955  0.1896 -0.0751  0.0407
15618W        W29032  18.016  12.382  14.248  0.2148  0.0046 -0.0981
15619W        W29033  18.299  13.335  13.314  0.0297 -0.3245 -0.1801
15620W        W29034  13.315   9.744  13.468  0.0094 -0.0979  0.1383
15621W        W29035  11.323   2.375  10.854  0.1275  0.1400  0.2961
15622W        W29036   8.615   9.526  15.495  0.1082  0.2417  0.0599
15623W        W29037   7.249  17.831   4.037 -0.0106  0.2804 -0.0983
15624W        W29038   5.165   2.694   4.690  0.0268 -0.0679  0.1856
15625W        W29039   7.742  15.482  13.554  0.1336 -0.3195  0.1124
15626W        W29040   5.942  11.819  12.607  0.1856  0.1307 -0.0387
15627W        W29041   2.322   0.211   3.894 -0.4185 -0.4098 -0.0821
15628W        W29042   5.428   8.014  12.231 -0.1117  0.1132 -0.1588
15629W        W29043   3.444  15.072   3.023 -0.0353 -0.0662  0.0778
15630W        W29044  10.786   5.549  12.590  0.0800 -0.0681  0.1306
15631W        W29045  16.189  16.710   2.445  0.1826  0.1012 -0.0994
15632W        W29046  18.091   1.958   1.645  0.2222  0.0619 -0.2676
15633W        W29047   0.476  17.167  11.472  0.1801  0.1217 -0.1593
15634W        W29048  11.679  16.984  12.049  0.0494 -0.4493  0.0848
15635W        W29049   0.032   9.597  11.531 -0.1848  0.3338 -0.0813
15636W        W29050  17.741  15.374  10.837 -0.0512  0.1681  0.0600
15637W        W29051   4.215   9.999   1.264 -0.0374  0.0357  0.2519
15638W        W29052   6.839  17.229   4.545 -0.0732  0.0617 -0.4236
15639W        W29053   0.322  11.864   5.362 -0.0283  0.0116 -0.1533
15640W        W29054   4.696   3.009  11.172  0.0303  0.0083 -0.2322
15641W        W29055   9.700   8.917   4.562  0.1483 -0.0392 -0.0144
15642W        W29056  10.105   4.687  14.987 -0.1303 -0.0132 -0.1426
15643W        W29057  16.232  11.036  16.479  0.2539 -0.1546 -0.1560
15644W        W29058   7.696  10.512  11.559 -0.2733 -0.2277 -0.1709
15645W        W29059   3.375   2.537   0.399  0.2035 -0.0058 -0.0237
15646W        W29060  11.134  15.078   0.504 -0.1394  0.0103  0.0706
15647W        W29061  15.012  12.808   2.518  0.2206  0.0436  0.1805
15648W        W29062   5.974   8.312   6.162  0.2426  0.0792  0.2677
15649W        W29063   0.753  12.695  11.880  0.2512  0.3845 -0.0558
15650W        W29064   7.293   3.884   0.626  0.1655  0.2797 -0.3254
15651W        W29065   3.947   9.976  10.826  0.1705  0.1425 -0.1887
15652W        W29066  14.530  13.636   4.259  0.2040  0.0272  0.1604
15653W        W29067   0.052   1.013   3.690  0.2435 -0.0644  0.1769
15654W        W29068   9.504  18.390  11.954 -0.0983 -0.0074  0.0798
15655W        W29069  15.474  12.949  11.376  0.1877 -0.2739 -0.0099
15656W        W29070  13.999   8.087  16.394  0.1040 -0.0496  0.0964
15657W        W29071  15.088   0.441  15.694  0.1653 -0.2031  0.0504
15658W        W29072   3.842   0.175   2.374  0.2650  0.1333  0.1875
15659W        W29073  13.090   6.435  11.809  0.3201 -0.1750 -0.0325
15660W        W29074   5.615   5.282  15.917  0.0010  0.2373  0.2452
15661W        W29075   0.642   0.823   5.860 -0.0410 -0.0532 -0.1276
15662W        W29076  17.416   2.078  11.194  0.3060  0.0067  0.0414
15663W        W29077  14.392   4.268   4.560  0.0393  0.0696  0.3262
15664W        W29078   9.879   8.969  14.583  0.4651  0.0946  0.2079
15665W        W29079   6.597   2.884  11.094 -0.2689 -0.3058  0.0592
15666W        W29080   1.439  15.092  11.888  0.0961  0.1399 -0.2785
15667W        W29081  14.571  15.323  16.011  0.0111  0.0266  0.0351
15668W        W29082  14.058   3.885   2.078 -0.0104 -0.0004  0.0536
15669W        W29083  16.424  12.913   1.473 -0.1123  0.2115 -0.0593
15670W        W29084  14.380   0.464   5.292  0.1041  0.2919  0.0119
15671W        W29085   5.466   6.270  15.280 -0.1641 -0.0360 -0.1117
15672W        W29086   2.560  18.180   0.556 -0.1294 -0.2181  0.1873
15673W        W29087  12.412   4.547  12.938  0.3001 -0.0023  0.2053
15674W        W29088   6.064   9.542   0.395  0.2501  0.2419  0.4909
15675W        W29089  14.123  15.211   6.282  0.1383  0.2466 -0.0406
15676W        W29090   5.565   4.535  12.946 -0.0699 -0.1924  0.3072
15677W        W29091  18.014   4.971  13.960  0.2638  0.1810  0.1544
15678W        W29092  14.794   5.669  12.823 -0.0501 -0.1127  0.0102
15679W        W29093   2.195  11.192   4.054 -0.2192 -0.4020 -0.0909
15680W        W29094   1.428   4.219  11.009  0.0942 -0.0820 -0.0612
15681W        W29095   6.862   6.853   2.000 -0.0618  0.1163  0.0910
15682W        W29096  15.391   4.953   4.831 -0.2536 -0.0880 -0.2453
15683W        W29097  15.890   9.326  15.818  0.1239 -0.1593  0.1533
15684W        W29098   0.211  12.334  14.609 -0.2322  0.2313  0.2149
15685W        W29099  13.964   6.819  15.180 -0.0309  0.1471 -0.0721
15686W        W29100  15.306   0.155   0.843 -0.1384  0.1096  0.3511
15687W        W29101  12.427  13.084  13.561 -0.0145  0.1575  0.0869
15688W        W29102  17.417   2.453  15.349 -0.1375  0.3386  0.0484
15689W        W29103   7.265  10.047  16.500 -0.1701 -0.0558  0.0546
15690W        W29104  16.732   9.061  11.993 -0.3201  0.1244  0.2006
15691W        W29105   4.235  11.992  15.339  0.1435 -0.4513 -0.1464
15692W        W29106   0.273  13.570  11.554  0.0076  0.0784 -0.1251
15693W        W29107   6.050  14.478   0.950  0.2154  0.0475  0.0164
15694W        W29108  12.621  11.467  11.048  0.2654  0.1231 -0.2307
15695W        W29109   7.263  12.342   1.600 -0.1174 -0.2063 -0.2871
15696W        W29110   6.475   9.387   0.602  0.1146  0.0298  0.2003
15697W        W29111   7.509   0.654  13.816  0.2598 -0.0691  0.1161
15698W        W29112  15.133   0.898   5.487 -0.3062  0.1149 -0.1315
15699W        W29113   8.817   2.836   4.409  0.0469 -0.0037 -0.3432
15700W        W29114  10.371  10.466   4.243  0.3480 -0.3530  0.1173
15701W        W29115   1.237   4.919   2.575 -0.2089  0.1634 -0.0380
15702W        W29116  14.596   3.210   0.055 -0.0283 -0.0625 -0.1417
15703W        W29117  11.378  17.008  10.289 -0.0393 -0.0051 -0.1846
15704W        W29118  10.894  12.601   0.299  0.1654 -0.0525 -0.0304
15705W        W29119  13.171   1.942  13.355  0.2425  0.0350 -0.2394
15706W        W29120  10.115   0.554   3.640 -0.1319 -0.2290  0.1459
15707W        W29121   1.433   7.831   2.621 -0.0886 -0.2662 -0.3265
15708W        W29122  12.660  18.359  11.453 -0.0617 -0.2574  0.2808
15709W        W29123  10.024   8.234  10.723 -0.0814  0.0048  0.1082
15710W        W29124  17.026  16.211   2.152 -0.0576 -0.1929  0.0397
15711W        W29125   9.578   3.794   1.295 -0.0436  0.0165 -0.0670
15712W        W29126  11.450  14.236   3.509  0.3813 -0.3659 -0.3421
15713W        W29127   0.810  15.022  12.300  0.1010  0.2654  0.0530
15714W        W29128   5.012  16.457  13.193  0.0918 -0.0919  0.1656
15715W        W29129   4.550  11.738   5.432  0.1294  0.0717 -0.0736
15716W        W29130   0.666   7.720  10.883  0.0222  0.1003  0.1138
15717W        W29131   4.893  11.584  11.781 -0.0121 -0.0787 -0.0309
15718W        W29132   7.494   9.546   5.121 -0.0909  0.1270  0.1198
15719W        W29133   0.100   0.440   0.117  0.4508  0.2213 -0.0614
15720W        W29134  17.394   9.830  16.203  0.0753  0.2443 -0.0306
15721W        W29135   9.288   7.150   2.173 -0.1473  0.0645 -0.1099
15722W        W29136   2.133   9.234   4.653 -0.3708 -0.0791  0.2209
15723W        W29137  13.614  13.852   6.070  0.0564  0.0013  0.3333
15724W        W29138   7.863   3.428   3.634  0.1410  0.0767 -0.1110
15725W        W29139   0.940   5.486   1.887  0.1183 -0.0030  0.0733
15726W        W29140   3.359   8.594   2.298 -0.1503 -0.2646 -0.0818
15727W        W29141   4.872   2.322  13.065  0.2910 -0.2814 -0.2365
15728W        W29142  11.589   0.483   4.681  0.0654  0.2552  0.0462
15729W        W29143   8.648   7.397   6.008  0.2289 -0.0843 -0.1979
15730W        W29144  14.294   8.488  10.671 -0.3217  0.1684  0.0932
15731W        W29145   5.749   5.416   5.894 -0.4079  0.4474 -0.0810
15732W        W29146  15.040   6.482  11.078  0.1467 -0.2512 -0.0984
15733W        W29147   8.107  12.565  12.733 -0.3579  0.1405 -0.3046
15734W        W29148  10.334  15.268  12.894 -0.0793  0.1305 -0.1055
15735W        W29149   3.498  15.817   3.723 -0.3555 -0.1187 -0.1407
15736W        W29150   2.023  13.914  12.730 -0.0729  0.0116 -0.2182
15737W        W29151   2.576  13.280  12.182 -0.1481  0.1157  0.4748
15738W        W29152   3.907  14.985  14.008 -0.0598 -0.0670  0.0830
15739W        W29153  15.168  14.276  10.812 -0.1348  0.0056  0.3190
15740W        W29154  15.134   8.438   1.512 -0.1204  0.0698 -0.3322
15741W        W29155   9.046   0.824   3.502 -0.0622 -0.3283 -0.0024
15742W        W29156   6.846  12.152  13.711  0.0350  0.1100  0.2381
15743W        W29157   0.704  16.084   6.593 -0.1956 -0.1180 -0.4757
15744W        W29158   3.495  14.042   1.377 -0.2948 -0.0728 -0.3547
15745W        W29159  17.149  14.477  16.456 -0.1102 -0.3368 -0.2492
15746W        W29160   0.797   7.690   6.084 -0.1819  0.1292  0.3165
15747W        W29161  13.535  15.788   2.391  0.2557  0.2831 -0.0432
15748W        W29162  12.731   8.606  15.170  0.1267 -0.1566  0.0585
15749W        W29163  17.869  12.781   1.064  0.0274  0.1308  0.0060
15750W        W29164   2.576   1.769  15.913  0.2284 -0.0376 -0.1666
15751W        W29165  17.977  15.008   3.437  0.0902 -0.0157  0.0462
15752W        W29166   7.213   0.547   5.441  0.0360 -0.1753 -0.1072
15753W        W29167   2.254  10.936  11.875 -0.1557  0.3337 -0.1625
15754W        W29168  12.723  15.576  16.418 -0.1561  0.2114 -0.3447
15755W        W29169  15.675   4.175  13.995  0.0727  0.1765 -0.4317
15756W        W29170   9.587   7.213  15.119  0.4578 -0.0237 -0.3670
15757W        W29171   8.120   7.238  12.335  0.0523  0.0428  0.0041
15758W        W29172  12.479  18.099   5.723 -0.0475 -0.0664  0.2198
15759W        W29173  10.244   7.362  11.598 -0.2486  0.1782 -0.5032
15760W        W29174  14.357   9.142   1.143 -0.0269  0.1177  0.1881
15761W        W29175  15.401  12.155  14.685 -0.0217  0.2499  0.2065
15762W        W29176   6.791   2.270  15.528  0.1488  0.0476  0.1211
15763W        W29177   7.160   3.667  13.339 -0.0218 -0.0767  0.2389
15764W        W29178  16.745  15.918   5.857 -0.1150 -0.0113  0.0735
15765W        W29179  18.127   0.581   2.508  0.0830 -0.2804  0.0782
15766W        W29180   5.848  15.164  14.369  0.0315  0.1602  0.2541
15767W        W29181  12.825  18.354  12.810 -0.0132 -0.1172 -0.1771
15768W        W29182   3.983   5.923   5.594  0.2680  0.1178 -0.1713
15769W        W29183   1.223   4.496  11.799  0.0577  0.1154 -0.0977
15770W        W29184   4.403   2.491   1.638 -0.1247 -0.0644 -0.4137
15771W        W29185  15.026   5.087  15.724  0.1197  0.1783  0.2992
15772W        W29186  11.101   1.447   0.151 -0.0641 -0.1599 -0.1537
15773W        W29187   5.375   1.511  12.000  0.0871 -0.2234  0.0947
15774W        W29188   7.935   2.970   2.658 -0.2890  0.1495 -0.0684
15775W        W29189  12.028  13.862  12.964 -0.0446 -0.1642 -0.2164
15776W        W29190  12.416  14.110   3.039  0.1412  0.5200 -0.4650
15777W        W29191   8.728  18.269  14.087  0.0623  0.2688 -0.1080
15778W        W29192  11.034  12.263  11.081 -0.0716 -0.4892  0.1059
15779W        W29193   9.174  17.738   4.226  0.0805  0.1735 -0.3638
15780W        W29194  11.618   9.747   2.368  0.0787  0.2630  0.2486
15781W        W29195   6.552  14.375  15.003  0.1907 -0.0212  0.1163
15782W        W29196   3.027   7.243  11.462  0.1880 -0.0218 -0.1943
15783W        W29197  12.406  14.984  13.907 -0.1957  0.1329 -0.2233
15784W        W29198   3.676   7.955   0.089  0.0812 -0.0171  0.3392
15785W        W29199   2.345   3.309  12.452  0.2013  0.0304  0.1429
15786W        W29200   0.405   8.923   5.373  0.0301 -0.1187  0.1037
15787W        W29201  15.316   9.212  10.504  0.0710  0.1221  0.1948
15788W        W29202  10.442  15.648  13.377 -0.2954  0.2055 -0.0271
15789W        W29203  13.398   6.622   4.396  0.1982 -0.0049 -0.1999
15790W        W29204   4.848   4.166   3.099 -0.1824  0.0604 -0.1089
15791W        W29205  16.080  14.946  11.601  0.0688 -0.0602 -0.3395
15792W        W29206  13.177   2.765  14.910 -0.1767 -0.0157 -0.0351
15793W        W29207   3.012  10.778   5.587 -0.0524 -0.1824  0.1093
15794W        W29208   6.656   1.073   3.856 -0.1569 -0.2195 -0.2144
15795W        W29209   9.744   5.353   3.275 -0.0939  0.2162 -0.4460
15796W        W29210  11.409  10.260  12.271  0.1957 -0.5108 -0.0375
15797W        W29211  13.575  13.177   0.191 -0.1801  0.0223 -0.1185
15798W        W29212   2.473   4.623   2.311  0.2630 -0.0351  0.1811
15799W        W29213   0.061   1.621  16.504  0.0620 -0.0414 -0.2781
15800W        W29214  12.503  17.637  12.289  0.1258  0.1034  0.1358
15801W        W29215   1.271   9.038   2.654 -0.0449 -0.1543  0.0063
15802W        W29216   1.007   8.151  16.335  0.0359 -0.0500 -0.1257
15803W        W29217  16.695   2.950   0.973  0.2404 -0.1413 -0.1026
15804W        W29218  12.095   1.287  14.278 -0.0896 -0.2280 -0.0971
15805W        W29219  14.266  12.332  11.085 -0.3097  0.0373  0.2239
15806W        W29220  13.815   2.503  10.263 -0.2241  0.3110 -0.1780
15807W        W29221   1.730   4.134  15.236 -0.0562 -0.1874 -0.0111
15808W        W29222  14.877   3.433  10.558  0.0220 -0.1813 -0.1494
15809W        W29223   1.186  13.883   5.175 -0.0565 -0.0297 -0.0138
15810W        W29224   9.068   5.387   0.815  0.0002  0.0721 -0.2941
15811W        W29225   5.464   3.561  15.170 -0.0956 -0.2083 -0.0383
15812W        W29226   8.333   6.212  14.096 -0.0486 -0.0105 -0.3901
15813W        W29227  13.271   6.747  12.202 -0.1255 -0.0952 -0.0125
15814W        W29228  15.179  11.144   1.991  0.0109  0.1934  0.1252
15815W        W29229   3.354  17.621  12.929  0.2734 -0.0452  0.2281
15816W        W29230   5.298  15.597   5.047 -0.2766 -0.4972  0.1153
15817W        W29231   8.618  14.957   6.229  0.1921  0.0743 -0.1195
15818W        W29232   6.412   6.464  12.300  0.0604 -0.2789  0.1344
15819W        W29233   8.342  11.187   3.072  0.1853  0.0883 -0.1175
15820W        W29234  10.810   0.514   0.568  0.0607  0.1123 -0.0062
15821W        W29235   5.460   5.424  11.231 -0.3551  0.0201 -0.0394
15822W        W29236   9.474  13.657   1.768 -0.0253  0.0839  0.0814
15823W        W29237  11.254   4.449  11.477 -0.0520  0.0284  0.1337
15824W        W29238   4.677   5.604   3.203 -0.4915 -0.2972  0.0590
15825W        W29239  12.778  12.021  16.184 -0.1613  0.1865  0.1315
15826W        W29240   4.524  17.033  15.167 -0.1016 -0.0372 -0.3218
15827W        W29241   5.494   7.995   3.275 -0.1208  0.0383 -0.0276
15828W        W29242   9.115   5.904   0.926  0.0868 -0.4275 -0.0101
15829W        W29243   9.407   9.397  12.549 -0.0392 -0.1629 -0.2389
15830W        W29244   2.698   3.015  15.858  0.4785  0.1297 -0.4496
15831W        W29245   5.432   2.648   2.485  0.1002 -0.0752 -0.1031
15832W        W29246  13.414   2.025   5.488  0.2495  0.0359 -0.6204
15833W        W29247   1.678   0.930   4.640 -0.1165  0.3545  0.0080
15834W        W29248  11.908  11.748  11.422  0.4292 -0.0010  0.0223
15835W        W29249   2.165  17.001   3.772 -0.1604 -0.0678 -0.0623
15836W        W29250  11.826   5.213  11.961 -0.0117  0.1580  0.0126
15837W        W29251   8.928   7.941  12.923  0.3712  0.1691  0.1256
15838W        W29252   2.690   0.583   4.046  0.1076 -0.0153 -0.1575
15839W        W29253   0.189   8.475  13.313 -0.2170 -0.2613  0.1126
15840W        W29254   6.126  14.640  11.032 -0.0459  0.1333 -0.0004
15841W        W29255   4.931  14.134   5.581  0.0799 -0.3035  0.1721
15842W        W29256  14.669   7.451  14.740  0.1200  0.5696  0.2240
15843W        W29257   4.825   3.947   0.742  0.1427  0.1012  0.0486
15844W        W29258   5.559  17.326  14.109 -0.0503  0.1224 -0.3371
15845W        W29259   7.788  15.841  11.826  0.0717 -0.0976  0.2234
15846W        W29260   9.289  17.306   5.302 -0.0964 -0.0215  0.1454
15847W        W29261   1.080   9.097  11.157 -0.0552 -0.1487  0.1745
15848W        W29262   9.192  17.389   2.332 -0.1487  0.1237  0.3258
15849W        W29263   3.556   7.126   0.138 -0.1146 -0.2471 -0.0062
15850W        W29264  10.674  15.888  10.409 -0.0994 -0.2141  0.1637
15851W        W29265   1.622   2.157  12.274  0.1228 -0.2798 -0.2230
15852W        W29266   3.638   1.876   2.328 -0.5508 -0.0914 -0.2725
15853W        W29267  11.842  10.421   1.409 -0.3585  0.1943 -0.5411
15854W        W29268   9.244   5.699   4.961 -0.0957 -0.1083  0.0843
15855W        W29269   2.411   9.090  13.134  0.2263 -0.2001 -0.0550
15856W        W29270   9.782  16.400   0.694 -0.3176  0.1361  0.0881
15857W        W29271   1.774  13.208  11.668  0.3094  0.0923  0.0268
15858W        W29272  15.659  16.271   3.010  0.2508 -0.2854  0.2051
15859W        W29273   6.623   4.664  13.898 -0.2349  0.2588 -0.5125
15860W        W29274  10.820   7.322  10.727  0.0938 -0.0037  0.2906
15861W        W29275  12.894   1.673  14.526  0.1651 -0.0509  0.1667
15862W        W29276   7.804  13.747   0.343 -0.2028 -0.6155 -0.1890
15863W        W29277  17.100   4.159   3.956 -0.0865  0.0828  0.0562
15864W        W29278   9.350  13.667   6.266 -0.2489 -0.1399 -0.0836
15865W        W29279   6.194   2.622   0.715  0.0520 -0.2298  0.1793
15866W        W29280  15.951  15.766   1.811 -0.2327 -0.2064  0.1789
15867W        W29281  16.947  15.587   0.516 -0.0530  0.1526  0.1508
15868W        W29282   7.691   3.234   0.102 -0.0381  0.3926  0.2065
15869W        W29283   6.207   3.525  14.317 -0.2444  0.2965  0.2065
15870W        W29284  13.690  14.177   0.141 -0.0635 -0.1010 -0.0460
15871W        W29285  16.573   1.130   3.925 -0.0182  0.1905 -0.0509
15872W        W29286   1.907  16.971  11.598  0.0917 -0.2802  0.0763
15873W        W29287   2.247   5.654   0.285  0.2191  0.1179 -0.0749
15874W        W29288  12.242   9.388  14.234  0.3709  0.1023 -0.1263
15875W        W29289  16.995  17.005  12.140  0.1726 -0.1847  0.0827
15876W        W29290  16.280  15.563   4.551 -0.0044 -0.0989 -0.2096
15877W        W29291   8.943   2.146   0.310  0.4435  0.0112  0.1622
15878W        W29292   3.324  14.157  16.273  0.3508 -0.0275  0.4038
15879W        W29293   8.300   0.973  15.332 -0.0859 -0.3774 -0.3096
15880W        W29294  15.238   9.027  14.655 -0.3808  0.1352  0.0141
15881W        W29295  12.577  14.149   5.205 -0.0841  0.0719  0.3276
15882W        W29296   5.233   4.572  10.595  0.1350  0.0182 -0.0060
15883W        W29297   6.069  15.752  12.134 -0.2729 -0.0499 -0.0119
15884W        W29298   7.743  14.159   3.524  0.1485 -0.2272  0.0359
15885W        W29299  14.897   9.100  15.630  0.0015  0.3146  0.2868
15886W        W29300   4.057   2.636  15.956  0.0224  0.0063  0.0912
15887W        W29301   1.293   3.328  10.656 -0.1478 -0.1041  0.1707
15888W        W29302  14.937   7.934  10.416  0.3352 -0.0744 -0.0627
15889W        W29303  15.848  10.704  12.251  0.1256  0.2893  0.0782
15890W        W29304  12.933   5.925  15.635 -0.1020  0.0420 -0.1707
15891W        W29305  14.688   9.905   0.818  0.0365  0.3622 -0.0710
15892W        W29306   3.924   8.676  14.329 -0.1378 -0.0338  0.0980
15893W        W29307  13.216  15.451  14.419  0.0439 -0.1248  0.1038
15894W        W29308   2.779   4.152  12.740 -0.4639  0.0205  0.2414
15895W        W29309   7.517   5.475  15.541  0.0256 -0.3624 -0.1929
15896W        W29310  12.842  12.673  15.455  0.1346 -0.2813  0.0376
15897W        W29311   8.822  18.235  14.558 -0.0978 -0.0388  0.0613
15898W        W29312   7.140   4.398   1.621 -0.3235 -0.1186 -0.0576
15899W        W29313   1.337   2.262   4.432  0.0113 -0.1005  0.1758
15900W        W29314  16.240  15.209   2.489  0.2286  0.2831 -0.0022
15901W        W29315   7.971   9.555  11.580 -0.3228  0.1122  0.4631
15902W        W29316  14.511   7.664  10.165  0.0744 -0.1525  0.1585
15903W        W29317  16.856  16.688   2.064 -0.2371 -0.0203  0.1422
15904W        W29318   7.896   3.395   4.620 -0.0388 -0.2044 -0.1802
15905W        W29319  17.279   1.117  11.824 -0.2388  0.0084  0.3967
15906W        W29320  16.301  11.071   0.896  0.0401 -0.0072 -0.0485
15907W        W29321   1.492   5.016  15.150  0.4685 -0.0571 -0.0730
15908W        W29322   9.657   4.064  14.541  0.0843 -0.2649 -0.2486
15909W        W29323   7.204   9.664   3.069 -0.0099  0.0599  0.1588
15910W        W29324  15.674   8.809  15.930 -0.1549  0.0287 -0.1052
15911W        W29325   9.981   0.863   0.266  0.0252 -0.1184  0.0802
15912W        W29326   9.477  16.433  15.513  0.1688  0.1886  0.0814
15913W        W29327   4.148  10.398  14.373  0.1824 -0.2017  0.3126
15914W        W29328   3.949  10.844   2.834  0.1227 -0.0733 -0.0074
15915W        W29329   8.608   6.968   5.089 -0.2146 -0.0932 -0.1215
15916W        W29330  16.697  17.997   5.387 -0.0186  0.0157 -0.2008
15917W        W29331   2.006   1.460   3.042 -0.0629  0.1647 -0.1654
15918W        W29332   3.346  14.207  15.399 -0.0921 -0.1091 -0.3377
15919W        W29333   7.597  18.229   2.276  0.0903 -0.2619  0.1185
15920W        W29334   2.998   5.095   0.648  0.0528 -0.1545  0.5722
15921W        W29335   2.498  10.128  12.379 -0.1976 -0.0655  0.0429
15922W        W29336   1.471   2.382  11.462 -0.0370 -0.3772  0.0342
15923W        W29337   5.063   5.252   9.988  0.2236 -0.2930  0.0401
15924W        W29338  18.125   9.397  11.928 -0.0056 -0.0642 -0.3759
15925W        W29339   8.397   8.691   0.999 -0.2437  0.1359 -0.0565
15926W        W29340  15.092  16.820   4.396  0.4301 -0.0915 -0.1352
15927W        W29341  10.878   8.721  13.074  0.4600  0.2937 -0.2562
15928W        W29342   8.001  18.120  12.374  0.1470  0.1924 -0.2299
15929W        W29343   8.198  13.482  11.922 -0.1689 -0.0359 -0.3095
15930W        W29344   2.085   7.398   5.259  0.2115  0.0004 -0.0074
15931W        W29345   8.202  14.020   4.635  0.0144 -0.1634  0.1772
15932W        W29346   2.921  16.811  11.621 -0.0870 -0.0952 -0.0191
15933W        W29347  10.342   5.251  13.488 -0.3090 -0.0970 -0.4500
15934W        W29348   0.703  15.045  13.569 -0.1939 -0.3648 -0.3552
15935W        W29349   7.346  17.759  13.334 -0.3062 -0.2295 -0.0157
15936W        W29350  12.389  17.118   0.577  0.0654 -0.1962 -0.2844
15937W        W29351   1.484   1.163  14.912 -0.0492 -0.2838 -0.1283
15938W        W29352   1.525   8.778   4.141  0.1174  0.0560 -0.1611
15939W        W29353   5.362   2.061  14.895  0.0532  0.2004 -0.3209
15940W        W29354   1.240  17.482  15.504 -0.2108 -0.1046 -0.0403
15941W        W29355  12.120  17.286   3.724 -0.2419 -0.2869  0.5053
15942W        W29356   1.236  12.108  15.835  0.1677  0.0845  0.2217
15943W        W29357   3.408  12.115  15.941  0.1473  0.0041  0.1354
15944W        W29358   0.213   1.452  15.401 -0.1221  0.1511 -0.1526
15945W        W29359   1.331  15.038   5.300 -0.2911 -0.1387 -0.0847
15946W        W29360   8.632  17.049  10.430 -0.1984 -0.1420  0.0681
15947W        W29361  12.625  10.811   1.107  0.0559  0.1989 -0.0941
15948W        W29362   1.351  12.615   3.596  0.2577  0.1559  0.3039
15949W        W29363  11.207   3.887  14.282 -0.0738 -0.3118 -0.0669
15950W        W29364  15.872   1.152  15.019  0.1509  0.2572  0.1393
15951W        W29365  12.265   5.009   3.545  0.0819 -0.1681 -0.0513
15952W        W29366  13.762  11.013  14.731 -0.1022 -0.0945 -0.1661
15953W        W29367  13.214   7.021   3.257  0.0829 -0.1702  0.0493
15954W        W29368   4.973  15.623   2.223 -0.2671 -0.0045 -0.1346
15955W        W29369  12.137  12.714  15.429 -0.1103 -0.2096 -0.1561
15956W        W29370  10.613   2.095   0.477  0.0270 -0.1723 -0.0440
15957W        W29371   2.209  15.945  11.041 -0.0602  0.0041  0.3308
15958W        W29372   3.021   3.326  15.605 -0.1054  0.0847  0.2736
15959W        W29373   1.283   7.666  15.238 -0.0163 -0.1139  0.0450
15960W        W29374   8.853  12.065   3.900 -0.2802  0.2444 -0.0727
15961W        W29375  16.603   2.791   1.423 -0.0033 -0.1964 -0.0374
15962W        W29376   3.069  12.262  15.490 -0.1387 -0.1590  0.2032
15963W        W29377  13.598   0.437  13.448  0.0427 -0.0147 -0.1740
15964W        W29378  14.101  14.512   3.206 -0.0066  0.0055  0.0686
15965W        W29379   5.896   5.433   3.785 -0.4787  0.3708 -0.1114
15966W        W29380   1.453   4.945  11.745 -0.1224 -0.2554 -0.2825
15967W        W29381  13.779   2.499  15.539  0.0189 -0.1350  0.1604
15968W        W29382  11.384   0.826  10.985 -0.0201  0.2929 -0.1684
15969W        W29383   2.077  14.669  13.630  0.0700 -0.0259  0.0380
15970W        W29384   5.530  16.433  15.077  0.1560 -0.0413  0.3058
15971W        W29385  10.042  14.911  10.261 -0.2724 -0.1205 -0.0403
15972W        W29386  17.188   0.872  16.183 -0.1818 -0.1013 -0.3234
15973W        W29387   6.934   3.814   4.943 -0.1164  0.1096 -0.0950
15974W        W29388   0.021  12.055   1.766 -0.0965  0.3091  0.1800
15975W        W29389   0.528   4.364  10.595 -0.0480  0.1059  0.0986
15976W        W29390  10.103  17.436  11.838 -0.1525  0.1551  0.0138
15977W        W29391   7.665   6.028   0.116  0.1889  0.3642 -0.0408
15978W        W29392  10.754  14.328   2.023  0.0160  0.1004 -0.1294
15979W        W29393   0.483   1.399   0.203 -0.3278 -0.3358  0.1339
15980W        W29394   2.230  12.696   3.926  0.4104  0.1680 -0.0581
15981W        W29395   2.248  10.983  14.156 -0.4486 -0.0673  0.0645
15982W        W29396   8.136   8.977  15.996 -0.1011  0.1956 -0.1351
15983W        W29397  12.633  13.195  14.721 -0.2044  0.1593 -0.0251
15984W        W29398   5.716  15.919   0.278  0.0165  0.0625 -0.0823
15985W        W29399   3.212   7.827  10.552 -0.0875  0.0017 -0.0140
15986W        W29400   2.702   5.457  12.318  0.2730 -0.0493 -0.2379
15987W        W29401   0.360   4.199   0.158  0.1970 -0.1204  0.0126
15988W        W29402   5.224   7.897  10.498 -0.1666 -0.0831 -0.2848
15989W        W29403   7.298   0.267  12.023  0.1528  0.1304 -0.1831
15990W        W29404   4.657   8.932   5.355  0.2218  0.1495  0.1353
15991W        W29405  15.871   7.505   1.086 -0.1157  0.4569  0.2264
15992W        W29406   4.055   5.237  13.680 -0.0313 -0.0006  0.3674
15993W        W29407   6.937  11.541  12.239 -0.0875  0.5586 -0.3394
15994W        W29408   2.980   2.068   6.433  0.1959 -0.0719  0.1253
15995W        W29409   4.064   7.172  11.796 -0.1918  0.3094  0.1094
15996W        W29410  16.167  10.735  10.106  0.0097  0.0767  0.0992
15997W        W29411  17.753   7.350   3.364 -0.0149  0.0178  0.1591
15998W        W29412   3.219   9.112   6.010  0.2918  0.1112  0.1034
15999W        W29413  11.802  17.280   2.003 -0.0070  0.2671 -0.1610
16000W        W29414   0.322   9.821   4.835 -0.0803 -0.1382 -0.2631
16001W        W29415   4.523   6.445  16.228  0.0256 -0.1740  0.2084
16002W        W29416   2.575  15.273   5.582  0.3520 -0.1163 -0.0562
16003W        W29417  14.211  14.823  12.753 -0.2462 -0.1066  0.3094
16004W        W29418   5.355   3.933   0.793 -0.2300 -0.0648 -0.1006
16005W        W29419  16.468  14.831  13.086  0.3475  0.0121 -0.0449
16006W        W29420  10.397   9.985  11.359  0.2595 -0.0119  0.2621
16007W        W29421   4.347  16.031   5.015 -0.1480  0.1064 -0.0298
16008W        W29422   6.732   2.708   4.191  0.1272 -0.1964  0.0457
16009W        W29423  17.195   3.719  14.970 -0.1081 -0.0155  0.3646
16010W        W29424   3.802  10.978   0.778 -0.0392  0.1018 -0.1623
16011W        W29425   2.452  14.334   5.203  0.0676  0.0361  0.1380
16012W        W29426   2.705  17.028  13.135 -0.1951  0.0674 -0.0530
16013W        W29427  12.513   9.438   4.611 -0.1100 -0.1312  0.1879
16014W        W29428  11.669   1.011   3.865  0.0144  0.1670  0.1785
16015W        W29429   3.930  10.699  15.704 -0.0364  0.1911 -0.1157
16016W        W29430   8.473  14.507   5.322 -0.1352  0.0957 -0.0302
16017W        W29431   8.263  15.467  14.469  0.0603 -0.2277  0.0403
16018W        W29432   2.982  14.843   4.004 -0.3002  0.0224  0.1393
16019W        W29433   0.023  11.590   0.182  0.0788 -0.0498 -0.1247
16020W        W29434   7.041   8.875  10.259 -0.2795 -0.0879 -0.1303
16021W        W29435   4.225  18.170  11.202  0.2265 -0.1573  0.1543
16022W        W29436  15.047   1.406  15.050  0.3732 -0.3325  0.1063
16023W        W29437   1.591  10.971   2.656 -0.2059  0.2261  0.0788
16024W        W29438   5.015  14.222   1.919 -0.0770 -0.1609  0.1189
16025W        W29439  13.337  13.564   5.656 -0.1230  0.3764  0.3222
16026W        W29440   6.668   1.564   1.974  0.1996 -0.1114  0.1477
16027W        W29441   5.434   8.000  16.232  0.0522 -0.0660 -0.2162
16028W        W29442  17.883   2.493  13.177  0.0259 -0.1532 -0.2515
16029W        W29443   7.739   9.191   1.790 -0.0942  0.0812 -0.2554
16030W        W29444   4.852  11.908  10.718 -0.0810 -0.3486  0.2293
16031W        W29445  17.332   4.176   1.221  0.0340 -0.3612 -0.0272
16032W        W29446   9.839   5.315  16.347  0.1124 -0.0396  0.1657
16033W        W29447   2.299  18.188  12.319 -0.1496 -0.1411 -0.1673
16034W        W29448   0.829   2.712   3.129  0.2415  0.0604  0.1526
16035W        W29449  16.958   3.451   6.564  0.1793 -0.0636  0.1819
16036W        W29450  16.806   7.287   3.955 -0.0598 -0.0817  0.1563
16037W        W29451  10.799  17.506   5.092 -0.1216  0.0238  0.0377
16038W        W29452   5.366  13.617   5.246 -0.0968 -0.5278  0.0713
16039W        W29453  17.762  14.609  13.228  0.2883 -0.1531  0.0868
16040W        W29454  10.571  14.105   5.730 -0.1662 -0.1167 -0.0136
16041W        W29455   4.361  11.161  15.937 -0.0692  0.2493 -0.0162
16042W        W29456   8.547   9.150   4.419  0.0609 -0.1511 -0.1339
16043W        W29457   3.088  18.378   4.217  0.2614  0.0996  0.1026
16044W        W29458  11.664   7.671  14.587 -0.0189  0.0371 -0.0581
16045W        W29459   5.451   0.840   3.208 -0.4098 -0.1640  0.0567
16046W        W29460  14.445   4.749   9.852  0.0701 -0.2909 -0.1694
16047W        W29461   5.130  10.393   5.228 -0.1804 -0.1586 -0.0331
16048W        W29462  10.088   0.691   0.782 -0.4174 -0.0349 -0.0805
16049W        W29463  12.655  10.224  15.823 -0.3428  0.1527 -0.1579
16050W        W29464  17.248   1.679   1.730  0.1045  0.1362  0.4437
16051W        W29465  10.703  10.738  11.886 -0.0575  0.0874  0.1444
16052W        W29466   0.566   2.524   5.562  0.1311 -0.0643 -0.0243
16053W        W29467   6.200  15.774   3.863  0.1219 -0.0345 -0.1414
16054W        W29468   0.527   5.660  11.927  0.0855 -0.1130  0.0298
16055W        W29469   0.835  17.636   6.627  0.1445  0.0348 -0.0057
16056W        W29470  10.077   5.493   5.975  0.4230  0.3455 -0.1749
16057W        W29471   9.403   7.379   1.457 -0.0060  0.0757  0.2069
16058W        W29472  18.384   3.817   2.781 -0.0901 -0.1987  0.0871
16059W        W29473  13.286   2.349   1.774 -0.0729  0.1535  0.0088
16060W        W29474  15.978   3.733  16.496 -0.1548  0.2079  0.0914
16061W        W29475   0.356   9.169  14.993 -0.5431  0.0519  0.0313
16062W        W29476   3.655   5.329  15.222 -0.0282  0.0253  0.1457
16063W        W29477   0.459  14.800  14.963  0.2719 -0.0892 -0.2655
16064W        W29478   8.953  17.844  15.795 -0.1702 -0.0602 -0.0200
16065W        W29479   9.323   9.670   4.948  0.1659 -0.0787  0.0248
16066W        W29480   9.868  11.580  15.397  0.0760 -0.2915  0.0471
16067W        W29481   8.296  17.223   2.773 -0.2548 -0.0072 -0.1508
16068W        W29482   0.993  12.893   4.418  0.2546 -0.0340  0.0457
16069W        W29483  13.692  17.633   1.861 -0.0106  0.1071 -0.1560
16070W        W29484  12.627   4.080   3.935 -0.0888 -0.2484 -0.2376
16071W        W29485  12.447   4.315  12.178  0.1706 -0.3567 -0.2420
16072W        W29486   4.152   0.912   2.508  0.1202  0.2505  0.2508
16073W        W29487  16.498  17.323  12.173  0.0288  0.2077  0.1850
16074W        W29488   4.252  15.945  13.055  0.2504 -0.0654 -0.2001
16075W        W29489  10.619  13.120  10.837 -0.0334  0.1036 -0.0440
16076W        W29490  15.305  10.602   0.653 -0.1997 -0.0395  0.4803
16077W        W29491  11.721  11.007  11.982  0.1786 -0.2949  0.2668
16078W        W29492   9.051   2.174   1.021 -0.0645 -0.4406 -0.0119
16079W        W29493  12.826   8.827  14.044  0.0400  0.0450  0.1265
16080W        W29494  15.248   0.754   4.945 -0.1200  0.1238 -0.0422
16081W        W29495  15.530   4.812  14.022  0.4128 -0.1503 -0.2182
16082W        W29496   5.049   1.283   0.490 -0.0423 -0.3103  0.1835
16083W        W29497   0.279   4.197  12.582  0.0761  0.0781 -0.1080
16084W        W29498  13.346   8.184   1.278 -0.0744  0.0086 -0.0046
16085W        W29499   0.920  12.684   0.421 -0.4432  0.0818  0.1578
16086W        W29500  18.169  11.105   3.169  0.1928  0.0413 -0.1463
16087W        W29501  16.423  10.942   1.333  0.0869 -0.1876 -0.1634
16088W        W29502   8.400   3.529  16.166 -0.0900 -0.0837  0.3569
16089W        W29503  16.862   3.396   4.562  0.1262  0.0041 -0.3112
16090W        W29504   5.456   8.988   4.273 -0.3384  0.1301  0.1910
16091W        W29505   6.062  12.954   2.906  0.0834  0.1809 -0.2800
16092W        W29506   6.853   1.793   4.538 -0.1562  0.0479  0.0627
16093W        W29507   0.782   9.145  10.183  0.2072  0.0656  0.0751
16094W        W29508   3.770   1.314  13.579  0.2597  0.0808  0.0885
16095W        W29509   1.988  13.404   2.547  0.3340 -0.1007 -0.1747
16096W        W29510   1.062  12.080  14.176 -0.1891 -0.0969  0.0413
16097W        W29511   9.999   7.652   2.084 -0.4130  0.1135  0.0128
16098W        W29512  11.634  14.621   4.293  0.0003 -0.0845 -0.0435
16099W        W29513   1.827   8.186   2.440  0.0682 -0.1320 -0.1284
16100W        W29514   2.941  18.139   1.356  0.0264 -0.3226 -0.1836
16101W        W29515   4.768   3.044  13.436  0.2613  0.1032 -0.0728
16102W        W29516  17.172  10.484   5.257  0.4064 -0.2004 -0.0337
16103W        W29517   9.734  17.293   3.787  0.2848  0.0100  0.0295
16104W        W29518   7.201  14.773   6.035  0.1411 -0.1518 -0.1455
16105W        W29519  16.295   0.916   5.873  0.2649 -0.2200  0.0043
16106W        W29520  14.982   0.170  16.108 -0.1479  0.3479 -0.0048
16107W        W29521  17.081   7.056  12.476  0.0060  0.1886 -0.0876
16108W        W29522   8.027  14.700  14.032  0.1866 -0.1320  0.2569
16109W        W29523   4.473  11.016   3.996 -0.3866 -0.1965 -0.0352
16110W        W29524   6.882   8.807  12.236  0.0967 -0.1863  0.1970
16111W        W29525  17.110  16.602  14.925 -0.1556 -0.1883 -0.2175
16112W        W29526   4.542  12.168   3.348 -0.5214  0.0139  0.2013
16113W        W29527  16.677  11.885   2.928  0.0892 -0.4622 -0.1062
16114W        W29528  15.066   8.018   5.485  0.2676  0.2735  0.2231
16115W        W29529  10.439   0.187   3.607  0.2144 -0.1841 -0.1842
16116W        W29530   5.189   5.812   5.446 -0.2287 -0.0736 -0.3555
16117W        W29531   5.704  16.550   4.912 -0.4872 -0.2902  0.0984
16118W        W29532   6.095  15.206  12.442  0.0194 -0.1235 -0.0635
16119W        W29533   0.680   0.975  12.612 -0.2838  0.3338 -0.3446
16120W        W29534  16.700  13.378  16.222  0.1246  0.0403 -0.1462
16121W        W29535  15.913   3.291   2.316  0.0032  0.1890  0.0831
16122W        W29536  14.054  12.767  15.003 -0.3505 -0.0669  0.0577
16123W        W29537   0.593  17.373   4.101 -0.2730 -0.0601 -0.3159
16124W        W29538  14.303   0.708   3.041  0.0804 -0.1074  0.1880
16125W        W29539   3.347  15.204  14.618 -0.0134  0.0004 -0.1325
16126W        W29540   7.232  17.557   1.328 -0.0825 -0.0064 -0.2482
16127W        W29541   9.217   8.505   3.484  0.0926 -0.1150 -0.2429
16128W        W29542  12.705  15.037   3.310  0.2128 -0.1556 -0.1145
16129W        W29543   4.664   4.602   1.578 -0.1947 -0.0285 -0.0367
16130W        W29544  10.289  15.940  16.445  0.0907 -0.2096  0.0913
16131W        W29545  17.470   7.781  12.930 -0.0491 -0.0487 -0.0416
16132W        W29546   1.576   6.571   1.561  0.0065 -0.2755 -0.2414
16133W        W29547   6.210  12.176   0.545  0.0654 -0.0760 -0.0423
16134W        W29548  11.119   4.552   0.458 -0.0706  0.0912 -0.1552
16135W        W29549  12.528  18.078   5.212  0.0370  0.0978  0.1471
16136W        W29550   5.313   0.145   6.510 -0.0794 -0.4094 -0.1286
16137W        W29551   2.444  13.615  12.563 -0.0778  0.1574 -0.3446
16138W        W29552   2.015  12.830  13.096 -0.0862  0.0766 -0.1612
16139W        W29553  16.756  14.178  11.867 -0.0597 -0.0400 -0.4811
16140W        W29554   8.905   2.322   4.043 -0.0070  0.0209 -0.0320
16141W        W29555   9.889   7.373  15.446  0.0650 -0.0179 -0.0997
16142W        W29556  10.592   3.764  16.257  0.1307  0.2191  0.0660
16143W        W29557   8.951  16.902   5.315 -0.0385 -0.0317  0.0239
16144W        W29558   4.628  14.252   6.677 -0.2415  0.2793  0.0398
16145W        W29559   4.677   2.871  15.128 -0.0178 -0.0513 -0.0485
16146W        W29560  17.068  16.267   6.524  0.1423 -0.2556 -0.0847
16147W        W29561  15.551   7.372  15.814  0.4487  0.1108 -0.0936
16148W        W29562   2.556  16.342   3.068 -0.2962 -0.0795  0.1358
16149W        W29563   3.522   8.291   4.033 -0.1133 -0.3243  0.2651
16150W        W29564  12.932   7.692  12.398  0.0769  0.1675  0.3625
16151W        W29565   9.354   1.370  12.894 -0.2922  0.3752 -0.0902
16152W        W29566  14.317   9.347  12.123  0.1382 -0.1126 -0.1529
16153W        W29567  14.208  18.250  12.517  0.0337  0.2052  0.3365
16154W        W29568   0.269  12.387  13.674  0.0170  0.0662  0.0978
16155W        W29569  17.024   8.633  10.111 -0.0416  0.1069 -0.2464
16156W        W29570  11.434   3.803  10.596 -0.0050  0.2418  0.4565
16157W        W29571   9.768   1.130   2.687  0.2380 -0.1198  0.1805
16158W        W29572   2.133   0.327   1.527 -0.1417  0.2312 -0.0183
16159W        W29573   1.580  18.170   4.262  0.2868  0.3866  0.3275
16160W        W29574   2.934   7.015  13.456 -0.0364  0.3990 -0.1589
16161W        W29575  14.176   5.452   2.389  0.1313  0.0644  0.0427
16162W        W29576  10.062  17.287  15.387  0.0208 -0.4454  0.0378
16163W        W29577   8.159   6.676   1.916 -0.2191 -0.0814 -0.1591
16164W        W29578  16.036  16.256  14.203  0.0741 -0.3999 -0.2087
16165W        W29579  14.069  16.566   4.156 -0.0490  0.1030 -0.3444
16166W        W29580   8.515   6.012   2.905  0.2617  0.2971  0.0299
16167W        W29581  17.249   2.425  16.333 -0.0950 -0.1372  0.0088
16168W        W29582   7.314   6.892  13.984 -0.1083  0.1791 -0.0682
16169W        W29583   2.466  16.780  16.442 -0.1886 -0.1078  0.1054
16170W        W29584   3.180  17.852   4.235 -0.0920 -0.2028 -0.1026
16171W        W29585   8.236  10.173  13.568  0.1671 -0.1535 -0.1529
16172W        W29586  11.944  12.097   1.722  0.1085  0.3046 -0.2069
16173W        W29587   3.242   1.212   2.339 -0.1761  0.2374  0.1981
16174W        W29588   8.336  17.319   4.403  0.5040  0.0340 -0.2149
16175W        W29589  18.191  11.735   5.360  0.1228  0.0370 -0.0469
16176W        W29590  11.557  16.868   0.682  0.0831  0.2279  0.2307
16177W        W29591   3.990   5.813  12.205  0.0074  0.0132  0.1759
16178W        W29592   0.583  18.310   5.403  0.0081  0.0826 -0.3237
16179W        W29593  15.672   9.071  14.324  0.1298  0.2653  0.1014
16180W        W29594   5.911   2.732   4.677 -0.0130 -0.0201  0.4308
16181W        W29595  10.557   0.975  14.237  0.0700  0.1837 -0.1106
16182W        W29596   9.305  12.564   5.711 -0.0281 -0.0460  0.2506
16183W        W29597  17.492   4.886   1.385 -0.1024  0.1402  0.0447
16184W        W29598  13.990   0.318   3.467  0.0565 -0.0450  0.0701
16185W        W29599   2.423   5.984  15.339 -0.0389 -0.1638  0.4150
16186W        W29600  10.669  10.388   1.708  0.0408 -0.1722  0.0342
16187W        W29601  12.515  13.549  14.289  0.3008  0.1315  0.2341
16188W        W29602   2.863  10.878  14.915 -0.0565 -0.1218  0.4034
16189W        W29603   7.545  17.698   2.363 -0.1904  0.0880  0.1478
16190W        W29604   2.474   1.714   0.444 -0.0198 -0.0033  0.0783
16191W        W29605   7.796  12.372   1.210 -0.4439 -0.3262 -0.1665
16192W        W29606  12.123  11.705   4.740 -0.0433 -0.0923  0.1983
16193W        W29607  12.525  18.230  10.924 -0.0063 -0.1540 -0.3176
16194W        W29608   4.713   2.255  12.445 -0.1156  0.1481 -0.0518
16195W        W29609   5.761   8.733  14.250 -0.1751 -0.4666 -0.0648
16196W        W29610  15.990   6.072   2.930 -0.0198  0.1326 -0.2302
16197W        W29611  15.569  14.483  16.472  0.3819  0.2636 -0.0882
16198W        W29612   0.790   0.491  14.146 -0.3210 -0.0940  0.0586
16199W        W29613   4.058   9.789  12.704  0.0042  0.0562  0.1201
16200W        W29614   2.475  14.688   0.571 -0.1349 -0.1499 -0.2048
16201W        W29615  15.476  12.049  15.604 -0.1406 -0.3471  0.0361
16202W        W29616   4.113   8.112   4.972 -0.0058  0.0138 -0.0542
16203W        W29617   0.119  13.009  10.701 -0.2256 -0.2161 -0.2163
16204W        W29618  18.182   9.018  12.698  0.1374  0.0377  0.0067
16205W        W29619  17.497  12.436  16.208  0.2068  0.1848 -0.2107
16206W        W29620   0.538   8.119   0.740 -0.4596  0.0208  0.0242
16207W        W29621  12.365  11.710   1.815 -0.3970 -0.0752  0.2063
16208W        W29622   9.350  12.008   3.844  0.2672  0.0258 -0.0913
16209W        W29623  10.133  16.385  15.348 -0.4029 -0.0323  0.3194
16210W        W29624   3.950   0.573   6.494  0.2357  0.3592  0.0237
16211W        W29625  14.810   1.142   2.303  0.0159  0.0383  0.1922
16212W        W29626   0.729   9.204  13.700  0.3652  0.2872  0.2501
16213W        W29627   8.525  12.832   1.454 -0.0636 -0.0447  0.0484
16214W        W29628  13.568   4.583   3.811  0.0565  0.1834 -0.0472
16215W        W29629  15.257   8.298  14.091 -0.3425  0.1124 -0.0805
16216W        W29630   7.752  13.797  13.327  0.0480 -0.1170 -0.1540
16217W        W29631  15.787   6.011  10.791  0.0660  0.1565  0.0273
16218W        W29632   2.409   1.556  14.733 -0.0833  0.0212  0.2618
16219W        W29633  10.160   2.118   4.450  0.2705  0.2327 -0.2881
16220W        W29634   4.847   1.921   5.404 -0.1631 -0.0961  0.1330
16221W        W29635  17.909  13.282   0.347 -0.0593  0.0401 -0.1159
16222W        W29636  15.827  10.209   3.220 -0.0145  0.1252 -0.3524
16223W        W29637  16.664  16.974  16.394 -0.1560 -0.3352  0.1872
16224W        W29638  12.290  12.018   5.644  0.1430  0.2839  0.1315
16225W        W29639  12.661   3.635   1.725  0.0619 -0.1553  0.0174
16226W        W29640   2.558   6.298  14.570 -0.1293 -0.2446 -0.0259
16227W        W29641  16.321   2.534   3.461  0.1522  0.0569 -0.1632
16228W        W29642   6.971   8.498   1.526  0.1165 -0.1266 -0.0847
16229W        W29643   2.131  12.421  15.297 -0.0685  0.1252 -0.0202
16230W        W29644  15.711  14.987   2.258 -0.0362 -0.0191  0.1105
16231W        W29645   2.051   3.638   4.461 -0.0146 -0.1144 -0.1113
16232W        W29646  16.517   1.568   3.204  0.2520  0.0410  0.4931
16233W        W29647  16.721   4.346   5.644 -0.0118  0.1215 -0.4079
16234W        W29648  11.926  10.829  11.147 -0.3029  0.2619 -0.1486
16235W        W29649  15.850  15.808   5.308  0.0799 -0.3112  0.2051
16236W        W29650   6.496  18.027   2.233 -0.3264  0.0541  0.0615
16237W        W29651   0.746  17.469  15.450 -0.0016  0.0874  0.2783
16238W        W29652  17.116  12.924  15.909  0.0246 -0.3092 -0.3859
16239W        W29653   4.218  17.665   1.827 -0.2828  0.1271 -0.1356
16240W        W29654   8.564  15.509   6.086  0.1468 -0.0059  0.0627
16241W        W29655  15.208   3.799   1.091 -0.0314 -0.4216 -0.0678
16242W        W29656   6.976  13.098   0.975 -0.1069 -0.3296 -0.0008
16243W        W29657   2.863   7.805   0.611  0.1470  0.2029 -0.1394
16244W        W29658   3.905   9.638   0.522 -0.0592 -0.0667  0.1058
16245W        W29659   3.437  11.813   4.338 -0.2661 -0.2817  0.0533
16246W        W29660   0.591   9.602   4.515 -0.1001 -0.0032  0.0445
16247W        W29661   5.018   9.506   4.830  0.2559  0.2283 -0.0967
16248W        W29662  16.902   1.661  14.881 -0.0794  0.3041 -0.0303
16249W        W29663  14.339  11.650  12.930  0.3044 -0.0115  0.4216
16250W        W29664  15.446  10.566  13.792 -0.0104  0.3537 -0.3436
16251W        W29665   0.124  16.859   0.194 -0.1705  0.1448  0.2397
16252W        W29666   0.068   4.040   4.925  0.0164  0.1006 -0.2467
16253W        W29667  14.981  17.470   1.242  0.2420 -0.0054 -0.0229
16254W        W29668  15.111   5.586   4.297  0.3087  0.0729 -0.0662
16255W        W29669   5.756   8.178   2.213 -0.2894 -0.0987  0.3719
16256W        W29670  18.003  14.929   4.287 -0.3245  0.1594  0.0384
16257W        W29671  14.287  16.240  14.794  0.0135  0.3339 -0.0114
16258W        W29672   0.744  10.405  15.351  0.1088 -0.0674 -0.1204
16259W        W29673   6.782  18.390  15.461 -0.2605 -0.2788  0.0987
16260W        W29674   7.706  15.657  15.586  0.0370  0.3358  0.0707
16261W        W29675   7.320  11.792  13.773 -0.0962 -0.1306  0.3561
16262W        W29676   2.118  13.995  14.551 -0.0341  0.2375  0.0564
16263W        W29677   5.595   8.873  13.358 -0.0250 -0.0796 -0.2408
16264W        W29678   2.790  10.076  15.514 -0.1804 -0.2296 -0.0584
16265W        W29679   7.310  18.021   9.586  0.1370  0.2645  0.1630
16266W        W29680   2.659   1.729   3.142  0.0182 -0.0692  0.0628
16267W        W29681   5.155   1.649  14.837  0.1429 -0.0875  0.1123
16268W        W29682  15.978   0.461   4.972 -0.1577 -0.0968  0.1670
16269W        W29683   9.774  13.427  15.095 -0.0266  0.0558 -0.3221
16270W        W29684  13.486   6.564  16.469 -0.1732  0.0374 -0.2553
16271W        W29685  12.002   9.456  16.252  0.0457  0.2401 -0.3012
16272W        W29686  11.955   9.107   3.413 -0.1452 -0.0692 -0.1277
16273W        W29687  16.985   5.582   1.234 -0.0974 -0.2022 -0.2256
16274W        W29688  15.462  15.835  15.844 -0.1067 -0.1032 -0.3327
16275W        W29689  14.821   5.623  10.467  0.2876  0.2120 -0.4317
16276W        W29690  12.418  11.218   0.316  0.1457 -0.0745  0.5632
16277W        W29691  10.456   2.860   3.381 -0.3898 -0.1960 -0.4039
16278W        W29692  13.306   2.136   0.420  0.0608 -0.0922 -0.0116
16279W        W29693  10.461  10.514  16.115 -0.2199 -0.0540  0.3085
16280W        W29694  11.798  17.710  15.306 -0.1754 -0.1904  0.1249
16281W        W29695  16.531   1.130   1.241 -0.0274 -0.0221 -0.0862
16282W        W29696  17.994  15.765   3.916  0.1877 -0.0973  0.0611
16283W        W29697  12.091  10.648   0.893 -0.2804 -0.0870 -0.0314
16284W        W29698   4.913   8.292  10.723  0.0500  0.0978  0.1008
16285W        W29699  13.962  10.891   5.338 -0.1185  0.1171 -0.0474
16286W        W29700  16.279   1.142   2.494 -0.0101  0.2045  0.0597
16287W        W29701   5.254   1.235   5.732  0.1842  0.0717  0.0485
16288W        W29702  17.177  16.903  14.500 -0.1813  0.2289 -0.0622
16289W        W29703   8.459   2.334   0.305  0.3726  0.1820 -0.0400
16290W        W29704   0.428  16.761  16.352 -0.2849 -0.4351 -0.2243
16291W        W29705  12.887   2.011  12.894  0.0089  0.0278 -0.2512
16292W        W29706  12.702  10.516   3.076 -0.3983  0.1858  0.2740
16293W        W29707  15.025  13.709   2.686  0.1743 -0.1334  0.0372
16294W        W29708   9.187  15.033   1.615  0.2472 -0.0247 -0.3249
16295W        W29709   2.042   6.596   0.354 -0.2002  0.2277  0.1404
16296W        W29710  13.770   5.175  12.055  0.0546  0.0946 -0.0958
16297W        W29711  14.864  16.766  11.796 -0.1710  0.0414 -0.0298
16298W        W29712   2.307   5.803  16.324 -0.1825  0.0661  0.1907
16299W        W29713   9.441   2.042  12.525 -0.0526 -0.0448  0.0337
16300W        W29714  11.815  17.440  14.908  0.1440  0.5892 -0.1345
16301W        W29715   2.299  16.477   4.287 -0.0715 -0.1414  0.1820
16302W        W29716   0.971   3.914   2.468 -0.3653  0.0549 -0.3559
16303W        W29717  17.270   5.568   0.701 -0.3374  0.1046  0.0825
16304W        W29718   1.792   7.155   4.922  0.3057  0.0460 -0.1285
16305W        W29719   9.578   2.242  14.970 -0.2900 -0.4346  0.2766
16306W        W29720   9.311   7.015   3.308 -0.1520 -0.3574 -0.1335
16307W        W29721  10.936   9.074   0.598  0.1171  0.1085 -0.0582
16308W        W29722   7.513   7.103   3.280 -0.1550 -0.2381  0.0185
16309W        W29723  13.304  11.607   3.596 -0.0513 -0.0207 -0.0975
16310W        W29724  13.258  17.696   0.663 -0.2806  0.1103 -0.1208
16311W        W29725   6.140  14.971  13.369  0.0067  0.0682  0.1744
16312W        W29726   4.892  14.449  11.941  0.0776  0.1182 -0.3393
16313W        W29727  11.132   1.043   5.364  0.0139  0.3511  0.0189
16314W        W29728  13.632  14.832  14.967 -0.0246 -0.3585  0.0787
16315W        W29729   0.004  14.408   2.765  0.2583 -0.0786  0.2226
16316W        W29730  16.412   2.242   0.629  0.0060  0.1769 -0.0030
16317W        W29731   1.102   0.718  15.532  0.2163  0.0415  0.0633
16318W        W29732   2.435  14.156  12.588 -0.2208 -0.3685 -0.1293
16319W        W29733   9.473   1.285   4.776  0.0252 -0.0547  0.2867
16320W        W29734   3.526   7.485   2.883  0.0708  0.2596  0.0614
16321W        W29735  10.679   4.223  15.021  0.1604  0.1623 -0.0931
16322W        W29736   0.358  12.868  13.881 -0.0744 -0.0006  0.1103
16323W        W29737  12.334   9.210   5.047  0.0438 -0.2097  0.2275
16324W        W29738   6.550  11.584  13.375 -0.0676  0.2927  0.0392
16325W        W29739  16.340  17.335   0.106  0.2551 -0.2739  0.0988
16326W        W29740  14.300  17.586  10.910 -0.2158 -0.0875  0.2546
16327W        W29741  16.067   6.942   4.360  0.0754 -0.3319 -0.1872
16328W        W29742  16.877  11.888  16.007  0.0147 -0.0395 -0.5529
16329W        W29743   0.405   2.921   1.715 -0.2372 -0.1359 -0.0360
16330W        W29744  17.077  10.054  15.839 -0.0271 -0.0561 -0.4328
16331W        W29745   7.585   5.211  14.721  0.0294  0.1940 -0.1756
16332W        W29746   3.314  16.213   2.458  0.0216 -0.1926  0.3545
16333W        W29747   7.792   7.283  15.730  0.0821  0.1539  0.4269
16334W        W29748   1.400  18.122  12.982  0.2196  0.2857  0.0088
16335W        W29749   4.468   8.177  11.976 -0.3138  0.1309 -0.1642
16336W        W29750   8.427   0.976  11.706 -0.1499 -0.1481 -0.2135
16337W        W29751  17.564  11.320  10.226  0.1639  0.1165  0.0394
16338W        W29752  10.439   6.007   1.901  0.1328  0.0348  0.1433
16339W        W29753   2.704   3.940   0.353 -0.1352 -0.1084 -0.0005
16340W        W29754   6.518  13.791   3.174 -0.1226 -0.0955 -0.1328
16341W        W29755  17.347   5.320   1.844 -0.1616  0.1585 -0.0573
16342W        W29756   4.236  18.053  15.029  0.1495  0.1080 -0.2152
16343W        W29757   3.049   7.516   5.432 -0.2354  0.0558  0.3549
16344W        W29758  14.843  11.119  10.209  0.2059 -0.0429  0.0959
16345W        W29759  16.921   3.423  14.558 -0.0661 -0.2783  0.0443
16346W        W29760   8.474  10.012   0.018 -0.1294 -0.0114  0.1407
16347W        W29761  17.600   4.820   3.642  0.0859 -0.1473 -0.0296
16348W        W29762   1.198   3.983   1.597  0.4118 -0.2543  0.1755
16349W        W29763  16.854   8.831   5.929  0.1832 -0.1579 -0.0146
16350W        W29764   9.847   4.422   9.683 -0.1719 -0.2865 -0.0582
16351W        W29765  13.453   1.483  10.241 -0.2087 -0.1982 -0.1948
16352W        W29766  15.870  12.112  14.687 -0.0954  0.0772 -0.2947
16353W        W29767  17.903   7.872   1.515 -0.2310 -0.1477  0.0998
16354W        W29768   4.380   7.713  11.872  0.2006 -0.0556  0.0963
16355W        W29769  17.057   0.571   3.500  0.1550 -0.2172  0.1144
16356W        W29770  17.692  17.738  14.679  0.0636 -0.0841 -0.0110
16357W        W29771   6.957   3.037  14.336  0.0330  0.1085  0.1410
16358W        W29772  12.291   3.043  11.703 -0.0127  0.1067 -0.1614
16359W        W29773   4.511  17.817  12.610 -0.1046  0.1217 -0.5637
16360W        W29774  16.653  16.492   0.188 -0.2304  0.4510  0.1993
16361W        W29775  15.012   5.437   3.792  0.0612  0.2362 -0.0261
16362W        W29776   9.581   4.644   0.780 -0.0291  0.1607 -0.0089
16363W        W29777   0.903  16.697  13.282 -0.0029 -0.0041  0.0566
16364W        W29778   8.512  11.854  15.377 -0.1835  0.2637 -0.4022
16365W        W29779   3.841  13.140   1.396  0.0946  0.0199  0.0344
16366W        W29780  15.283   6.651   4.518  0.2274  0.0348 -0.0329
16367W        W29781  10.930  12.638  11.462 -0.0444 -0.2114  0.1231
16368W        W29782   0.541  11.975  14.272  0.1125  0.0522 -0.2441
16369W        W29783   4.090   5.343  12.238 -0.2191  0.0520 -0.1993
16370W        W29784   8.706   5.378  16.487  0.0415 -0.0792 -0.0369
16371W        W29785   9.877   7.684  14.563  0.1418 -0.4016  0.0893
16372W        W29786   6.053   6.979   2.727 -0.0929 -0.1758  0.4725
16373W        W29787  14.644   7.290  13.383  0.0451  0.3336  0.1237
16374W        W29788   1.886   2.096   1.905  0.4845 -0.2503 -0.0281
16375W        W29789   1.303   6.207   1.813  0.1752 -0.2162  0.0954
16376W        W29790  17.986   0.147  13.376 -0.0411 -0.1808 -0.2876
16377W        W29791  10.107  12.197   5.105 -0.2341  0.0055  0.1590
16378W        W29792  14.672  12.962   3.933  0.0345 -0.0084 -0.1797
16379W        W29793   0.797  17.476   4.854  0.2596 -0.2916 -0.2600
16380W        W29794   1.663  13.229  15.305  0.2721 -0.1851 -0.4637
16381W        W29795  16.758   0.385   3.100 -0.0893  0.0826 -0.1255
16382W        W29796   4.218   4.773   4.171 -0.2600  0.0468  0.2948
16383W        W29797   0.514   8.245  14.689 -0.2462  0.1126 -0.3826
16384W        W29798   7.985   7.135  13.862 -0.2701 -0.2399 -0.1557
16385W        W29799   8.351  15.879   2.629 -0.3715  0.0093  0.1539
16386W        W29800   0.332   4.318  11.097 -0.0324  0.2399 -0.2026
16387W        W29801  15.577   6.382  13.686 -0.4579 -0.1035  0.0943
16388W        W29802  13.593   3.849  11.604  0.0281  0.1198 -0.1294
16389W        W29803  11.861   5.573   5.090 -0.1652 -0.0152 -0.2708
16390W        W29804  12.287   6.416   3.949  0.0613  0.0020 -0.0392
16391W        W29805  15.176   6.205  12.073  0.1347 -0.1201  0.1861
16392W        W29806  18.087  16.594   1.478  0.2080 -0.0716  0.2158
16393W        W29807   3.105   3.840   3.278  0.0956  0.0715 -0.2799
16394W        W29808  18.018   3.599  16.146 -0.1258 -0.0317  0.0768
16395W        W29809  14.109  16.800   5.570 -0.0590  0.3096 -0.0890
16396W        W29810  13.106  14.304   5.956 -0.1787 -0.0987 -0.2922
16397W        W29811   0.531  10.145   2.802 -0.3096  0.1428  0.0563
16398W        W29812  12.410  10.606  13.729 -0.0256  0.0479 -0.1099
16399W        W29813   1.537   0.320   6.196 -0.1823 -0.3389  0.0138
16400W        W29814   4.998   9.808  10.358 -0.0272 -0.1626 -0.2928
16401W        W29815  13.852   1.630   2.712  0.0353  0.5573 -0.1339
16402W        W29816  10.794   4.943  13.512 -0.1000 -0.1975 -0.0332
16403W        W29817  13.511  11.871   3.140 -0.0462 -0.0082  0.0357
16404W        W29818   4.912  14.822   0.330 -0.1041 -0.0755 -0.0557
16405W        W29819   6.835  13.336   3.071  0.3420  0.3197  0.1370
16406W        W29820  12.306  13.696   0.137 -0.1387  0.0909  0.2343
16407W        W29821   0.271  12.258   3.575 -0.1565 -0.0199 -0.1005
16408W        W29822   1.640  10.594   6.231  0.0015  0.2426 -0.3096
16409W        W29823   0.089   0.750  13.735 -0.2692 -0.3840  0.0300
16410W        W29824   7.029   8.264   5.400 -0.0949 -0.0461 -0.0181
16411W        W29825  18.250   5.534  14.828  0.0949  0.3157  0.0037
16412W        W29826  17.926  16.148  14.241  0.0637  0.1770 -0.0310
16413W        W29827   4.996  17.976   0.432  0.1447 -0.2944 -0.2046
16414W        W29828  15.169  18.061  15.992 -0.0826 -0.0458  0.1858
16415W        W29829  14.231   0.601  10.921 -0.1516 -0.0084 -0.1287
16416W        W29830  13.914   1.031  14.252 -0.1543 -0.0100  0.2651
16417W        W29831  10.659   6.507  12.203 -0.0031  0.1710  0.3856
16418W        W29832   0.485   9.128  12.420 -0.0123 -0.2611  0.1475
16419W        W29833  10.533   4.517  13.738  0.1765  0.0545  0.0745
16420W        W29834  13.173   7.183   1.466 -0.1426  0.0528 -0.1050
16421W        W29835   9.350  13.731  15.001 -0.1219  0.1301  0.0481
16422W        W29836   7.010  11.709   2.997  0.2009 -0.1035  0.0182
16423W        W29837   6.268   8.280   0.294  0.0645 -0.3276 -0.2180
16424W        W29838   9.738  13.194   6.293 -0.1723  0.1664  0.1642
16425W        W29839   4.060  15.028  11.795  0.0110 -0.1295 -0.2587
16426W        W29840   9.788   7.777   4.692 -0.1505  0.0347  0.2316
16427W        W29841   8.866  17.697  13.340 -0.1840 -0.0166  0.0061
16428W        W29842   7.343   1.792   3.264  0.2712 -0.0615  0.2284
16429W        W29843   1.089  17.984   3.495 -0.0934  0.0930 -0.0476
16430W        W29844  15.682   3.131   9.981 -0.2762 -0.2807  0.2232
16431W        W29845  17.713  14.515   5.648 -0.0827 -0.0021  0.1701
16432W        W29846   2.736   7.207   4.075  0.0093 -0.2428 -0.1504
16433W        W29847  17.599   3.889  16.345  0.1427  0.0851 -0.1467
16434W        W29848   1.614   5.276  12.439 -0.3802  0.2869 -0.1068
16435W        W29849  12.489  10.181  13.419 -0.1213  0.0792  0.0840
16436W        W29850   4.218  12.699  13.339 -0.1768 -0.2596  0.1533
16437W        W29851   3.877   9.717  13.157 -0.0830 -0.0477  0.2135
16438W        W29852  13.095  15.415   0.282 -0.0177  0.1926  0.0574
16439W        W29853   5.936  16.261   6.259  0.1704  0.2386  0.2011
16440W        W29854  17.835   0.432  12.413 -0.1106  0.1084  0.0686
16441W        W29855   7.108   2.636  14.106  0.2117 -0.3125  0.2079
16442W        W29856   7.603   4.706  13.122 -0.0651  0.5772 -0.0614
16443W        W29857  10.807  13.576  16.389  0.2284  0.0431 -0.2160
16444W        W29858   1.928   0.922  15.002 -0.0919  0.0293  0.0983
16445W        W29859  11.891   6.408   3.105 -0.2417  0.1473  0.2063
16446W        W29860   0.021  15.640   1.126  0.1033  0.2559 -0.2523
16447W        W29861   3.421   4.063  16.285 -0.0621  0.1175  0.3371
16448W        W29862  13.341   7.605  13.711  0.2178 -0.1276 -0.3865
16449W        W29863   6.320  13.843  12.448  0.1157  0.2707 -0.3167
16450W        W29864  15.962   4.878   2.823  0.2767  0.1840 -0.0623
16451W        W29865  10.035  11.694   0.588 -0.1301 -0.0850 -0.0065
16452W        W29866  13.713   2.379   0.249 -0.1037  0.0861  0.1214
16453W        W29867   3.482   6.765   1.489  0.0291  0.1086 -0.0699
16454W        W29868   2.106   3.375  14.927 -0.2753  0.1981  0.0003
16455W        W29869   1.463  15.514   1.500  0.0376 -0.0896  0.1901
16456W        W29870  10.220   8.299   2.748 -0.2962 -0.2866  0.2349
16457W        W29871  14.066  13.227   0.411 -0.4938 -0.3051  0.3747
16458W        W29872   2.604  14.016   4.017  0.2551  0.0751 -0.0928
16459W        W29873  10.432  16.997   5.377  0.0142  0.0363  0.0615
16460W        W29874  15.173   4.678  13.174 -0.1294  0.0270  0.0854
16461W        W29875  13.651   1.008   0.770 -0.0907 -0.1140 -0.3328
16462W        W29876  11.939   9.083  11.605  0.1205  0.2229  0.1578
16463W        W29877   9.449  14.629  14.738 -0.0197  0.3361 -0.0696
16464W        W29878   0.630   9.773   5.407  0.1157  0.0057 -0.1525
16465W        W29879  15.401   8.284  13.554 -0.2241  0.2364  0.0256
16466W        W29880  15.294   9.427  10.978 -0.5332  0.0511 -0.2366
16467W        W29881  15.033   7.891  15.836 -0.4189 -0.1808 -0.0853
16468W        W29882   8.711  14.866  14.789 -0.0399  0.0128 -0.1608
16469W        W29883   4.488   1.264   3.306 -0.2860 -0.0822  0.0287
16470W        W29884  15.712  15.243  11.461 -0.0119 -0.1026 -0.1207
16471W        W29885   7.057  12.869   4.903 -0.0541 -0.0708 -0.2664
16472W        W29886  14.209   3.663  15.031 -0.1380 -0.1980  0.0294
16473W        W29887  14.741  14.906  12.916 -0.0465  0.2784  0.1988
16474W        W29888  14.194   4.558  11.747 -0.0073  0.0764 -0.0073
16475W        W29889  18.338  17.607   5.282 -0.1293  0.0588  0.1473
16476W        W29890  10.293  15.494   2.758  0.3969 -0.0823  0.1826
16477W        W29891   2.370  17.912   2.314  0.2320  0.0858 -0.0512
16478W        W29892   3.515  12.471   3.100  0.1263  0.0756 -0.0702
16479W        W29893   8.759  16.351   1.450  0.3148  0.1551  0.0687
16480W        W29894  16.071  13.910   1.542 -0.2851 -0.0836 -0.0334
16481W        W29895  18.162  11.170   1.834  0.2524  0.0832 -0.2202
16482W        W29896  16.002   2.425  14.319  0.1634  0.2220 -0.1399
16483W        W29897  13.746   3.578   0.652 -0.1728 -0.2572  0.1689
16484W        W29898  16.567   5.232   1.370  0.0493 -0.3452 -0.2463
16485W        W29899   5.574  11.562   4.920  0.0926 -0.1959  0.1600
16486W        W29900  18.286  14.691  13.290 -0.1050  0.1316 -0.0997
16487W        W29901   3.230  14.991  16.254 -0.0607  0.1494 -0.1469
16488W        W29902  16.832   8.354  14.742  0.1637  0.0796  0.2017
16489W        W29903   4.645   6.550   4.598 -0.0462 -0.0860 -0.1587
16490W        W29904   6.404  15.106  12.988  0.3021 -0.0068 -0.1577
16491W        W29905   9.917  12.530  12.104 -0.0180 -0.2500  0.1032
16492W        W29906   8.544   2.013   0.729 -0.4065  0.0069 -0.1783
16493W        W29907   7.968  10.856   5.561 -0.2384  0.0727 -0.1831
16494W        W29908  13.306  16.014  13.724 -0.4121  0.1382 -0.1279
16495W        W29909  10.801  14.634   5.714 -0.1798  0.0118 -0.0799
16496W        W29910   2.205  16.825  13.284  0.2675 -0.0639 -0.3225
16497W        W29911  13.223  11.365  16.195  0.1318  0.2810  0.2021
16498W        W29912   2.251  18.029   6.916 -0.0734 -0.3046  0.0437
16499W        W29913   5.697   5.983   1.670  0.0887 -0.0275 -0.0062
16500W        W29914  13.902   6.990  15.719  0.3420  0.2310  0.5167
16501W        W29915  16.959   4.228   0.060  0.2152 -0.3436 -0.4785
16502W        W29916   8.425   9.721  14.519  0.0298  0.4825 -0.3897
16503W        W29917  11.974   2.207   5.161 -0.1440  0.0569  0.0844
16504W        W29918   2.581  18.296   2.654  0.4061  0.2488  0.1698
16505W        W29919   8.595  13.889  14.647 -0.1544  0.0199 -0.1350
16506W        W29920  17.311   7.678   0.135 -0.1281 -0.2558  0.2892
16507W        W29921  13.917  10.804  11.393 -0.1271 -0.0589 -0.2419
16508W        W29922   2.440   8.298   3.185  0.1105 -0.1971 -0.0697
16509W        W29923  14.224  13.798   5.256 -0.1234 -0.1043  0.0806
16510W        W29924  12.706   6.168  14.195  0.0807 -0.1685  0.1076
16511W        W29925   7.604   3.207  16.056 -0.3135  0.1209 -0.2570
16512W        W29926  12.308  15.439  16.049 -0.2912  0.1978  0.2965
16513W        W29927  17.616   6.220   0.108 -0.0406  0.0970  0.3075
16514W        W29928   2.138  12.343   0.488  0.0690 -0.0103 -0.3570
16515W        W29929  13.654   3.188  15.108 -0.1278  0.1794 -0.0718
16516W        W29930   0.229   4.662   5.123  0.0072  0.0858  0.1288
16517W        W29931  11.641  16.507  14.350 -0.2387 -0.2073 -0.2017
16518W        W29932   2.581   0.348  14.790 -0.3080 -0.4305  0.1184
16519W        W29933  15.851  16.354  11.506 -0.0790 -0.3698 -0.0170
16520W        W29934  12.935   7.131  10.451 -0.0432 -0.0546  0.1311
16521W        W29935   5.698  13.264   5.011 -0.1078  0.1771 -0.3670
16522W        W29936   5.610   5.772   1.204 -0.1426 -0.1019 -0.2729
16523W        W29937   9.615   8.360   5.388 -0.1175 -0.1834  0.0076
16524W        W29938   0.580  15.650   1.736  0.2373  0.2476  0.2161
16525W        W29939  12.783  14.228   4.529 -0.0892 -0.0652  0.1070
16526W        W29940   3.965  10.093  11.744 -0.2852 -0.0317 -0.0479
16527W        W29941   4.741  10.466   2.990 -0.2566 -0.1086 -0.0051
16528W        W29942  11.272  12.025   3.867  0.2735 -0.0559 -0.1747
16529W        W29943  15.790   9.205   3.563 -0.1100  0.4072  0.1044
16530W        W29944   6.929  12.114   1.033 -0.2379  0.0194 -0.1818
16531W        W29945   1.717   0.126  16.140  0.0431  0.1926 -0.0176
16532W        W29946  11.133   4.667  14.798 -0.1117  0.0768 -0.3538
16533W        W29947  17.452   1.953  10.655  0.0914  0.1739  0.1407
16534W        W29948   2.217   3.806   0.588 -0.0156 -0.2558 -0.1968
16535W        W29949   5.478   0.332   1.511  0.0246  0.0450  0.2733
16536W        W29950   5.219   5.814  14.196 -0.1621  0.0126  0.2242
16537W        W29951  13.025  18.096  16.316  0.0533 -0.0517  0.0816
16538W        W29952   3.175  17.326  16.502 -0.1206 -0.2582  0.0568
16539W        W29953   0.583  16.146   5.936  0.3947  0.3207 -0.1915
16540W        W29954   2.393   8.119  15.479  0.0596 -0.0547  0.1547
16541W        W29955   8.691   7.571   5.490 -0.0491  0.1557  0.2299
16542W        W29956   1.610   1.874  15.352  0.1342 -0.2804 -0.1732
16543W        W29957  13.050  11.784  15.764 -0.2935  0.1171  0.1073
16544W        W29958  17.015   8.964  15.130 -0.1613 -0.1620  0.0779
16545W        W29959   5.090   8.704  11.633 -0.2154  0.1609  0.0321
16546W        W29960  14.734  17.791   4.617  0.0814 -0.1747  0.1987
16547W        W29961  12.315   9.613  11.819 -0.3259  0.0317 -0.1679
16548W        W29962  14.990   5.855  11.664 -0.0555  0.3432 -0.1426
16549W        W29963   5.011  10.198  13.598  0.0977 -0.2708 -0.4914
16550W        W29964   1.788   3.945  12.598 -0.0766  0.1430 -0.2297
16551W        W29965  16.546  15.159   5.306 -0.2691  0.0102  0.0472
16552W        W29966   4.891  10.460  12.944  0.0196  0.0132  0.1840
16553W        W29967  12.474  16.625   3.144 -0.0248  0.0734  0.3172
16554W        W29968   5.663  13.856  11.472  0.0774  0.1088  0.2541
16555W        W29969  16.191   6.579   1.540 -0.2789 -0.0899 -0.0284
16556W        W29970   6.927  14.466   2.319 -0.1123  0.1536 -0.4260
16557W        W29971  17.667  10.012  10.962  0.1069  0.3746 -0.0370
16558W        W29972   0.996   9.366   2.319  0.0049 -0.0438  0.0565
16559W        W29973   6.738  10.528  12.091  0.3917 -0.2032  0.0445
16560W        W29974   4.634  14.323  15.792 -0.1694 -0.0921  0.0096
16561W        W29975  15.809  15.766  14.925 -0.1267  0.3260  0.0215
16562W        W29976   5.804   4.139  11.994 -0.0402 -0.0774  0.3571
16563W        W29977  14.020  14.228   3.941 -0.0739 -0.3680 -0.1005
16564W        W29978  10.492   5.254  10.296 -0.0191  0.0943 -0.0062
16565W        W29979  15.922  16.639  14.545 -0.3654  0.2480  0.2130
16566W        W29980  15.382  16.724   0.865 -0.1064  0.3141  0.1869
16567W        W29981  10.175  13.707  12.320 -0.0714 -0.2829  0.2948
16568W        W29982   9.597  10.678   0.770  0.1641  0.0113 -0.0617
16569W        W29983  15.131   6.005  11.105 -0.0225  0.2369 -0.2242
16570W        W29984  10.449   8.285   5.015  0.1995  0.1270 -0.1001
16571W        W29985  10.660   0.399  10.454 -0.1152 -0.2798  0.1842
16572W        W29986  16.518   9.678  13.262 -0.0080 -0.1213 -0.1542
16573W        W29987  17.000  14.514   1.341 -0.0201 -0.0426 -0.3281
16574W        W29988   4.798   4.269   5.607 -0.0822 -0.4348 -0.0996
16575W        W29989   2.849   7.665  10.159  0.1228 -0.1303  0.0179
16576W        W29990  15.694   8.185   5.288 -0.1194 -0.0014  0.3188
16577W        W29991  13.181  12.587  16.269 -0.1340  0.0501 -0.0499
16578W        W29992  14.345   5.661  13.410  0.0571  0.0103 -0.4163
16579W        W29993  15.051   9.055  13.009  0.3550  0.0489 -0.1342
16580W        W29994  14.851  16.792  10.650  0.1346 -0.0190  0.3414
16581W        W29995   3.518  15.443  11.948 -0.1194 -0.1952  0.1667
16582W        W29996  13.970   0.164  10.949  0.0895 -0.3892 -0.1465
16583W        W29997   5.466  10.354  12.129  0.2462 -0.0573  0.0837
16584W        W29998   6.644  12.468  12.094 -0.2290 -0.0264  0.3042
16585W        W29999  11.159  14.092  12.972 -0.0285  0.1358  0.0499
16586W        W30000   9.027   6.991  15.470  0.2763  0.0103  0.1246
16587W        W30001   7.384   6.725   4.198 -0.0847 -0.1723  0.1285
16588W        W30002  15.722   5.533  14.169  0.0891  0.1224 -0.2078
16589W        W30003   7.053   6.662  16.352 -0.1755 -0.0178  0.2877
16590W        W30004   0.694  11.516   5.515 -0.0380  0.1547  0.1514
16591W        W30005  15.414   1.689  13.107 -0.0214  0.0183 -0.1127
16592W        W30006  12.886   5.855   2.298 -0.3497  0.0758  0.0330
16593W        W30007   1.995   8.314  14.239  0.2474 -0.1473  0.3403
16594W        W30008   7.027   0.985  15.151  0.2497  0.0686  0.1628
16595W        W30009  10.958   5.663  10.983 -0.3149  0.0133  0.0561
16596W        W30010  10.597  15.321   4.669  0.0330 -0.3351  0.0965
16597W        W30011  18.317   0.247  11.603 -0.0444  0.0245  0.1977
16598W        W30012  12.567  16.077  10.279 -0.1201  0.1338  0.1426
16599W        W30013   1.197   8.892  14.401  0.1342  0.2196 -0.1115
16600W        W30014   4.041  15.336   1.108 -0.0741  0.0379  0.2632
16601W        W30015   9.572  14.753  11.060  0.2882 -0.0897  0.1553
16602W        W30016   9.827  11.849   4.798  0.2504  0.1891  0.0346
16603W        W30017  13.258  10.788  12.150  0.0069 -0.1842 -0.1758
16604W        W30018  18.258   2.239  12.965 -0.1551  0.0477 -0.2681
16605W        W30019  18.072   3.079  12.975 -0.0187 -0.4629  0.1396
16606W        W30020  10.048   3.834  14.886 -0.1479 -0.0776 -0.1800
16607W        W30021  13.075  13.106  12.761 -0.1296  0.1525 -0.1888
16608W        W30022  10.166   3.283  10.804  0.0900 -0.0041  0.1063
16609W        W30023  13.292  13.769  11.564 -0.0513  0.0302 -0.1453
16610W        W30024  10.002  17.534   1.587 -0.1992 -0.1990 -0.1359
16611W        W30025  14.694  13.471   3.824  0.1582 -0.2873 -0.0491
16612W        W30026   6.611   7.806  12.116 -0.1424 -0.1437  0.0720
16613W        W30027  15.716  16.249   0.651 -0.1011  0.1821 -0.0043
16614W        W30028  17.242   7.818  13.740 -0.3206  0.2438  0.1613
16615W        W30029   1.466  15.653   6.732 -0.0331 -0.1243 -0.1697
16616W        W30030  16.864  11.640   1.714 -0.1597  0.1225 -0.2860
16617W        W30031   5.195   4.125   1.714  0.0137 -0.1006 -0.4687
16618W        W30032   5.782  10.131   1.476  0.2914  0.3975  0.1422
16619W        W30033  14.768  10.518   4.902  0.0399  0.1493 -0.1996
16620W        W30034   3.330   5.215   4.598 -0.0529 -0.1410  0.2440
16621W        W30035  13.821  16.537   3.253 -0.0822  0.2088 -0.0410
16622W        W30036  12.386  13.927   4.734  0.2383  0.1343 -0.2722
16623W        W30037  10.568  14.328   5.310  0.1186  0.0738  0.1037
16624W        W30038   6.348   3.505   5.641 -0.4368  0.1874  0.0566
16625W        W30039   3.186  16.471   3.640 -0.1229 -0.1568  0.1050
16626W        W30040   9.838  14.376  14.484  0.2368 -0.0390  0.2068
16627W        W30041   6.231  10.438   0.725 -0.0865  0.2599 -0.2685
16628W        W30042  18.264  10.517  10.886  0.1681 -0.1468 -0.3577
16629W        W30043  16.050  11.507   0.816 -0.0417  0.0083  0.0518
16630W        W30044   6.368  10.446  12.923 -0.0077 -0.0630 -0.2101
16631W        W30045  13.919   0.794   3.290 -0.2210  0.0025  0.2922
16632W        W30046   2.821   1.833  11.148  0.5481 -0.1798  0.0620
16633W        W30047  15.952   7.540  14.264 -0.0939 -0.0788 -0.1738
16634W        W30048   1.504  16.034   3.637 -0.2188 -0.0499  0.2737
16635W        W30049   9.380  10.766   5.034 -0.0273  0.1128  0.0636
16636W        W30050   9.808   2.680   5.430 -0.2154  0.1220  0.2109
16637W        W30051   4.561  16.446   2.334  0.2107 -0.4868  0.1381
16638W        W30052   4.557  13.067  15.698 -0.1159  0.0410  0.0325
16639W        W30053  10.102   6.806   2.919  0.1815 -0.2065  0.3165
16640W        W30054   5.390  17.537   0.586 -0.1296 -0.1085  0.0748
16641W        W30055  11.374   1.211   1.223  0.0689 -0.1113  0.1603
16642W        W30056   9.166  18.054   4.695 -0.1991 -0.1848  0.1656
16643W        W30057  14.391  16.226   4.378 -0.1407  0.0566 -0.1132
16644W        W30058  11.044   4.467  15.257 -0.1997 -0.1381 -0.2970
16645W        W30059   7.187   1.206  15.929  0.1511  0.1045 -0.1221
16646W        W30060  14.895   0.475   5.393  0.1459  0.0812 -0.0149
16647W        W30061  16.600  15.946   0.231  0.1458 -0.0604 -0.0527
16648W        W30062   2.067   9.942   4.465  0.0419  0.0915 -0.0229
16649W        W30063   3.930   2.481  11.762  0.1492  0.1432  0.1598
16650W        W30064  12.691  16.288   3.789 -0.0452  0.2230 -0.0359
16651W        W30065   4.375   3.029  15.717 -0.1604 -0.1594 -0.0791
16652W        W30066   6.087  17.749  12.263  0.1176  0.2581  0.2099
16653W        W30067   5.641   3.229  12.200  0.1820  0.0974 -0.0751
16654W        W30068  17.641  18.383   4.316 -0.0527  0.0192 -0.0058
16655W        W30069   5.107   9.275  10.588  0.1145  0.0506  0.0186
16656W        W30070   4.400  11.640  14.928  0.1162  0.0820  0.2302
16657W        W30071  11.469  11.930   1.819 -0.2613  0.1851  0.3023
16658W        W30072  13.194  15.888  16.321 -0.5406  0.0597 -0.1470
16659W        W30073  16.235  15.788   1.374 -0.2204  0.2063  0.0253
16660W        W30074  15.303   1.071   2.382 -0.1026  0.0932  0.3040
16661W        W30075   2.960   3.757   0.775 -0.0481  0.0902 -0.0429
16662W        W30076   5.563   9.189   0.875  0.3485  0.5455  0.3006
16663W        W30077   1.673  14.304   0.749 -0.1575  0.1309 -0.0236
16664W        W30078   8.029   9.454  15.524  0.1983  0.1176 -0.3003
16665W        W30079   4.622  17.389   3.589  0.0740  0.1979 -0.0637
16666W        W30080  15.342  13.108   0.203  0.0293  0.0949 -0.4816
16667W        W30081   9.639   3.837  13.584 -0.0435 -0.0581  0.2784
16668W        W30082  12.697  13.379  10.709  0.0653 -0.2074  0.0038
16669W        W30083  16.810  15.673   4.070  0.3658  0.2504 -0.2366
16670W        W30084   9.633  11.829   0.368 -0.1019 -0.1742  0.0308
16671W        W30085   8.481  15.279   0.926 -0.0142 -0.1754 -0.0243
16672W        W30086  15.145  17.897   5.421 -0.0801 -0.1070 -0.1996
16673W        W30087   5.038   7.780   3.464 -0.0002  0.1589 -0.4315
16674W        W30088  15.222   2.140  14.833 -0.0412 -0.4801  0.0464
16675W        W30089   8.246  17.436   1.808 -0.0997  0.0343 -0.0888
16676W        W30090  14.048  18.260   3.898  0.0181  0.0945 -0.1013
16677W        W30091   4.144  15.284  15.662  0.0411  0.1902  0.1108
16678W        W30092  15.085   7.735  12.015 -0.1095 -0.1261 -0.1218
16679W        W30093  18.081   3.793   0.129 -0.0835 -0.0919  0.1841
16680W        W30094   7.160   5.963   2.190  0.1476  0.0370 -0.1089
16681W        W30095  11.628  17.128   4.910  0.2155  0.0573 -0.1152
16682W        W30096   5.258  15.685  12.118  0.0524 -0.1597 -0.0480
16683W        W30097   4.529   0.401  15.979 -0.5239  0.3571 -0.1212
16684W        W30098   4.299  11.012   0.810 -0.2445 -0.1344 -0.1343
16685W        W30099  17.662   3.527   3.429  0.1150 -0.0372 -0.0443
16686W        W30100   5.753  16.607   0.080 -0.0797  0.3607 -0.2205
16687W        W30101   9.456   0.985  12.565  0.4164 -0.2169  0.1443
16688W        W30102  16.494   2.512  14.445  0.0531 -0.0527 -0.0245
16689W        W30103   0.344  14.831   4.671 -0.0440  0.0504  0.2224
16690W        W30104  13.956   8.906  12.053  0.0995 -0.0850 -0.0664
16691W        W30105   9.590   4.945   4.429  0.0337  0.1790  0.0468
16692W        W30106   2.149   1.827   2.258  0.1147 -0.3036  0.0093
16693W        W30107   0.714  12.479  11.124 -0.0409  0.3926  0.1935
16694W        W30108   1.597   0.715   2.342  0.5243  0.1270  0.2841
16695W        W30109  11.272   8.793   0.850  0.1255 -0.0974 -0.1049
16696W        W30110   2.137  14.441  16.387  0.1071  0.1709  0.3062
16697W        W30111  13.807   9.479   1.872 -0.1301  0.0138 -0.0437
16698W        W30112  15.762   6.676   4.647 -0.1942 -0.0625  0.0626
16699W        W30113   6.524  18.285  11.929  0.1264 -0.1703  0.2281
16700W        W30114  16.187   1.364   0.361  0.1529  0.0793  0.1039
16701W        W30115  13.601   0.722   1.199  0.2591 -0.1459  0.1579
16702W        W30116   1.703  13.254   4.950  0.1025  0.1653 -0.2259
16703W        W30117  12.188   0.747  16.409  0.1192  0.0965  0.2369
16704W        W30118   1.779  18.006   1.646 -0.0818 -0.1298  0.1214
16705W        W30119  16.705  12.012   0.236  0.0373  0.2925  0.0259
16706W        W30120   1.989   8.889  11.031  0.0618 -0.0605  0.3742
16707W        W30121   4.811  14.762   2.330  0.2488 -0.0158  0.3143
16708W        W30122  17.645   0.732  14.140 -0.1389 -0.3448 -0.2848
16709W        W30123   6.711  15.933  10.915 -0.2267  0.0793 -0.0898
16710W        W30124   8.008  11.999  15.521 -0.1548  0.0622 -0.0670
16711W        W30125  17.920  12.208   4.061 -0.2584  0.0693  0.0731
16712W        W30126   5.240   3.279  14.682 -0.2905  0.1824  0.0058
16713W        W30127  17.307   4.711  11.451 -0.1886 -0.0835 -0.3042
16714W        W30128  12.384   2.207   1.735  0.1193 -0.1995 -0.0553
16715W        W30129   2.165  13.530  11.795 -0.0448 -0.0861 -0.1719
16716W        W30130   0.045  17.005  11.799 -0.3239 -0.0807 -0.0806
16717W        W30131   0.900  15.342   5.284  0.1235 -0.2974  0.0293
16718W        W30132   0.312  14.339   4.630 -0.0883  0.1183  0.2797
16719W        W30133   0.991  10.900   5.731 -0.2520 -0.2093 -0.0765
16720W        W30134  13.034  13.870   6.920  0.2407 -0.2616  0.1777
16721W        W30135   9.785   8.410  13.852  0.0138  0.1287  0.1714
16722W        W30136  14.429   9.156  14.972 -0.3558  0.0202  0.0796
16723W        W30137  11.534  15.088   0.065 -0.0528  0.3678  0.1028
16724W        W30138  15.281  17.049  11.554  0.0034 -0.0267 -0.0803
16725W        W30139  16.283   0.145   0.807  0.2267 -0.1418 -0.0809
16726W        W30140   9.303   1.307  12.055 -0.1301 -0.0810 -0.0772
16727W        W30141   1.751  11.892  13.193 -0.1465  0.3216 -0.1667
16728W        W30142   9.259  16.441  13.784  0.0598 -0.0351  0.0199
16729W        W30143   1.383  13.218   5.386 -0.2869 -0.0423 -0.2418
16730W        W30144  13.872  18.286   6.206 -0.0221 -0.2774 -0.4885
16731W        W30145   9.829  14.682   0.912 -0.2995  0.0091 -0.2265
16732W        W30146  13.035   1.873   0.748 -0.3668  0.2745 -0.0745
16733W        W30147  12.961   5.866  14.546 -0.1717 -0.1425 -0.0101
16734W        W30148  16.793  10.730   3.765 -0.0815 -0.1294 -0.0850
16735W        W30149   9.313   0.950  14.610 -0.3760 -0.2493 -0.0845
16736W        W30150   2.831  13.458  15.590  0.1171 -0.1238  0.0492
16737W        W30151   1.806   1.432   4.873  0.0744  0.0332 -0.0605
16738W        W30152   0.476  14.489   0.607 -0.2927 -0.2261  0.5903
16739W        W30153   6.127  11.550  15.698 -0.0441  0.2250  0.1877
16740W        W30154   2.682   9.363  12.711 -0.1286  0.0337  0.2823
16741W        W30155   7.870   3.681  15.807  0.4443 -0.0796 -0.1089
16742W        W30156   6.472   5.973   2.422  0.0326  0.0093 -0.2487
16743W        W30157   2.451  12.707   2.509 -0.0869 -0.3959  0.3486
16744W        W30158   3.400  17.019  11.339  0.2734 -0.0100  0.0737
16745W        W30159   6.542  14.431  11.314  0.2012  0.1025 -0.0654
16746W        W30160   5.563  17.035   1.347 -0.1403  0.5104 -0.1658
16747W        W30161   6.806   8.084   3.950  0.0730 -0.1614 -0.2154
16748W        W30162  17.333   4.088  11.483 -0.0619  0.0555 -0.0767
16749W        W30163  13.303   3.142   0.023  0.0246 -0.0924  0.0936
16750W        W30164   4.783  18.384  10.202 -0.0301 -0.4703  0.2719
16751W        W30165   9.735  16.353   1.446  0.1136 -0.2024 -0.0753
16752W        W30166  18.252   6.235   5.903  0.2207 -0.2607  0.0368
16753W        W30167  12.609   0.269   3.711 -0.1045 -0.3143  0.0167
16754W        W30168   2.526  14.179   2.903 -0.1842  0.0055  0.1789
16755W        W30169   5.875   9.673  12.792  0.0602 -0.0849 -0.1976
16756W        W30170   7.396  17.038  12.618 -0.1050 -0.0159  0.3304
16757W        W30171  17.496  10.404  15.323 -0.0509  0.2009 -0.4283
16758W        W30172  17.382   6.049  11.569 -0.2665  0.1965 -0.1174
16759W        W30173  10.297  12.545   3.795  0.0685 -0.3410 -0.4068
16760W        W30174   7.603   9.101   0.938 -0.0563  0.4207  0.2854
16761W        W30175  16.189  11.916   5.323  0.1838  0.3576  0.2207
16762W        W30176  11.864   9.635   5.543 -0.0570  0.1387 -0.3846
16763W        W30177  17.402  14.851  15.865  0.0217 -0.0419 -0.0200
16764W        W30178  12.816  13.964  13.542 -0.1836 -0.0659 -0.3373
16765W        W30179   9.484  17.751   5.468 -0.3586  0.0784  0.3013
16766W        W30180  17.182  17.304  14.147 -0.1263 -0.0808  0.1957
16767W        W30181   5.600  11.907   2.883 -0.0326 -0.0040 -0.0987
16768W        W30182   5.006   6.039   1.050 -0.2467  0.2358 -0.1115
16769W        W30183   2.495   2.567  16.482 -0.0548  0.0378  0.0538
16770W        W30184   9.122   9.227  13.312  0.2358 -0.1340  0.3664
16771W        W30185  11.367   5.794  11.294  0.1391  0.2267  0.2734
16772W        W30186   2.876  14.992   6.576  0.0769  0.0652 -0.2651
16773W        W30187  10.882   2.543  14.519 -0.0994 -0.1441 -0.1113
16774W        W30188   0.917   2.828   5.738  0.0910  0.0049  0.0591
16775W        W30189  14.679  10.647   4.145 -0.1520 -0.1235 -0.0246
16776W        W30190   6.811   9.096  10.797 -0.3601 -0.1192  0.2938
16777W        W30191  11.997  16.361  12.551 -0.1513 -0.0733 -0.1586
16778W        W30192  17.137   3.448  12.030 -0.0461 -0.0106  0.2883
16779W        W30193   9.478   3.025   5.545 -0.1946  0.0526 -0.0056
16780W        W30194   2.327  10.141  11.901  0.2662  0.0530 -0.3470
16781W        W30195  13.634  11.130   5.677  0.2009 -0.4509 -0.1331
16782W        W30196  15.385  13.343   1.059  0.0646 -0.0476 -0.1937
16783W        W30197  10.496  13.761  15.833  0.3178 -0.1809  0.0171
16784W        W30198   1.428  13.667   4.716 -0.2917 -0.0977 -0.2586
16785W        W30199   4.107  13.449   2.527  0.0251 -0.5243  0.2466
16786W        W30200  11.942  11.011   1.306 -0.2493  0.0324  0.3386
16787W        W30201  16.328   2.228  16.127  0.2584 -0.0345 -0.2678
16788W        W30202  13.367   2.366  13.615  0.0387  0.3226  0.0122
16789W        W30203  10.072  11.675  10.021 -0.0295  0.0760  0.2110
16790W        W30204   2.026   1.739   4.212 -0.0995  0.0834 -0.1427
16791W        W30205  15.291   2.170   1.521 -0.1712 -0.1237  0.2001
16792W        W30206   4.248   9.480  14.380  0.1241 -0.3107  0.2524
16793W        W30207  14.509   6.769   4.928 -0.3084  0.2971  0.1248
16794W        W30208   1.126   4.670  13.042 -0.1265 -0.1428  0.1489
16795W        W30209  18.245   8.369   4.778  0.1074  0.3248 -0.1762
16796W        W30210  14.361  11.249   3.830 -0.0197 -0.1311  0.2325
16797W        W30211   7.904   3.751  10.724  0.2626 -0.2662 -0.1626
16798W        W30212  10.772   7.570   3.011  0.3049  0.0221 -0.1175
16799W        W30213  10.759  18.227  14.796  0.2432 -0.0432  0.1412
16800W        W30214   7.120   0.618  11.475  0.4571  0.0078 -0.2134
16801W        W30215  12.075  11.004   5.826 -0.1732  0.1780 -0.1411
16802W        W30216  13.913  17.730  15.816  0.0337  0.4680  0.1390
16803W        W30217   3.343  13.381   0.815 -0.2965  0.1858 -0.1249
16804W        W30218  18.121   8.234   1.209  0.1620 -0.0141 -0.2192
16805W        W30219  17.734   0.145   0.379 -0.1421  0.1018 -0.1702
16806W        W30220  16.726   0.444  11.449  0.1906 -0.0985  0.1309
16807W        W30221   5.875   5.247  12.140 -0.0758 -0.3119  0.1430
16808W        W30222   4.154   1.687   3.480  0.1080 -0.1544 -0.1572
16809W        W30223  17.210   4.601   5.658  0.1512  0.0532  0.0019
16810W        W30224   6.647  15.238  13.374 -0.1730 -0.0627  0.1108
16811W        W30225   2.354  13.445  13.865  0.2746 -0.1920 -0.2642
16812W        W30226  13.798  12.905   5.246 -0.0073 -0.0752 -0.0388
16813W        W30227  12.869  12.680  14.010 -0.0954  0.0257 -0.0629
16814W        W30228   7.872  13.619  10.280  0.0303  0.2108 -0.0339
16815W        W30229  14.251  17.368  16.069 -0.0630 -0.0786 -0.1319
16816W        W30230   6.119  14.334  14.711  0.1269 -0.5413 -0.0681
16817W        W30231   0.660  17.578  12.977 -0.3345 -0.3750 -0.0573
16818W        W30232  18.068   0.999  14.894 -0.2784  0.3834  0.1496
16819W        W30233  18.319  11.109  15.381 -0.0591  0.0138  0.0067
16820W        W30234  18.030  15.143  13.168  0.0489 -0.1101  0.0573
16821W        W30235  12.857  11.154   4.895 -0.2794  0.2092 -0.0341
16822W        W30236   3.875  10.861   6.379  0.1614 -0.0681  0.0772
16823W        W30237  14.603  18.297  11.780  0.2136 -0.1343 -0.1607
16824W        W30238   1.090   7.994   2.231  0.0535  0.0213 -0.0308
16825W        W30239  14.615  16.960   1.614  0.1699 -0.0946  0.0898
16826W        W30240  17.178  18.332   4.629  0.0340  0.3994  0.1165
16827W        W30241   4.032   1.843  15.533  0.0884 -0.2945  0.1557
16828W        W30242   7.103  17.596   3.620  0.1978  0.0340  0.0264
16829W        W30243  12.571  14.107   0.291 -0.1156  0.0895 -0.3421
16830W        W30244  14.998  14.984  16.006  0.1618 -0.0310 -0.0042
16831W        W30245   2.002  13.622   1.123  0.1557 -0.1030 -0.0913
16832W        W30246   3.022  18.247   2.386 -0.0774 -0.0856  0.1938
16833W        W30247   1.201  11.066  11.405 -0.0694 -0.0389  0.0624
16834W        W30248   4.745   8.896   2.047 -0.1704 -0.2175  0.3113
16835W        W30249  17.492   4.497   6.095 -0.0219 -0.3495 -0.0315
16836W        W30250  17.967   6.523  14.837  0.2836 -0.2158 -0.0219
16837W        W30251  15.088  16.294  14.057  0.0608 -0.0435  0.2053
16838W        W30252  15.645  13.844  15.017  0.2725  0.0961  0.4621
16839W        W30253   8.343   7.292  13.548 -0.0656 -0.1198  0.1406
16840W        W30254   5.231   5.380   5.040  0.2032 -0.0236  0.0810
16841W        W30255   2.116   1.839  13.907 -0.0244  0.0151  0.2179
16842W        W30256  16.640   1.211   5.663 -0.2211  0.0136 -0.0088
16843W        W30257   4.616   5.951   2.784 -0.0742  0.0299  0.1524
16844W        W30258  15.887  10.895   4.813 -0.1898  0.2386 -0.0587
16845W        W30259  10.951  10.033   5.801  0.1333  0.0167  0.0682
16846W        W30260  11.409   9.675  15.245 -0.2517 -0.0871 -0.0714
16847W        W30261  10.005   2.922   3.737 -0.0584  0.2369 -0.0135
16848W        W30262   2.484   4.834   6.570 -0.0649  0.0944 -0.0726
16849W        W30263   4.215   0.126   0.707 -0.2077  0.1063  0.2841
16850W        W30264  16.845  14.704  10.622 -0.0957 -0.2155  0.0998
16851W        W30265   8.989  16.067  13.504  0.0270  0.0288 -0.0613
16852W        W30266   3.007   0.198   2.702  0.0306 -0.1285 -0.1390
16853W        W30267   1.144   5.915  15.991  0.1931 -0.2326 -0.3912
16854W        W30268  15.288   0.456  12.531  0.1909  0.1359 -0.1182
16855W        W30269  11.405   4.880  11.712 -0.3871  0.1116  0.0053
16856W        W30270  16.469   8.572   4.896  0.1321  0.2375  0.2638
16857W        W30271   0.161   7.964  10.774  0.3205 -0.0537  0.2262
16858W        W30272  10.719   3.132   2.394  0.1829  0.2166 -0.2511
16859W        W30273   8.176   5.861   2.170  0.2961  0.0820 -0.0661
16860W        W30274   8.652  10.851   5.565 -0.3479 -0.0789  0.4180
16861W        W30275   1.349   4.398  14.003  0.1043 -0.0645 -0.1650
16862W        W30276   6.180   6.734  15.143  0.0299  0.0811 -0.1991
16863W        W30277   1.493   7.252  13.441  0.0973  0.1022  0.1387
16864W        W30278   0.985   2.723   5.210 -0.1485  0.1392  0.1437
16865W        W30279   6.532   5.713   5.460 -0.3485  0.1679 -0.1151
16866W        W30280   2.539  12.379   5.625 -0.1357 -0.2410  0.2653
16867W        W30281   9.345  15.694  12.105 -0.1505 -0.0444 -0.1855
16868W        W30282  15.788  16.746   3.763  0.1406  0.1085 -0.1357
16869W        W30283   3.806   6.949   2.219 -0.1111  0.2618 -0.1285
16870W        W30284  17.552   1.063  15.412 -0.1178 -0.0080  0.1906
16871W        W30285   6.776  12.567   4.604  0.1706  0.0140 -0.3790
16872W        W30286  12.250  10.612  14.713 -0.0156 -0.0839  0.2602
16873W        W30287   2.274   7.709  12.566 -0.0088 -0.1053  0.2371
16874W        W30288   7.524   7.831   1.429 -0.2455  0.4480 -0.0036
16875W        W30289   0.035  16.634  15.883 -0.1390  0.2214 -0.0483
16876W        W30290  12.472   1.449  11.271  0.2680  0.0316 -0.2665
16877W        W30291   6.528   1.173   0.703  0.3500  0.1401  0.0628
16878W        W30292  16.136  12.892   5.996  0.2824  0.0842  0.0498
16879W        W30293   4.040   2.555   0.634 -0.0760 -0.1293 -0.0363
16880W        W30294  10.151   0.262   4.655 -0.3905  0.2340  0.3634
16881W        W30295   8.260  14.200   3.188  0.1586 -0.2727  0.1430
16882W        W30296  11.301   9.221   2.708  0.1109 -0.0195  0.1075
16883W        W30297  13.018  15.844  12.380 -0.0756 -0.1419 -0.4100
16884W        W30298   0.299   0.924  14.613  0.1259  0.3538 -0.0463
16885W        W30299   3.440  15.606   2.479 -0.0525 -0.4003 -0.3353
16886W        W30300   4.784   2.806   3.271 -0.1556 -0.1533 -0.0296
16887W        W30301   4.257   3.529   5.447  0.4351  0.1650  0.1842
16888W        W30302  15.935   6.714   2.017 -0.2075  0.0540 -0.0509
16889W        W30303  14.239  11.728   3.931 -0.0339 -0.3652 -0.0304
16890W        W30304  14.915  10.794   5.305 -0.0950 -0.1118  0.1491
16891W        W30305  17.336  12.188  15.015 -0.1642 -0.0728  0.1113
16892W        W30306  14.691  10.272   2.557 -0.0973  0.0713  0.1365
16893W        W30307   7.817  14.273   0.662 -0.2504  0.0081  0.2304
16894W        W30308  10.951  11.982  14.453  0.1864 -0.1069  0.3102
16895W        W30309   3.077   6.554   4.396  0.1078 -0.2860  0.0649
16896W        W30310   6.331  11.558  14.799  0.3121 -0.2125 -0.0484
16897W        W30311   5.038   3.274  15.226 -0.2956 -0.1493 -0.1209
16898W        W30312  13.430   2.835  15.423  0.1609 -0.1499  0.0257
16899W        W30313  12.242   1.112   0.548 -0.3183  0.2909  0.0448
16900W        W30314  10.102  10.295   5.644 -0.0516  0.0270  0.1590
16901W        W30315   6.585  12.993   6.049  0.2617 -0.0992  0.2244
16902W        W30316  15.408   0.370   1.567  0.2181  0.2752 -0.1488
16903W        W30317  17.949   1.523  14.640 -0.0173 -0.2320  0.2340
16904W        W30318   2.736   9.830  11.897 -0.0753 -0.0025 -0.1383
16905W        W30319   4.179  15.372   6.573  0.1614  0.0519 -0.0126
16906W        W30320   6.794   9.484  12.935 -0.1522 -0.0945  0.1605
16907W        W30321   4.390  18.253   3.664  0.3121  0.0602  0.0983
16908W        W30322   4.041   9.972  13.565  0.1000 -0.1358  0.0070
16909W        W30323  15.112  17.158  12.052 -0.0334  0.0247 -0.0917
16910W        W30324  18.008   5.744  12.278  0.2824  0.0258  0.2227
16911W        W30325   2.876   2.436  12.998  0.1506 -0.2701  0.2228
16912W        W30326   9.526   0.822  14.192  0.3449  0.0568  0.1560
16913W        W30327   8.222   4.783   3.081  0.1694 -0.0748  0.2693
16914W        W30328  14.991  15.469  15.144 -0.0610  0.0868 -0.2239
16915W        W30329   9.285  13.707   5.699 -0.0228 -0.1546 -0.2803
16916W        W30330   5.109   7.896   2.573 -0.0372  0.0205  0.1355
16917W        W30331  10.463   3.357  14.311  0.0655  0.0269 -0.1599
16918W        W30332  10.400   6.883  14.763 -0.0305 -0.1852  0.1244
16919W        W30333   9.442  17.336   3.383 -0.3059  0.0211 -0.1354
16920W        W30334  11.542   1.963   1.506  0.3973 -0.0370  0.3499
16921W        W30335   9.106   3.184  14.139  0.1621 -0.4530 -0.0104
16922W        W30336   2.251  12.828   0.334  0.0029 -0.0169 -0.0103
16923W        W30337  10.671  12.580   5.565 -0.5486 -0.0483 -0.0908
16924W        W30338  16.840  16.228  13.368  0.2161  0.0696  0.3044
16925W        W30339  14.921  16.303  12.983  0.4531  0.0237 -0.1661
16926W        W30340  13.064   2.066   3.123 -0.3630  0.0067  0.3177
16927W        W30341  14.242  12.208   6.292  0.0978  0.1682  0.0500
16928W        W30342   6.578   5.845  14.343 -0.0554  0.0221  0.2679
16929W        W30343   5.025   9.285  14.444 -0.0902 -0.0789  0.0037
16930W        W30344   8.007   5.212   3.874 -0.2738 -0.1372  0.2400
16931W        W30345   5.866   7.969   1.630  0.0526  0.1111 -0.1339
16932W        W30346   5.837   8.620  15.499  0.1248 -0.0859 -0.1906
16933W        W30347  13.383   5.347  11.769  0.0162  0.1387 -0.4233
16934W        W30348   4.206  15.329  14.156 -0.0250  0.2293 -0.0500
16935W        W30349  14.274  13.606   3.268 -0.0859 -0.2680  0.2524
16936W        W30350   6.525  11.620  11.259  0.2096 -0.2564 -0.1227
16937W        W30351  14.776   1.141  16.004 -0.3644 -0.2955 -0.0127
16938W        W30352  13.490  12.254   2.442 -0.0656  0.1147 -0.2294
16939W        W30353  16.816  13.829  11.202  0.0193  0.0981  0.4873
16940W        W30354  10.512   1.121   0.048 -0.0592 -0.2212 -0.0649
16941W        W30355   2.779  17.576   3.871  0.0760  0.1146 -0.0637
16942W        W30356  12.761  14.033   1.398 -0.1190  0.0321 -0.2341
16943W        W30357   9.959  12.022   2.394  0.0820  0.2182 -0.2644
16944W        W30358  17.155   7.575   1.945 -0.3378 -0.2108 -0.1080
16945W        W30359  17.598   2.115   1.459 -0.1347 -0.0168 -0.1743
16946W        W30360   6.347  15.369   0.881  0.3674  0.1066 -0.2382
16947W        W30361  13.367  13.220   1.625  0.1854  0.0737 -0.1667
16948W        W30362  11.225  13.933   2.157  0.1409 -0.1720  0.2671
16949W        W30363   7.533   4.241   5.805 -0.1569  0.0512 -0.0958
16950W        W30364   7.678   0.991  15.845  0.0967  0.0739 -0.0361
16951W        W30365  10.470  17.164  15.109 -0.2123  0.1203  0.0580
16952W        W30366   1.907   9.125   2.617  0.3193 -0.1383  0.1701
16953W        W30367   7.161  15.722  16.296 -0.2594 -0.0543 -0.2275
16954W        W30368   3.254   4.943   3.685  0.2268  0.2339  0.2663
16955W        W30369   8.862  18.088   2.243 -0.0593 -0.2650  0.1146
16956W        W30370   8.605  17.274   0.138  0.0418  0.0804  0.1451
16957W        W30371  14.392   3.987   9.951 -0.0664 -0.2502  0.3879
16958W        W30372   4.983   2.961  10.753  0.3623 -0.0880 -0.1480
16959W        W30373   2.671  10.668   4.511  0.0534 -0.2229  0.2485
16960W        W30374   7.361   9.029   6.468 -0.2923  0.5002  0.0200
16961W        W30375   3.592   2.360  14.665 -0.2022 -0.2372  0.0984
16962W        W30376   3.805  12.760   1.679  0.0954  0.0008  0.0532
16963W        W30377  17.044  17.835   0.097  0.4451  0.0337 -0.0173
16964W        W30378  12.703   9.214   5.915  0.3814 -0.0303  0.1034
16965W        W30379  13.390   1.458   0.174 -0.1287 -0.1937 -0.0390
16966W        W30380  17.616   4.277  15.021 -0.3451 -0.0069  0.3037
16967W        W30381   3.928   7.865   1.123  0.1275 -0.0682 -0.3827
16968W        W30382   1.795  12.015   3.888  0.2586  0.2223 -0.0361
16969W        W30383  11.486  17.952   3.007  0.0367  0.3902  0.1480
16970W        W30384   1.444   3.299   3.001 -0.3069  0.1510 -0.2140
16971W        W30385   5.454  11.359   1.248 -0.0627  0.1021 -0.4957
16972W        W30386   3.557  16.048   5.077 -0.1073 -0.0106  0.2622
16973W        W30387   2.264   5.855  11.508 -0.5279  0.0132  0.0108
16974W        W30388   2.245   4.061  11.322 -0.1299  0.1023 -0.1449
16975W        W30389   0.392   8.198   0.046 -0.0193 -0.2057  0.0650
16976W        W30390  15.923  15.004   6.810  0.1093 -0.1752  0.1585
16977W        W30391  10.893  10.037   2.403  0.2005  0.2273  0.0668
16978W        W30392  11.108  15.386  15.216  0.3006  0.1108 -0.1170
16979W        W30393   7.277   0.314  14.122  0.1167  0.1018  0.0884
16980W        W30394   4.314   8.025  10.031  0.0609 -0.4027  0.1262
16981W        W30395   7.510  16.014  10.967 -0.1462 -0.1406 -0.2720
16982W        W30396   2.824  13.744   4.334  0.0731 -0.2623 -0.0684
16983W        W30397   7.308   4.141  12.114  0.1408 -0.0956  0.3329
16984W        W30398   0.660  18.373  11.836  0.1380  0.2439  0.1261
16985W        W30399  13.624   4.946  11.562  0.1087  0.1355 -0.0579
16986W        W30400   7.501   4.012  15.605  0.1128 -0.0959  0.0625
16987W        W30401  12.576   9.737   6.086 -0.0573  0.2761  0.1314
16988W        W30402   1.676   9.273   4.890  0.0291  0.0797 -0.0242
16989W        W30403  15.934  15.715  12.939 -0.1127  0.0572 -0.0660
16990W        W30404   5.848  17.523   4.392  0.2299 -0.2336  0.0006
16991W        W30405  15.804  18.268  12.478  0.0094  0.0897 -0.0772
16992W        W30406   9.923   8.053  13.222 -0.1963  0.1092  0.0503
16993W        W30407  10.232  18.100  10.905 -0.4075 -0.0158 -0.0357
16994W        W30408   7.547   0.620  12.318 -0.3351 -0.3055 -0.0553
16995W        W30409  13.687   1.954  13.236  0.1042 -0.1407 -0.1037
16996W        W30410   3.283   4.024   5.859  0.2099 -0.0860 -0.0113
16997W        W30411   0.067   5.017   4.082 -0.2105 -0.0356  0.2039
16998W        W30412   5.622   6.087  12.638  0.0819 -0.1860  0.1182
16999W        W30413  13.977   4.878   9.974 -0.0300  0.1291  0.0021
17000W        W30414   7.641  12.655  13.754  0.1932 -0.0731 -0.1472
17001W        W30415  14.325   3.186  11.474  0.1527 -0.0097  0.2948
17002W        W30416   0.001   1.598   4.894 -0.0350 -0.2558 -0.1387
17003W        W30417  14.297  14.550   3.669  0.1931  0.3409 -0.2382
17004W        W30418   4.941   4.860   0.553  0.5300 -0.0247  0.1425
17005W        W30419   8.955  10.531   6.441 -0.0363 -0.0029  0.0870
17006W        W30420   8.490  11.873  11.209  0.3051  0.2461 -0.1438
17007W        W30421  11.889   0.881   4.633 -0.0308 -0.2457  0.0057
17008W        W30422   1.966  10.614  12.638 -0.0198 -0.1310  0.1279
17009W        W30423  10.797  13.220  12.865 -0.0819 -0.1273  0.1661
17010W        W30424   7.069   8.006   0.143 -0.0208  0.0169  0.1872
17011W        W30425   2.597   7.429   1.361 -0.0835 -0.4506 -0.2302
17012W        W30426  18.153   9.722  15.355  0.0315 -0.2204  0.0788
17013W        W30427   2.749   7.253   2.161  0.1397  0.3645  0.1931
17014W        W30428   2.952  12.784   6.233 -0.0843 -0.0086 -0.3558
17015W        W30429  10.698  13.299  15.983  0.0099  0.0483  0.1404
17016W        W30430   8.144  14.923   4.035  0.0485  0.0957 -0.3426
17017W        W30431   2.965   0.789  14.919 -0.0030  0.2363 -0.1194
17018W        W30432   1.630   2.387   4.822  0.0829 -0.1284  0.0890
17019W        W30433  12.413   3.145  14.260  0.1198 -0.0808  0.3205
17020W        W30434   1.001  13.887   2.055 -0.1489 -0.1939 -0.2638
17021W        W30435  12.195  15.732  14.592 -0.1671  0.4681 -0.0632
17022W        W30436  15.503  10.997  11.350 -0.2864 -0.0044 -0.0129
17023W        W30437   7.557  15.116   2.221 -0.1858 -0.1648  0.2010
17024W        W30438  15.289   9.251   0.244  0.0272 -0.1097 -0.0610
17025W        W30439   6.833  18.282   4.310 -0.3697 -0.1654 -0.2263
17026W        W30440   6.934  11.754   5.690  0.1747 -0.0408  0.2174
17027W        W30441   9.118   3.028   5.086 -0.0417 -0.1418 -0.0810
17028W        W30442  16.046   4.242   2.425  0.0758 -0.2528 -0.2238
17029W        W30443   0.632   6.539   4.139 -0.0327 -0.0911 -0.3439
17030W        W30444   1.391  14.701   1.021  0.3575 -0.0994  0.0881
17031W        W30445  16.877  17.311  12.645  0.2046 -0.1698 -0.2156
17032W        W30446  17.696   1.902   2.040 -0.3148 -0.3740  0.0909
17033W        W30447  16.438   9.957   1.693  0.2074 -0.0410 -0.1041
17034W        W30448   1.595  15.938  12.227  0.2603 -0.0513  0.2019
17035W        W30449   5.442  12.824   5.014 -0.3143 -0.1672 -0.3977
17036W        W30450   4.924   8.840  14.649 -0.0485  0.1707  0.1752
17037W        W30451  13.718   1.422  12.273 -0.2625 -0.1741 -0.3517
17038W        W30452   3.830   4.344   3.221 -0.3218 -0.2448 -0.2557
17039W        W30453   4.037   6.023   1.919  0.0665 -0.3303 -0.2456
17040W        W30454   3.254  17.970   4.680 -0.4371 -0.0637 -0.1936
17041W        W30455  16.580  14.711   3.059  0.1045 -0.1628  0.2219
17042W        W30456  10.917  17.055   1.839  0.1989  0.2173 -0.1655
17043W        W30457   6.560   1.648  13.286  0.0306 -0.0704 -0.1325
17044W        W30458   7.318  18.169   1.873  0.1964 -0.2798 -0.2345
17045W        W30459   9.433  16.982  10.967 -0.1541 -0.0804 -0.3725
17046W        W30460  14.530   1.080   4.561  0.0677 -0.1468  0.2074
17047W        W30461   8.718  18.063   5.606 -0.1136 -0.1118  0.0240
17048W        W30462  11.434   1.104  10.303 -0.2443 -0.2911  0.1635
17049W        W30463   2.899   5.963  10.701  0.2811  0.0005  0.2266
17050W        W30464  10.350  15.530  10.230 -0.1988 -0.1782  0.0333
17051W        W30465  17.158   7.154   5.886 -0.0776 -0.4086  0.0152
17052W        W30466   7.593  13.879  13.837  0.0696 -0.0885 -0.1184
17053W        W30467   6.748  12.201   5.513  0.0918  0.1257 -0.1870
17054W        W30468   8.675   6.813   2.303  0.3063  0.0269  0.5148
17055W        W30469  10.897   6.722  13.450 -0.0746  0.0808 -0.0722
17056W        W30470   0.857   1.718   1.101  0.0174  0.0629  0.1062
17057W        W30471  15.661   1.706   1.823  0.1023  0.1085  0.1152
17058W        W30472   7.731  11.950   3.597 -0.3591 -0.2377  0.2175
17059W        W30473   0.975  15.210  15.471 -0.0146  0.3257  0.1673
17060W        W30474   3.990  15.772   1.867 -0.0745 -0.0813  0.2121
17061W        W30475   3.668  10.959  12.220  0.1509  0.0441  0.2353
17062W        W30476   9.876  14.839  13.274 -0.1775  0.1496 -0.0908
17063W        W30477   4.995  12.489  13.362  0.0537 -0.0022 -0.1768
17064W        W30478  15.936   1.808   5.476 -0.0013 -0.0607 -0.0397
17065W        W30479   5.019   4.270   4.163  0.1031 -0.1433 -0.2390
17066W        W30480   4.876   2.581   9.993 -0.0494  0.2765 -0.0309
17067W        W30481   2.623  18.371   4.407  0.2363 -0.0647 -0.0325
17068W        W30482   9.620  17.802   4.654  0.1627  0.2517  0.0286
17069W        W30483   5.269   8.654  10.104 -0.1195 -0.2324 -0.0151
17070W        W30484   3.892  10.061   3.532  0.2025  0.2563  0.1387
17071W        W30485  10.160   7.378   0.476 -0.0334 -0.1965  0.0993
17072W        W30486  17.109  14.059   5.662  0.1070  0.1073 -0.2364
17073W        W30487   2.519   4.648  13.419  0.4205 -0.0579 -0.1826
17074W        W30488  11.453  15.540   0.600  0.0079 -0.0288  0.2898
17075W        W30489  12.929  13.646  13.140  0.2111 -0.0580 -0.1366
17076W        W30490  14.109   6.453  10.712 -0.1280  0.0856 -0.0557
17077W        W30491   7.631   8.650   9.706  0.1549 -0.1784 -0.1263
17078W        W30492  16.402   5.349   0.858  0.0991 -0.4472 -0.1027
17079W        W30493  16.324   0.704   3.124  0.1870  0.1888  0.3793
17080W        W30494  11.442   8.350  16.306 -0.0812 -0.3348  0.0028
17081W        W30495   2.646  17.152   3.625  0.1893 -0.0513  0.3165
17082W        W30496   7.829   6.781   4.561 -0.1207 -0.0929  0.0597
17083W        W30497   5.961   1.359  15.945  0.3534 -0.2250  0.0472
17084W        W30498   2.947  16.235  11.837 -0.3331  0.3174  0.0353
17085W        W30499  13.899  13.741   0.134  0.1579  0.1318  0.1852
17086W        W30500  17.308  11.820   2.978  0.0582 -0.2114 -0.0563
17087W        W30501  16.380  14.766  15.628  0.1501 -0.3131  0.1675
17088W        W30502   9.883  11.086  14.101  0.0576 -0.0373  0.1308
17089W        W30503   0.588  13.015   6.151 -0.2940  0.4012  0.1899
17090W        W30504   8.646   8.960  16.208  0.0345  0.2347 -0.0926
17091W        W30505   7.749  14.490   4.195  0.0942  0.0666  0.2553
17092W        W30506  12.935   0.105  14.058 -0.0854  0.1501 -0.0651
17093W        W30507   4.529  10.115  12.749  0.1773  0.1338  0.3419
17094W        W30508  11.139   1.702   1.106 -0.3267 -0.2718 -0.0700
17095W        W30509  13.492  15.776  15.072 -0.4219 -0.1457 -0.1297
17096W        W30510  11.788   3.278  12.116  0.1058 -0.0793 -0.1154
17097W        W30511  11.488   3.022   2.569 -0.3549 -0.0482 -0.0077
17098W        W30512  15.357   6.742   1.291 -0.0092 -0.0504  0.1806
17099W        W30513   4.050   4.222  12.971  0.0174 -0.0693  0.1873
17100W        W30514   9.534   7.148  13.145 -0.2088  0.2511 -0.2285
17101W        W30515  17.669  16.740   1.762 -0.2542  0.3005 -0.2432
17102W        W30516  14.093  11.417   1.533 -0.0712  0.2549  0.0752
17103W        W30517   4.683  18.180  10.809 -0.1192 -0.0823  0.0694
17104W        W30518  10.675  12.408   3.366  0.1713 -0.0129  0.0380
17105W        W30519  10.937   0.497  13.968 -0.1289  0.3586  0.0831
17106W        W30520   1.455  13.514   5.791 -0.0812 -0.0567  0.1311
17107W        W30521   0.129   4.543   4.640  0.0323 -0.1273  0.0587
17108W        W30522   2.580   4.989   2.022  0.2929 -0.0072  0.3314
17109W        W30523  10.592   9.467   3.613 -0.1060  0.3022  0.0658
17110W        W30524  13.434   7.647   0.291  0.0514 -0.2801 -0.1461
17111W        W30525   7.178   0.664   4.892  0.2333  0.1998  0.1015
17112W        W30526  14.315   7.319  11.684 -0.0166 -0.3726 -0.1630
17113W        W30527  18.038   4.135  15.900 -0.0517 -0.2528  0.0397
17114W        W30528  16.423   4.859   4.212  0.0767 -0.2775  0.0886
17115W        W30529  14.264   0.109   0.863 -0.1917  0.1935  0.2268
17116W        W30530   2.272   9.068  12.571 -0.1983  0.0595  0.0271
17117W        W30531  18.210   7.273  15.450  0.1096  0.0785  0.0464
17118W        W30532  14.803   3.833  11.903  0.1414 -0.1744 -0.1722
17119W        W30533  12.254  13.863   0.741  0.2077  0.1820 -0.2879
17120W        W30534   0.446   4.159  14.516 -0.0949 -0.0169  0.2416
17121W        W30535  14.845  10.030   9.987  0.0355 -0.1239  0.2007
17122W        W30536   7.261  14.970  13.992  0.0581  0.0338 -0.2789
17123W        W30537   8.822  11.118  15.685 -0.0449  0.2772  0.0362
17124W        W30538   9.883  13.709   6.279 -0.1156  0.1373  0.2587
17125W        W30539   4.830  13.665  11.704  0.0744 -0.0535  0.2146
17126W        W30540  15.660  11.719  13.278 -0.0690 -0.2127 -0.2022
17127W        W30541   8.422   8.325   4.792 -0.0026 -0.2426  0.1153
17128W        W30542  11.747   8.731   5.756 -0.0106  0.2218 -0.1596
17129W        W30543  13.705  18.318  11.806  0.3465  0.1906  0.1988
17130W        W30544   0.676   3.617  11.961 -0.1033 -0.1059  0.1331
17131W        W30545  12.442   3.652  14.326  0.1980  0.2796 -0.0915
17132W        W30546  12.934  10.999   5.706  0.1941 -0.2768 -0.2681
17133W        W30547  17.462  13.829   6.136 -0.3415 -0.2094  0.0396
17134W        W30548  13.579   8.970   1.593  0.2315 -0.1034  0.1381
17135W        W30549  16.319  16.246  14.614  0.0802 -0.4343 -0.0645
17136W        W30550  13.263  11.796  14.451 -0.3586  0.2443  0.0637
17137W        W30551   2.763   5.458   1.995  0.2543 -0.1398  0.3610
17138W        W30552   6.952   5.464   1.092 -0.0428 -0.1958  0.3346
17139W        W30553  14.929   8.222  13.492  0.0498 -0.0638  0.1037
17140W        W30554  10.940  12.513  14.247 -0.2722  0.0241  0.0926
17141W        W30555   4.083   4.229   4.584 -0.1749  0.0654  0.0468
17142W        W30556  15.589   2.369  15.514 -0.0302  0.1307 -0.2225
17143W        W30557   2.916  12.516  11.562 -0.1166 -0.2592 -0.0367
17144W        W30558   4.790   4.203  14.452  0.2150 -0.1126 -0.1555
17145W        W30559  13.942   9.844  10.795 -0.3871 -0.3276 -0.2426
17146W        W30560   2.586   4.049   1.881  0.0810  0.2270 -0.0047
17147W        W30561   4.651  10.063  11.241 -0.2831  0.2021  0.1183
17148W        W30562   5.992  13.952  12.876 -0.1085 -0.0290 -0.0673
17149W        W30563   7.224  10.204   0.924  0.3188  0.1211  0.2874
17150W        W30564   0.952  18.079   3.006 -0.3021  0.1604 -0.0171
17151W        W30565   8.492   7.988  16.232 -0.0594  0.0025 -0.1920
17152W        W30566   2.122  13.716   3.912 -0.0134  0.1930  0.3221
17153W        W30567  12.621  17.408   5.069  0.0110  0.3206  0.0263
17154W        W30568   9.611   1.772  14.160 -0.1893 -0.1244 -0.0245
17155W        W30569   1.642  12.324  11.748  0.1563 -0.0636  0.2325
17156W        W30570   3.591   6.231  11.346  0.2615  0.3116  0.0464
17157W        W30571   6.381   3.386   1.312  0.1393 -0.1170  0.2320
17158W        W30572   0.285   3.116  14.453  0.1681 -0.0780 -0.3151
17159W        W30573  17.094   1.206   4.050  0.1803  0.2415 -0.2943
17160W        W30574  18.000   3.441  11.653  0.0075 -0.4926 -0.1522
17161W        W30575  10.518  11.399  11.399 -0.0596  0.0308  0.1308
17162W        W30576  17.525   5.553  10.162 -0.0766 -0.1364 -0.1428
17163W        W30577  14.168   2.810   4.075 -0.1020  0.0822  0.1196
17164W        W30578   4.782   9.969   3.263 -0.3001  0.1059 -0.3129
17165W        W30579  12.534   6.434  11.768 -0.0374 -0.1198  0.0313
17166W        W30580   9.204  11.140   4.093 -0.0435  0.1041  0.0685
17167W        W30581  16.963   8.145   1.302  0.2204  0.0297  0.1086
17168W        W30582  18.087   0.883   3.397 -0.2320 -0.1599  0.1129
17169W        W30583   7.474   4.580  13.588  0.3842  0.0537 -0.0344
17170W        W30584   6.388   1.519  12.352 -0.0522 -0.0566 -0.0514
17171W        W30585  16.398  15.147  11.226  0.2519 -0.1756 -0.1592
17172W        W30586  15.992   3.827  12.548 -0.0560  0.0059  0.0841
17173W        W30587   1.577   7.844   2.127  0.3221 -0.0053  0.1220
17174W        W30588   9.543   6.191  11.298  0.1991  0.2147  0.2943
17175W        W30589   7.976   3.897   3.519 -0.1755 -0.4027  0.2289
17176W        W30590   2.872  12.410  14.492  0.0553 -0.1182  0.0536
17177W        W30591   2.267   2.819  13.823  0.1820  0.1425  0.1769
17178W        W30592  14.749   5.107   1.368 -0.3410  0.0073 -0.2947
17179W        W30593  10.921  17.929   1.611  0.2795  0.1604 -0.0419
17180W        W30594   0.356   6.249   1.809  0.2523 -0.0651 -0.0934
17181W        W30595  13.439  13.031   4.800 -0.0534  0.0122  0.4766
17182W        W30596  11.338   1.282  13.354  0.2354 -0.1274  0.0413
17183W        W30597  13.640  17.553   5.320 -0.2678 -0.2151 -0.1067
17184W        W30598   0.523   1.530   2.818  0.0061  0.1812  0.1141
17185W        W30599   7.276  11.194  15.012 -0.0179  0.4269  0.2348
17186W        W30600  14.713  16.420  12.579 -0.3310  0.0043  0.1463
17187W        W30601  16.478   1.336  11.836 -0.0405  0.0088  0.2047
17188W        W30602  18.306   1.870   4.344 -0.2022 -0.0596 -0.0298
17189W        W30603   8.233  17.381  14.633 -0.3242 -0.1587 -0.0761
17190W        W30604   4.280  14.612  15.612 -0.1302  0.1029 -0.5396
17191W        W30605  16.241   4.052  12.020 -0.0726  0.0831 -0.0744
17192W        W30606   5.656  16.049  12.031  0.4319 -0.2940  0.3248
17193W        W30607  11.320   3.393  14.161  0.1810  0.0709  0.2235
17194W        W30608  15.484   9.255   2.454  0.1981  0.1394 -0.0487
17195W        W30609  16.157   0.818  12.481  0.0784  0.0352 -0.0738
17196W        W30610  15.184  15.902   1.526 -0.0113 -0.0616  0.0913
17197W        W30611   6.162  10.027  12.646  0.1030  0.0916  0.1059
17198W        W30612  17.075   5.016   1.577  0.0816  0.1334  0.1749
17199W        W30613  17.774   6.635  13.212  0.2271 -0.3046  0.4869
17200W        W30614   7.413  17.139  16.350  0.3740  0.0793  0.2935
17201W        W30615  12.502   4.890   4.633 -0.0201  0.0987 -0.0186
17202W        W30616   9.429   7.057  11.373  0.0857 -0.1498 -0.0294
17203W        W30617   0.729  17.198  13.388 -0.1068 -0.1407  0.1498
17204W        W30618   7.529  17.299   3.419  0.2287 -0.0237 -0.0832
17205W        W30619   0.260  13.350  14.932 -0.0453 -0.0576 -0.1895
17206W        W30620  14.544   2.045  11.020  0.0883 -0.0468  0.1665
17207W        W30621  12.697  11.860   2.538  0.1078 -0.1627 -0.1858
17208W        W30622   5.195  10.844  11.354  0.3504  0.0710  0.2856
17209W        W30623   5.453   5.153   2.464  0.1166 -0.4447  0.2551
17210W        W30624   2.954   0.063   4.781 -0.0813  0.0516 -0.1370
17211W        W30625   0.265   8.598  11.309 -0.4259  0.0394 -0.0964
17212W        W30626  11.040   0.804  11.403  0.1224 -0.1885 -0.0019
17213W        W30627  12.663  12.322   0.724 -0.1005  0.1773  0.1823
17214W        W30628   9.807  16.188  12.852 -0.3602  0.0596  0.2216
17215W        W30629   1.537   6.159  10.914 -0.1399  0.0502  0.1509
17216W        W30630  11.321  14.671  12.922 -0.3017  0.1651 -0.1797
17217W        W30631  17.803  13.868  13.041  0.1773  0.0500 -0.0885
17218W        W30632   5.504  12.871  12.609  0.0850 -0.0756 -0.0829
17219W        W30633   5.714  17.960  15.964 -0.0629  0.0451 -0.1006
17220W        W30634   7.991  16.514  15.108  0.1127 -0.0334  0.2440
17221W        W30635  16.459   9.403   2.460 -0.0261  0.3574 -0.0764
17222W        W30636  13.951  11.736   1.085 -0.2435 -0.2522 -0.0700
17223W        W30637  18.042  14.351  11.925 -0.2407 -0.1559 -0.1237
17224W        W30638   8.740   5.361  15.912 -0.2435  0.4515 -0.3030
17225W        W30639  16.508  17.577  12.798  0.2776  0.0390 -0.1879
17226W        W30640  14.621  18.322   4.508 -0.0159  0.0959  0.2334
17227W        W30641   4.774  10.043   5.116  0.0807  0.1877  0.3341
17228W        W30642   2.285  12.186   3.201  0.0999  0.0100 -0.0141
17229W        W30643  18.115   7.780   4.866  0.2757  0.1252  0.3039
17230W        W30644  13.486   9.693   2.774 -0.0593 -0.1041  0.1305
17231W        W30645   8.695   8.850  11.991 -0.0601  0.4354  0.0405
17232W        W30646   5.603  10.175  15.150  0.2231 -0.2162 -0.3011
17233W        W30647  11.337   9.329  13.874  0.0161 -0.1615  0.3767
17234W        W30648  12.835   9.216  15.212  0.0790 -0.1466 -0.2720
17235W        W30649   3.138   9.287   5.048  0.2450 -0.0991 -0.4270
17236W        W30650   9.459   4.010   4.595 -0.0255 -0.2642  0.0331
17237W        W30651  10.361  11.871  16.333  0.0168  0.1478 -0.2147
17238W        W30652   1.367   7.379  14.301 -0.1574  0.2104  0.1503
17239W        W30653  13.873   2.179   1.449  0.2594 -0.3277  0.1757
17240W        W30654   0.498   7.388  14.431  0.2301  0.0930 -0.0896
17241W        W30655  11.615   3.328   2.931 -0.0364 -0.0057  0.0234
17242W        W30656  14.255  12.173   6.778  0.1248 -0.0100  0.0113
17243W        W30657   8.232  16.758  10.125 -0.0814  0.1274  0.2896
17244W        W30658  17.449   5.543  11.753 -0.1713 -0.1532  0.1772
17245W        W30659   3.198  15.699   1.358 -0.0295  0.2520  0.2479
17246W        W30660  11.463   7.708   4.334 -0.2858 -0.3254 -0.3721
17247W        W30661  17.613   8.006  15.938 -0.2119  0.2434 -0.3794
17248W        W30662   2.306   2.874   4.663 -0.1709  0.2306  0.1489
17249W        W30663  11.146   5.317   1.508 -0.0215 -0.0811  0.2529
17250W        W30664   7.734  15.703  11.311  0.1044  0.1071  0.2733
17251W        W30665  13.240   9.849  16.060 -0.0008  0.0871 -0.2543
17252W        W30666  15.020   2.650  14.801 -0.0181 -0.3587  0.1264
17253W        W30667  16.101  13.701   2.277  0.1532 -0.0173 -0.2354
17254W        W30668  13.464  17.837  13.422 -0.1771  0.2022  0.1091
17255W        W30669   9.431   1.856   1.952 -0.0060 -0.0919 -0.1163
17256W        W30670   7.960  11.544  15.922  0.0480 -0.1989 -0.2415
17257W        W30671  13.408   8.906  10.378 -0.1295  0.3785 -0.2074
17258W        W30672  11.089  16.001  15.131 -0.1388  0.1121  0.1231
17259W        W30673   4.798   1.685  13.428  0.0774 -0.0711 -0.1730
17260W        W30674   9.928  15.893  14.297  0.1132  0.2495 -0.3185
17261W        W30675   9.532   2.555  10.636  0.0432  0.1558 -0.0574
17262W        W30676  17.094  13.649   1.601  0.0490  0.0204 -0.0805
17263W        W30677  17.508   4.301   0.776  0.1357 -0.1743  0.0611
17264W        W30678   8.736   3.447   2.894 -0.1330  0.0466 -0.0907
17265W        W30679   1.563  18.095   0.791  0.1634  0.1812  0.0622
17266W        W30680  14.630   6.138   1.103 -0.2635  0.0820  0.1122
17267W        W30681  14.965   7.860  10.920  0.0799  0.2283 -0.0360
17268W        W30682  12.279   0.333   1.600 -0.0914 -0.1034 -0.3883
17269W        W30683  11.068  17.172   1.412 -0.0488  0.0567 -0.0338
17270W        W30684   1.398   4.192   4.242  0.0918  0.2142 -0.0048
17271W        W30685   5.655  13.755   3.527 -0.0402 -0.1249  0.1579
17272W        W30686   7.444   4.082  13.585  0.0143 -0.1468  0.0039
17273W        W30687  10.918  16.843  16.134 -0.1624 -0.2954 -0.1322
17274W        W30688   5.124  12.877   0.033  0.1018  0.0805  0.0209
17275W        W30689  13.945   4.404  15.518  0.0989  0.0124  0.1355
17276W        W30690  12.594   9.236  13.779  0.2009 -0.3167  0.0071
17277W        W30691   7.422  15.561  11.733 -0.1172 -0.1117  0.0795
17278W        W30692   5.003  12.082   3.105  0.0871 -0.2891 -0.0468
17279W        W30693  15.033   5.196  12.799 -0.3912  0.2158  0.2071
17280W        W30694   6.604  12.404  15.327 -0.0225  0.2324 -0.2255
17281W        W30695  10.672  16.356  14.030 -0.2725 -0.1968  0.1617
17282W        W30696   6.753  15.060   2.383  0.0488  0.3520 -0.3892
17283W        W30697   3.156  13.260   1.961  0.0680 -0.0963  0.1954
17284W        W30698  16.897   4.078  12.818 -0.4074  0.1671  0.2515
17285W        W30699   7.811   0.242  11.202  0.0269 -0.1809  0.2424
17286W        W30700  17.369   7.083   1.862  0.0673 -0.1529 -0.0751
17287W        W30701   6.374  14.824   0.762  0.2358 -0.2448  0.0192
17288W        W30702  11.269   2.151  11.950 -0.2373 -0.3392 -0.2047
17289W        W30703  17.247   0.956   3.227  0.0967  0.2652 -0.2949
17290W        W30704  14.922   9.141  13.805 -0.2817 -0.0159  0.0284
17291W        W30705  13.241   4.342   2.180 -0.2980  0.0712  0.0836
17292W        W30706  11.569   9.537  10.872  0.1849 -0.1362 -0.2809
17293W        W30707  13.479   6.772  15.960  0.0588  0.1994  0.0594
17294W        W30708   2.733  10.864  13.209  0.0488  0.2275 -0.1694
17295W        W30709   1.406   7.525   3.402 -0.1343  0.1989 -0.2686
17296W        W30710  15.652  11.091  15.306 -0.2516  0.0618  0.0508
17297W        W30711  15.996  13.341   0.117 -0.1249  0.2779 -0.1914
17298W        W30712   4.097   7.966  10.677  0.0209  0.0955  0.2255
17299W        W30713  10.667   9.722   3.148 -0.1800 -0.0073  0.1438
17300W        W30714  11.878   2.287   1.672 -0.0781  0.1469 -0.1158
17301W        W30715   6.716   8.811   3.182 -0.2437  0.4576  0.1501
17302W        W30716   0.535  18.027   4.126  0.1950  0.1204 -0.0748
17303W        W30717  12.778   8.521  10.981 -0.1070  0.2655  0.0795
17304W        W30718   1.059   0.159   3.620  0.0580 -0.2806 -0.1774
17305W        W30719  11.586   4.802  12.219  0.2540  0.1241  0.3018
17306W        W30720  17.996   1.137  12.518  0.1144 -0.1592  0.0192
17307W        W30721  12.086   1.125   3.287 -0.2325  0.1407 -0.0432
17308W        W30722   6.918  11.319  13.142  0.1795 -0.1342  0.0454
17309W        W30723  10.277   1.643  13.537 -0.0878 -0.1567 -0.2547
17310W        W30724  10.488   7.356  14.018  0.1649  0.5270 -0.1537
17311W        W30725  12.719   3.057  11.270 -0.2668 -0.1548  0.0194
17312W        W30726  16.923   4.953  11.609  0.0650  0.0311  0.0066
17313W        W30727   8.284  11.908   3.857  0.4835  0.0424 -0.0475
17314W        W30728  16.438  16.873  15.321 -0.0045 -0.2371 -0.0433
17315W        W30729   9.990   4.670   1.603  0.0796  0.3460 -0.0842
17316W        W30730   8.288   1.457  12.070  0.2410 -0.2720 -0.0551
17317W        W30731  12.999   0.599   0.288  0.1012 -0.2869 -0.1749
17318W        W30732  14.843   6.810  16.280 -0.1757  0.0390  0.3666
17319W        W30733  12.277  13.522   4.385 -0.6661 -0.2418 -0.0354
17320W        W30734  12.123   2.887  12.454 -0.1715  0.0812 -0.1372
17321W        W30735  14.887  17.272   3.313  0.0110  0.0870 -0.0284
17322W        W30736  17.246   2.624   3.509  0.0848  0.1524  0.0438
17323W        W30737   8.361   1.184  14.320 -0.0833 -0.1869  0.2985
17324W        W30738   2.127  16.415  10.885 -0.2580  0.2024 -0.0705
17325W        W30739  10.504   9.868   2.179 -0.0439  0.0374 -0.3302
17326W        W30740  10.751  11.940  13.543 -0.1773 -0.1141 -0.4895
17327W        W30741  12.869  10.677  10.698 -0.0769  0.3495  0.2897
17328W        W30742   9.678   2.513  12.557 -0.1379 -0.2038  0.1250
17329W        W30743   5.282  11.840  12.005 -0.0214  0.0105 -0.2212
17330W        W30744  12.861   3.270  14.360 -0.1313 -0.1975  0.0006
17331W        W30745  17.509  11.513  12.008  0.2493 -0.3118  0.0346
17332W        W30746  17.297   4.384   2.842 -0.0431  0.3182 -0.1368
17333W        W30747   7.910   7.991  12.870 -0.0705  0.1083  0.2030
17334W        W30748  17.754   4.503  11.290  0.0541 -0.0128 -0.1242
17335W        W30749  12.270   6.981  14.088 -0.1094  0.1315 -0.2062
17336W        W30750  18.146  15.144   6.404  0.0731 -0.1697 -0.0596
17337W        W30751  14.586  15.028  16.409  0.0032  0.2498  0.3551
17338W        W30752   5.522  15.916   3.106  0.0026  0.0369 -0.2971
17339W        W30753  11.482   4.854  11.225 -0.1627 -0.2927  0.1096
17340W        W30754  17.377   9.347  10.578  0.1149 -0.3212 -0.1869
17341W        W30755   3.600  11.138  15.744 -0.0413  0.0499  0.3102
17342W        W30756  16.268  18.065  11.985  0.0961 -0.2193  0.0447
17343W        W30757  15.612  10.678   1.014  0.0542  0.3197 -0.1109
17344W        W30758   8.291   9.223   4.923  0.1466 -0.0865 -0.0600
17345W        W30759   3.511   6.259   6.044  0.1586 -0.1279 -0.2067
17346W        W30760   2.882  12.310  14.010 -0.1654 -0.0712  0.1811
17347W        W30761  12.767   6.027   0.024 -0.0648 -0.1101 -0.4113
17348W        W30762   9.436  15.283  12.427  0.4278  0.1296  0.3950
17349W        W30763   0.819  16.140   1.572  0.1405  0.2156 -0.1522
17350W        W30764  17.818   7.130   2.601  0.0403  0.0235  0.1312
17351W        W30765   2.464   1.310   0.192 -0.0007  0.1104 -0.2670
17352W        W30766  16.623   9.235   1.035  0.0130 -0.1014  0.3767
17353W        W30767   8.934  16.794  15.904  0.2946  0.0143  0.2824
17354W        W30768   7.758   0.753  13.201  0.0654  0.2138  0.2109
17355W        W30769  11.416   5.711   5.340 -0.2481  0.2132  0.0336
17356W        W30770   2.642   5.789  12.806 -0.2954  0.1754 -0.0421
17357W        W30771  13.661   4.602  11.151 -0.1197  0.2177 -0.1344
17358W        W30772   4.024  14.704  14.997 -0.1277  0.0788  0.0699
17359W        W30773  18.299   0.618  12.231 -0.1501 -0.3829 -0.1586
17360W        W30774   8.924  14.388   1.999  0.1762 -0.1561 -0.0365
17361W        W30775   7.268   3.393  16.412 -0.0242 -0.0068 -0.1689
17362W        W30776  13.656   7.266  13.368  0.1347  0.1153 -0.0541
17363W        W30777  10.055   0.102   5.695  0.0681 -0.0794 -0.3573
17364W        W30778   6.424  14.951  12.163  0.1646 -0.1220  0.2288
17365W        W30779  10.791   9.112   4.516 -0.0107  0.0164  0.1711
17366W        W30780  14.736   7.056  12.310  0.0167 -0.0411  0.0471
17367W        W30781   5.667  15.255   5.390  0.0008 -0.1230 -0.3021
17368W        W30782   2.246  17.690  16.230  0.0540  0.3509  0.0296
17369W        W30783  16.751   2.248   3.210 -0.5035  0.1209  0.0468
17370W        W30784   9.445   3.386  12.363  0.0869 -0.0632  0.3712
17371W        W30785  11.583  10.466   9.866 -0.2322  0.5211 -0.0925
17372W        W30786   9.664   1.522  16.299 -0.0570  0.0742  0.0559
17373W        W30787  17.469  11.501   3.327 -0.0880  0.1201  0.0675
17374W        W30788   4.405  12.713  16.115  0.0084 -0.3275 -0.2155
17375W        W30789   7.725  10.070   1.751  0.3780 -0.4087  0.2539
17376W        W30790  17.902   5.581   2.568 -0.2862  0.1659  0.1129
17377W        W30791   9.438   4.443   5.122  0.2450 -0.0902  0.1426
17378W        W30792  17.169  16.769   1.371 -0.1535  0.3877 -0.0132
17379W        W30793   3.874   1.852  14.957 -0.2014  0.3704  0.1560
17380W        W30794  16.994  10.743  16.092  0.0342  0.2460 -0.0850
17381W        W30795   5.439   6.781   5.106  0.3241  0.0248  0.0770
17382W        W30796   9.789   8.065  14.252 -0.1257 -0.3305  0.0585
17383W        W30797   5.873   3.579   1.249 -0.0446  0.1873 -0.1266
17384W        W30798  13.865  15.974   5.824  0.0196 -0.0494  0.0185
17385W        W30799   5.325   6.702  13.013 -0.2309 -0.1161 -0.0573
17386W        W30800   2.569  12.753  15.888 -0.0026 -0.3466  0.3152
17387W        W30801   9.658   5.983   1.769 -0.1435  0.4128 -0.2053
17388W        W30802   1.951   7.043  15.796 -0.0589 -0.0034  0.2141
17389W        W30803   1.702   3.700  13.907 -0.1419  0.0259  0.0293
17390W        W30804  12.397  16.386   4.889  0.0130 -0.1931  0.0711
17391W        W30805  13.320  15.820  11.159 -0.1753 -0.1122 -0.0574
17392W        W30806   2.936   2.721  16.166 -0.0797 -0.1700  0.0094
17393W        W30807  11.465   5.654  10.827  0.1483 -0.2612 -0.0698
17394W        W30808   7.487  18.128   0.132  0.0535  0.2602  0.0442
17395W        W30809  17.469  13.029  13.623  0.0485 -0.3943 -0.0839
17396W        W30810   8.670   3.490   1.524 -0.1226  0.3467 -0.0468
17397W        W30811   8.673   4.249  15.896  0.2726  0.0503 -0.0845
17398W        W30812   1.915  15.553  14.604  0.0753 -0.2132 -0.1464
17399W        W30813   2.152   8.583  11.631 -0.2230  0.1083  0.2296
17400W        W30814  10.943   4.213  11.183  0.1334  0.0088  0.1042
17401W        W30815  12.593   4.601  13.858 -0.3969 -0.2129 -0.0715
17402W        W30816  17.396   1.663   1.232  0.2883 -0.1049  0.1672
17403W        W30817   6.131   8.050   2.591  0.0066  0.5196  0.4165
17404W        W30818   9.716  14.998  15.226  0.0402 -0.0141  0.2962
17405W        W30819   3.101   4.246   3.656 -0.1991  0.2549 -0.1494
17406W        W30820   1.132   2.728   0.485  0.0488 -0.1229  0.0963
17407W        W30821  16.288  11.260  11.336 -0.0273 -0.0730 -0.0460
17408W        W30822   6.946  10.869   2.693  0.2469 -0.0733  0.0623
17409W        W30823  10.071   6.799  12.830  0.2783 -0.4842 -0.0358
17410W        W30824  10.442   4.350   4.290  0.3490  0.1323 -0.2930
17411W        W30825  12.854  13.760   2.377  0.0513  0.1547 -0.3547
17412W        W30826  10.365  14.525   3.488  0.0650 -0.0501 -0.0461
17413W        W30827  13.283   3.009  15.843 -0.2204 -0.0799 -0.2866
17414W        W30828   5.213   2.857  14.267  0.0995  0.1688 -0.1618
17415W        W30829  12.279   9.881  16.336  0.0131 -0.0817  0.0352
17416W        W30830   1.553   9.387  15.652  0.4117  0.1742  0.4465
17417W        W30831   2.275   5.663  10.985 -0.2149 -0.0071  0.1793
17418W        W30832   4.671  13.665  13.933 -0.0835  0.1897  0.0270
17419W        W30833   3.747  15.276   5.192  0.0605 -0.2655  0.3539
17420W        W30834   8.227  13.334  14.024  0.0561  0.0024  0.2520
17421W        W30835  13.196   8.451   0.859  0.3824 -0.2267  0.1636
17422W        W30836   4.589   2.677   6.014 -0.2231 -0.5056 -0.1727
17423W        W30837  17.347   3.947  12.599 -0.0705 -0.2309  0.0245
17424W        W30838  16.395  15.489   0.376 -0.1475  0.1009  0.2275
17425W        W30839   8.776   8.384  16.244  0.1490  0.0307 -0.1434
17426W        W30840   2.748   0.113   5.342 -0.2947 -0.4070 -0.0435
17427W        W30841   0.658  12.163  16.326  0.0594  0.0109  0.0733
17428W        W30842   5.201   2.402  12.311 -0.0709 -0.2478  0.0097
17429W        W30843  12.617  11.658   4.780  0.0789 -0.0907  0.0629
17430W        W30844  16.338  12.288  14.831 -0.0381 -0.1397  0.0574
17431W        W30845  11.331  15.201  13.978  0.2191 -0.1901  0.2075
17432W        W30846  12.098   9.815   1.937 -0.1448 -0.2068  0.2290
17433W        W30847   0.051   7.038  10.323  0.0770 -0.2323  0.1967
17434W        W30848  15.644  12.046   1.188  0.0756 -0.0444 -0.0256
17435W        W30849   7.011   8.603   4.675 -0.1164 -0.0382  0.0689
17436W        W30850  17.427  17.886  13.207 -0.2552  0.0676 -0.1645
17437W        W30851  14.549  18.014  12.161 -0.0923 -0.0809 -0.1235
17438W        W30852  12.044   4.746  12.039 -0.0822  0.2141  0.4208
17439W        W30853   3.174   5.076   1.184 -0.0943  0.1475 -0.0786
17440W        W30854  10.380   6.119   2.368  0.3077 -0.1704  0.0863
17441W        W30855  13.833   9.021   0.244  0.2167  0.2338 -0.2232
17442W        W30856  10.526   8.911  10.745  0.1384 -0.0503  0.2512
17443W        W30857   7.749  15.934  13.264 -0.1156 -0.0151  0.1592
17444W        W30858  15.114   6.675  12.466  0.2535 -0.0988  0.4696
17445W        W30859  18.126   1.995  15.393  0.0564  0.1779 -0.0536
17446W        W30860  12.454  16.454   0.134  0.1120 -0.2321  0.0997
17447W        W30861  16.298   0.440  14.093 -0.3464  0.2474  0.2479
17448W        W30862  16.984  15.804   6.276  0.0412  0.0256  0.1296
17449W        W30863   6.971   4.076   4.394 -0.0373  0.1569  0.1465
17450W        W30864   4.567   7.162  11.951  0.2022 -0.0772  0.1130
17451W        W30865  14.650  12.280   2.757 -0.0542  0.3136  0.0832
17452W        W30866   4.756  17.708   1.716  0.3199 -0.1402 -0.0829
17453W        W30867   2.254   5.672   3.262  0.0706 -0.1759 -0.0194
17454W        W30868   7.286   4.068  10.195 -0.1390 -0.0244 -0.0047
17455W        W30869  10.389  12.366   1.593 -0.0268  0.2406  0.3849
17456W        W30870   5.228   8.690   9.606 -0.0308 -0.0223 -0.0328
17457W        W30871  13.332  10.682   5.867  0.0982 -0.0249 -0.2877
17458W        W30872  14.981   6.658  10.500  0.0517 -0.0166 -0.2504
17459W        W30873  15.584   4.688   5.332  0.0622 -0.3396 -0.3432
17460W        W30874  14.679   6.797   0.281  0.4429 -0.0563 -0.0824
17461W        W30875  15.822   1.964  13.047  0.0705  0.0376 -0.1311
17462W        W30876   7.356  15.278   3.355  0.1142 -0.0788  0.2432
17463W        W30877  17.323   5.866  12.544 -0.0485  0.0656 -0.1844
17464W        W30878  12.605  11.334   2.669 -0.3064  0.1508 -0.0699
17465W        W30879   5.187   4.402   5.235 -0.2580  0.0852 -0.1063
17466W        W30880  10.164   2.993  11.306  0.2761 -0.1026 -0.0235
17467W        W30881  18.240  17.174  14.373  0.0126 -0.4197 -0.4734
17468W        W30882   2.478   1.835  12.621 -0.0911 -0.0381 -0.3446
17469W        W30883   8.071  11.905   1.805  0.2456 -0.0006 -0.0945
17470W        W30884  11.703  17.176  11.256  0.0452 -0.0661 -0.2320
17471W        W30885  17.567   8.181   0.517 -0.2478  0.2054  0.2038
17472W        W30886  16.767  16.201  11.425 -0.1789  0.0460 -0.0538
17473W        W30887  14.330  12.551  13.147  0.0018  0.0742 -0.3477
17474W        W30888   9.709  12.196  10.723 -0.1644 -0.0307 -0.0070
17475W        W30889   2.552   4.527  11.375  0.1612  0.0964 -0.6218
17476W        W30890   5.771   4.337  10.678  0.0270 -0.3552 -0.0116
17477W        W30891   9.658  17.267  13.744  0.1191 -0.4436  0.0442
17478W        W30892  17.378   6.023  15.303 -0.1689  0.0249  0.0510
17479W        W30893   6.332  18.282  16.502 -0.2918 -0.1681 -0.0582
17480W        W30894   0.555  15.935   4.464  0.0782 -0.1895  0.2201
17481W        W30895   4.714   3.108  10.276 -0.1362 -0.2925 -0.3457
17482W        W30896  13.529   4.536  13.579  0.3155  0.2021 -0.1896
17483W        W30897   5.383  16.891   3.888  0.0125 -0.0185  0.2006
17484W        W30898  13.370  14.316  14.838  0.2795  0.2268  0.0356
17485W        W30899   8.760  18.185  13.596 -0.0289 -0.1262  0.1944
17486W        W30900   0.293  12.308   4.518 -0.0945 -0.0839 -0.0251
17487W        W30901  18.121   4.901  13.443  0.0970 -0.1748 -0.0835
17488W        W30902  11.994   5.899   1.265 -0.0485  0.1029 -0.0370
17489W        W30903   2.432   0.082  13.776  0.1582 -0.1455  0.2257
17490W        W30904  12.364   6.026  12.017  0.1214  0.1319 -0.1367
17491W        W30905   5.601   0.382   0.408 -0.2096  0.1701  0.0372
17492W        W30906   8.190   5.368  13.650 -0.1956 -0.0130  0.3217
17493W        W30907  12.188   4.614   1.762 -0.2119 -0.2150  0.1784
17494W        W30908   3.990  11.141  13.772 -0.3772 -0.0860  0.0953
17495W        W30909   1.396   6.418   0.228  0.0244  0.0418  0.0770
17496W        W30910   7.934  17.042   3.399 -0.1861  0.2143 -0.1903
17497W        W30911   5.636   2.134  12.429  0.1090 -0.1672 -0.1399
17498W        W30912   6.363   9.770  11.088 -0.1649 -0.1369 -0.2039
17499W        W30913  16.336   9.501  12.139 -0.1146 -0.1076  0.2071
17500W        W30914   5.966   1.777   3.310 -0.2993  0.4121 -0.2247
17501W        W30915  12.925   7.993   0.933 -0.0923  0.0223  0.3622
17502W        W30916  14.572   1.335  15.111 -0.0539  0.0441 -0.0530
17503W        W30917   8.664  13.163  16.458 -0.2574  0.0865 -0.2421
17504W        W30918  17.108   4.655   1.064  0.1556 -0.0395 -0.3726
17505W        W30919  12.949   2.972   3.275 -0.0589 -0.1354  0.0890
17506W        W30920  18.341   8.855   4.533  0.1063  0.2003  0.2079
17507W        W30921  14.561   5.628   9.592 -0.0082  0.0020 -0.3245
17508W        W30922  11.267   6.933   5.860  0.4032  0.3436  0.0530
17509W        W30923   5.808   8.276  14.005 -0.0063  0.1821  0.3080
17510W        W30924  14.710   4.500  14.143  0.2030  0.0026 -0.2965
17511W        W30925  12.029   9.330   2.165  0.1160 -0.0216  0.1931
17512W        W30926   0.845   0.274  15.103  0.0025 -0.3489  0.4437
17513W        W30927  11.647  10.540  10.416  0.1491  0.0015 -0.0233
17514W        W30928  17.021  14.378   3.070  0.4139 -0.0520  0.1638
17515W        W30929   3.103   1.765   4.822 -0.1027 -0.3096  0.5094
17516W        W30930  15.725   7.118  15.171 -0.0722 -0.2065  0.2254
17517W        W30931   8.184  10.257   2.702  0.0691 -0.0127  0.1247
17518W        W30932  14.488  14.639   0.209  0.0608  0.4030 -0.1014
17519W        W30933   7.713   0.896   3.303 -0.0151  0.1331  0.3671
17520W        W30934  10.439   0.589  12.015  0.1524 -0.0766  0.3929
17521W        W30935   4.672   3.761  15.318 -0.1715 -0.0127  0.0194
17522W        W30936   6.738   8.118   1.264 -0.0782 -0.5004  0.0632
17523W        W30937  14.848   9.759   1.649  0.0659  0.0748  0.2852
17524W        W30938  14.144   2.388   4.354  0.2042  0.1985 -0.1357
17525W        W30939   7.971  17.817  14.456 -0.1874 -0.1268 -0.1059
17526W        W30940  15.754   9.003  13.334  0.3000 -0.0684 -0.1296
17527W        W30941   0.322   5.954   3.245  0.1058 -0.0813 -0.1256
17528W        W30942  16.818   8.708  13.786 -0.0596 -0.0335  0.0750
17529W        W30943  12.392   6.615   1.051  0.2320  0.0463  0.0890
17530W        W30944   8.042   9.508   2.876 -0.1519 -0.1930  0.1157
17531W        W30945  11.203   8.635  10.994  0.0367  0.4034  0.2004
17532W        W30946   8.163   5.725  13.360  0.2890  0.0500 -0.0406
17533W        W30947   9.058   5.589   0.379  0.0177  0.3067  0.1253
17534W        W30948   7.936   1.016   4.258 -0.2105 -0.0247  0.0761
17535W        W30949   4.696   7.184  14.477 -0.1251  0.0307  0.0694
17536W        W30950  13.677   3.762  10.615 -0.1692  0.1634 -0.4369
17537W        W30951   0.645  17.089  14.962 -0.1108  0.0543  0.1262
17538W        W30952   2.339   2.958   3.119 -0.2005 -0.0077 -0.1336
17539W        W30953   8.567  11.977   0.600  0.0025  0.0940 -0.1138
17540W        W30954  13.188   3.451   1.901  0.2726  0.1213  0.3197
17541W        W30955  16.043   6.501   4.048  0.1311 -0.1925 -0.0108
17542W        W30956  11.924  14.294   3.161  0.3256  0.0646  0.0340
17543W        W30957   2.253  10.521   3.184 -0.0134  0.3094 -0.0944
17544W        W30958   3.236   8.346  16.274 -0.2155 -0.0587 -0.0719
17545W        W30959   3.119  17.470  14.954 -0.3532 -0.0310 -0.0308
17546W        W30960  11.582   4.469  13.968 -0.1792 -0.1162  0.2774
17547W        W30961  11.255   1.234  12.279  0.2278  0.1171 -0.0952
17548W        W30962   0.331   8.509   4.899  0.0283 -0.0449 -0.1604
17549W        W30963   9.803  16.551  16.275 -0.0575  0.3375  0.3112
17550W        W30964  18.004   3.109  16.045  0.6135  0.0759 -0.0958
17551W        W30965  11.342  11.867   2.919 -0.0381  0.1110  0.2699
17552W        W30966  12.517  17.124  14.464  0.0900 -0.3828 -0.1954
17553W        W30967   4.482  17.951  15.961  0.0525  0.0431  0.1955
17554W        W30968   6.029   5.881   0.858 -0.0354 -0.1289 -0.1818
17555W        W30969  17.341  15.936   0.350  0.0670  0.0826  0.3540
17556W        W30970  12.812  16.564  13.023 -0.1195  0.2069  0.0965
17557W        W30971   0.234   0.591   5.650 -0.1782 -0.1557 -0.2180
17558W        W30972   8.009  12.009  10.234 -0.2353 -0.1025  0.0052
17559W        W30973  17.017  17.756  12.709 -0.0497  0.0514  0.2875
17560W        W30974   4.630  10.933   1.665  0.1126  0.1709  0.1423
17561W        W30975  14.271  18.025   1.105  0.1434  0.0043 -0.0111
17562W        W30976   9.160   5.095   3.030 -0.0492  0.0138  0.0137
17563W        W30977   7.111   0.423   1.851  0.0116  0.4115  0.1530
17564W        W30978   6.941  12.650  15.647 -0.2437  0.0870  0.0354
17565W        W30979   8.627  10.591   2.464  0.0554 -0.1731  0.3278
17566W        W30980  10.000   1.854  12.639 -0.0069  0.0043 -0.1741
17567W        W30981  16.806   5.518   0.110  0.0860  0.2683  0.1462
17568W        W30982   2.426   1.867  15.170 -0.1550 -0.0605 -0.0100
17569W        W30983   3.486   3.682  11.851  0.0211  0.3266  0.0249
17570W        W30984  12.253  12.590  14.792  0.1537  0.2921 -0.0822
17571W        W30985   7.484   2.172  15.198 -0.1189 -0.2447 -0.2140
17572W        W30986   2.069  15.316   3.369  0.0092 -0.0258  0.0418
17573W        W30987  12.974  16.302  13.985  0.3108  0.0904  0.0012
17574W        W30988   9.019   2.834  10.471 -0.3184  0.0733 -0.5533
17575W        W30989  12.616   9.689   0.169 -0.2146 -0.0629  0.2258
17576W        W30990   9.638  15.495  14.113  0.1301 -0.1181  0.0110
17577W        W30991  13.595  13.281  12.177  0.1053 -0.0508  0.1955
17578W        W30992   5.947   4.774   5.000  0.1459 -0.0031  0.0503
17579W        W30993   1.618   1.384  15.351  0.0055  0.0105  0.0193
17580W        W30994  15.534   9.476  12.894  0.0323  0.2238  0.0430
17581W        W30995   5.571   6.968   2.549 -0.0814  0.2036  0.1149
17582W        W30996   8.559  10.489  15.243 -0.2861  0.1487 -0.1759
17583W        W30997   9.038  17.700   1.220  0.0897  0.0453  0.3118
17584W        W30998  14.985  11.540   2.672  0.0978 -0.2069  0.3243
17585W        W30999  10.612  15.257  12.462  0.1393  0.1747  0.2395
17586W        W31000   8.095  10.456  15.394 -0.1094 -0.1130 -0.1434
17587W        W31001   5.069   7.747  12.604  0.0223  0.3722 -0.1368
17588W        W31002   2.228   4.428  15.929 -0.1583  0.2220  0.0164
17589W        W31003  14.570   4.029  11.035 -0.0270  0.0877 -0.0298
17590W        W31004   5.295  13.481  13.328 -0.1480 -0.0082  0.2418
17591W        W31005   0.886   3.571  10.796  0.1772 -0.0154 -0.3227
17592W        W31006   7.055   3.016   1.043 -0.0861 -0.1802  0.0656
17593W        W31007  13.704  14.832   2.304  0.2030 -0.0102  0.0324
17594W        W31008   1.397   7.289   1.521  0.0718  0.1895 -0.0116
17595W        W31009  17.989  10.506  14.343 -0.0230 -0.1898  0.1422
17596W        W31010   7.221  14.845  12.685 -0.0674 -0.2187 -0.0420
17597W        W31011   8.033   1.432   2.260  0.0308 -0.2530 -0.0303
17598W        W31012  13.647   3.408   3.537 -0.1132  0.2839 -0.0893
17599W        W31013  17.575  16.505  14.315  0.0647 -0.4285  0.0551
17600W        W31014   8.308   7.847   4.938  0.0799  0.2444  0.0439
17601W        W31015   3.273  16.727  14.800  0.0049  0.1667 -0.2540
17602W        W31016   5.929   1.395  12.134  0.0113 -0.1183 -0.2469
17603W        W31017   5.678   4.270   1.603  0.4143  0.3275 -0.4066
17604W        W31018   1.658  15.523   7.165  0.0491 -0.0069  0.2320
17605W        W31019  11.228  15.024   4.105  0.0601 -0.0796 -0.2715
17606W        W31020   0.027  16.847  13.616 -0.2630  0.2984 -0.1250
17607W        W31021  18.368  12.129  12.440 -0.1239 -0.3183  0.1448
17608W        W31022   0.535   4.897  14.811 -0.0184 -0.5235 -0.0401
17609W        W31023  13.549   5.387  16.310 -0.0290  0.1258  0.0342
17610W        W31024  10.420   2.507   3.009 -0.1363  0.1962 -0.0839
17611W        W31025   4.008  13.909   5.997  0.0990 -0.1169  0.1091
17612W        W31026   4.297   5.222  11.753  0.1939  0.2484  0.3150
17613W        W31027   4.036  11.739  10.288 -0.1691 -0.1158  0.1093
17614W        W31028   8.939  17.611  10.745  0.3053 -0.0503 -0.5287
17615W        W31029  14.329   1.640   3.432  0.0606 -0.0064 -0.2208
17616W        W31030  10.549  10.471  12.390  0.1807 -0.1676  0.2496
17617W        W31031  16.168   2.929  11.447  0.1056 -0.3756  0.0555
17618W        W31032   3.270   3.922  12.423  0.0121 -0.2915 -0.0217
17619W        W31033   4.555   9.511   2.774  0.1433  0.0561  0.0395
17620W        W31034  11.880  10.433   2.920 -0.3403  0.0382  0.0793
17621W        W31035  17.306   4.069   0.374 -0.1561  0.1879  0.1814
17622W        W31036  10.964  12.339  13.143 -0.1526  0.0722  0.1689
17623W        W31037  16.448   8.382  15.942 -0.0741  0.2971 -0.0601
17624W        W31038  17.088  12.722  12.115 -0.0435  0.2989 -0.0036
17625W        W31039   5.610  16.134   4.458  0.2199 -0.1099  0.1666
17626W        W31040  14.129   7.760   9.901  0.2682 -0.0623 -0.0978
17627W        W31041   8.770   2.830  14.210  0.3692  0.1105  0.1430
17628W        W31042   9.499  11.523   5.525 -0.2801 -0.0471  0.3476
17629W        W31043   4.268  16.142  11.642 -0.2182  0.1081  0.3108
17630W        W31044   9.777  13.176   0.057 -0.2976  0.2838 -0.2969
17631W        W31045  15.394  16.967  14.012  0.1777 -0.2334  0.1721
17632W        W31046   7.567   9.216  15.326  0.0866 -0.3615  0.1882
17633W        W31047   2.256  10.054  13.161  0.1526 -0.0764 -0.1126
17634W        W31048  16.618   3.088  16.321 -0.0177  0.1477  0.0508
17635W        W31049  14.436  10.844  12.717 -0.1484 -0.1735 -0.1367
17636W        W31050  11.801  18.273  13.077  0.0931  0.2650 -0.0153
17637W        W31051   3.552  10.387  11.693 -0.1753  0.3199  0.0425
17638W        W31052   4.069  13.131   5.595  0.0240 -0.0216  0.0934
17639W        W31053   0.034  13.387  15.851 -0.0199  0.0747 -0.2077
17640W        W31054  14.747   0.711   4.976 -0.0273 -0.2928  0.1776
17641W        W31055   6.617  14.524  12.398 -0.0225  0.1454  0.2464
17642W        W31056  11.221  10.186   6.248  0.1508 -0.0475  0.3378
17643W        W31057  14.482   8.842   1.810 -0.1554  0.1753 -0.0567
17644W        W31058  13.738  12.508   4.991 -0.2016 -0.2335  0.0841
17645W        W31059   6.834  10.024   1.285 -0.1730  0.2589 -0.2788
17646W        W31060  18.026   2.036  12.526  0.1201 -0.3904  0.0189
17647W        W31061  17.908  11.364   1.430 -0.0557 -0.2609 -0.0382
17648W        W31062  14.343   3.411  11.960  0.1498 -0.2174 -0.0975
17649W        W31063  17.622   8.067  10.770  0.3442 -0.0493  0.1068
17650W        W31064   1.184   6.501  10.604 -0.0024 -0.1470  0.0080
17651W        W31065   0.709   0.756   4.793  0.0404  0.1665 -0.3431
17652W        W31066  10.702   6.918   4.820  0.2059 -0.0788 -0.3094
17653W        W31067   3.816  13.266  13.478 -0.2004  0.0906  0.3101
17654W        W31068   0.389   5.481   0.862 -0.0364 -0.1825  0.0957
17655W        W31069   2.593  17.241  10.897  0.2161  0.0996 -0.2091
17656W        W31070   2.662   7.681   4.820 -0.0368 -0.1790  0.2181
17657W        W31071   1.746  13.677   5.159  0.4931  0.1576 -0.1015
17658W        W31072  13.982  12.452   4.510 -0.0015 -0.1871  0.1597
17659W        W31073   6.408  11.141  11.698  0.1829  0.1687 -0.1774
17660W        W31074  17.665   4.984  13.544 -0.0166 -0.0379  0.1449
17661W        W31075   1.800  14.173  12.318  0.1631  0.1478 -0.0180
17662W        W31076  11.196   2.279   1.362 -0.2173 -0.0796  0.0625
17663W        W31077   7.187   2.229   3.491 -0.1951  0.1238  0.0152
17664W        W31078  16.902  16.499  12.033  0.0099 -0.1355  0.0984
17665W        W31079  11.621   2.502   1.310 -0.0505 -0.0664  0.0419
17666W        W31080  10.083   0.602  15.114 -0.0551 -0.0341  0.0147
17667W        W31081   5.989  15.030   0.533 -0.2173  0.1574 -0.1857
17668W        W31082   1.694  15.138  16.389 -0.3476 -0.1578  0.2364
17669W        W31083   0.730   8.020   3.635 -0.0209 -0.0916  0.0589
17670W        W31084  17.567   3.787   0.776 -0.0412  0.1155 -0.0663
17671W        W31085  10.887   6.817  14.867 -0.1695  0.2928  0.1621
17672W        W31086  17.278   1.305   2.401  0.2505  0.0855  0.0442
17673W        W31087   2.993   6.786  11.206 -0.0679 -0.1436 -0.0658
17674W        W31088   7.601   5.492   1.469  0.0711  0.0134 -0.0725
17675W        W31089   0.364   7.138   1.371 -0.0208  0.1485 -0.0121
17676W        W31090  17.389  15.278  12.500 -0.3223  0.1445 -0.0317
17677W        W31091  14.557   9.643   4.405 -0.1009 -0.1613  0.1841
17678W        W31092   4.670   2.237   2.534  0.2418  0.0873  0.2203
17679W        W31093   0.716  10.811   3.094  0.2337 -0.0368  0.0963
17680W        W31094   8.753   0.585  11.477  0.1134 -0.0326 -0.1895
17681W        W31095  14.633   8.875  14.643 -0.1195 -0.1441 -0.2011
17682W        W31096  10.883  18.059  13.199 -0.1817  0.0910  0.1187
17683W        W31097   2.928  12.889   0.197 -0.1759 -0.0908  0.0394
17684W        W31098  11.831   9.535   9.739 -0.0178 -0.1924  0.3326
17685W        W31099  10.901   7.311   5.087  0.1521 -0.1321 -0.0773
17686W        W31100   9.147  18.227  13.265 -0.0562 -0.1616 -0.1987
17687W        W31101  15.402   6.321   1.508  0.3442 -0.1423  0.0467
17688W        W31102  14.271  11.672   0.496 -0.2941  0.2510  0.0995
17689W        W31103  16.715  12.737   5.495  0.1304 -0.1814 -0.2435
17690W        W31104   1.599   3.776  10.186 -0.2584 -0.0994  0.1953
17691W        W31105  13.002   1.327   2.574  0.3738  0.3298 -0.0677
17692W        W31106   5.218   2.677   1.996 -0.1071  0.1941  0.0784
17693W        W31107   2.695  10.702   0.919  0.0203 -0.5491  0.1395
17694W        W31108  16.298  10.678  11.953 -0.0619 -0.0619  0.1116
17695W        W31109   8.053  10.345   5.484  0.1481  0.1202 -0.1417
17696W        W31110  11.951  10.426   3.415 -0.2530  0.3115  0.1214
17697W        W31111   1.853   9.558   6.397  0.2595 -0.4817 -0.0969
17698W        W31112  11.776  17.901  14.637 -0.2354 -0.0278 -0.4308
17699W        W31113  17.185   6.351  10.573  0.0018  0.0019 -0.4320
17700W        W31114  12.709  10.808  12.164 -0.0405 -0.1107 -0.0511
17701W        W31115  17.275  10.416  13.495  0.2549 -0.4014 -0.1150
17702W        W31116   3.729  13.831   2.530  0.1756  0.1040 -0.0842
17703W        W31117  18.000   0.107   2.431  0.2995  0.3132  0.3131
17704W        W31118  10.084   4.715   0.372  0.1099  0.0116  0.2064
17705W        W31119   8.776   9.644   4.414  0.0809  0.0748 -0.0606
17706W        W31120   5.993   5.580  15.872  0.2764 -0.0938  0.2825
17707W        W31121   6.372   5.237  12.154  0.0084 -0.0376  0.0130
17708W        W31122  10.894  14.177  13.805 -0.1180  0.0101 -0.0370
17709W        W31123   7.623  16.573   2.558  0.0758 -0.1334 -0.2365
17710W        W31124  14.348  12.223  10.577 -0.0181 -0.0752 -0.0474
17711W        W31125  12.875   7.182  15.449 -0.0136  0.1084  0.1413
17712W        W31126   0.612   0.830  16.476 -0.1079  0.0764  0.0628
17713W        W31127  18.139   3.082  11.208  0.0412 -0.1301  0.0552
17714W        W31128   4.951   3.421   3.798 -0.0421  0.2836 -0.2469
17715W        W31129   6.539   8.313  15.461  0.1292  0.1479  0.3563
17716W        W31130   3.849   2.597   1.936  0.1200  0.1332  0.0393
17717W        W31131   2.171   5.281  16.482 -0.0837  0.1494  0.2012
17718W        W31132  12.926  11.211  11.407  0.0096 -0.1023 -0.2075
17719W        W31133   6.268   4.138   6.188  0.1408 -0.0026  0.0661
17720W        W31134  11.640  10.998  14.997 -0.3033 -0.1435  0.2258
17721W        W31135  13.315   2.158   5.951  0.1886  0.0001  0.0361
17722W        W31136   9.778   3.095  12.669 -0.0393  0.0239 -0.3155
17723W        W31137   3.743  16.800  10.556  0.3166  0.0023 -0.1314
17724W        W31138   3.936   9.657   0.991  0.3946  0.0048 -0.0446
17725W        W31139  11.824   8.474  15.105 -0.2027  0.0487  0.0349
17726W        W31140   0.392   3.693  10.933 -0.0499  0.4191 -0.0098
17727W        W31141   5.674   3.800   2.468  0.2060 -0.0783 -0.2796
17728W        W31142   3.071  14.674  13.011 -0.0070  0.0709 -0.2684
17729W        W31143  15.153  13.379  15.273 -0.0351  0.0658  0.1492
17730W        W31144  11.147  17.234  13.861  0.1641  0.2144  0.1635
17731W        W31145   6.250  12.058  14.111 -0.0758 -0.2604 -0.1005
17732W        W31146   2.565  14.876  14.887  0.2611 -0.1149  0.1851
17733W        W31147   6.139  10.365   3.727  0.1384  0.1917 -0.2339
17734W        W31148   2.489   4.168  14.950  0.0384 -0.1243 -0.1494
17735W        W31149  11.908  12.662   5.414 -0.0325  0.2279  0.1813
17736W        W31150   8.362  15.495   1.340  0.0963 -0.2444  0.1755
17737W        W31151   1.852  15.717  13.551  0.2079  0.0248 -0.0079
17738W        W31152  17.070  15.385   7.015  0.1063 -0.4843  0.1617
17739W        W31153   9.431  17.867  11.427  0.0617 -0.1428 -0.2066
17740W        W31154   4.557   1.169   4.674  0.1099 -0.1383  0.0461
17741W        W31155   5.364   6.302   0.208  0.1533 -0.0081  0.0240
17742W        W31156   6.745   5.507  15.233 -0.0941 -0.0099  0.0271
17743W        W31157   9.229  17.554   1.842  0.1142 -0.2197 -0.1241
17744W        W31158   8.442   3.601  12.624 -0.0655  0.3731 -0.1599
17745W        W31159   2.026  10.693  15.307  0.1083  0.0333 -0.1985
17746W        W31160   3.238   9.842  11.229  0.3765 -0.3195 -0.2115
17747W        W31161  11.683   5.603   4.080  0.2250  0.1688  0.1652
17748W        W31162   9.341   5.355   2.555  0.2636 -0.0155  0.1121
17749W        W31163   8.878  13.368  15.296  0.3729 -0.0738  0.0390
17750W        W31164   5.060   8.753  16.242  0.2192 -0.1594 -0.2145
17751W        W31165   7.395   2.896  11.755  0.1862  0.1964  0.2496
17752W        W31166   4.714  11.583  13.887  0.0629  0.2185  0.1336
17753W        W31167   9.661   3.607   4.605 -0.1356 -0.0582  0.0401
17754W        W31168   9.229  11.935   0.622  0.0488 -0.0259  0.0393
17755W        W31169   1.633   7.725   1.605 -0.1488 -0.0199  0.2101
17756W        W31170  14.848   1.112  13.213 -0.1233 -0.1103  0.1822
17757W        W31171   2.493  11.961  10.213  0.3036  0.1423  0.1256
17758W        W31172   4.662   7.764   1.202  0.4136 -0.0867 -0.2360
17759W        W31173   6.496  14.456   5.675  0.5440 -0.1230  0.2302
17760W        W31174  17.011  15.328   0.960 -0.0734  0.1345 -0.0210
17761W        W31175  11.033   2.970  16.374 -0.1401 -0.1878  0.1416
17762W        W31176  14.794   4.179   1.884  0.1900  0.0182  0.1096
17763W        W31177   9.838  14.645   3.196 -0.0129 -0.0795 -0.0518
17764W        W31178   1.021  13.516   5.462  0.1068 -0.3231 -0.1882
17765W        W31179   0.300  17.410   6.543  0.0015 -0.1426  0.1333
17766W        W31180   5.548  10.098   0.987 -0.0459 -0.0573  0.0687
17767W        W31181  12.169  16.633  16.254  0.1557 -0.3733 -0.1360
17768W        W31182  13.816  16.186   1.760 -0.0468  0.0438  0.1074
17769W        W31183   9.779   4.148   0.840  0.2410  0.0840 -0.0864
17770W        W31184   2.529  13.118   6.227  0.1762  0.1227 -0.2657
17771W        W31185   3.793   2.505  16.395 -0.2061  0.0276  0.0616
17772W        W31186  15.044  14.289   1.367  0.2279  0.0768  0.0276
17773W        W31187  15.366   5.123  12.351  0.2092  0.4471  0.1549
17774W        W31188  17.639  15.029   5.345  0.2663  0.1819 -0.1354
17775W        W31189   4.169  17.613   5.534  0.2181  0.1805 -0.0851
17776W        W31190  11.127   2.527  13.884  0.0771  0.0156  0.1408
17777W        W31191   8.737  11.650   0.281 -0.3484  0.1880  0.0982
17778W        W31192   6.640  17.587   0.546 -0.3511  0.0052 -0.1197
17779W        W31193   9.916   9.124   0.463  0.1951 -0.2521 -0.4789
17780W        W31194   3.345  14.502  14.904  0.1951 -0.2017  0.3320
17781W        W31195  17.675  11.057   3.448 -0.0120  0.2221  0.0400
17782W        W31196   4.085   8.772   1.076 -0.2288 -0.2131  0.0376
17783W        W31197   7.012   4.709   5.105 -0.0743  0.0115 -0.2365
17784W        W31198   5.365  17.921   3.734 -0.3025  0.1051  0.0048
17785W        W31199   7.666   7.078  12.813  0.0536  0.0195  0.0666
17786W        W31200   7.834  16.966  16.421 -0.4303 -0.3451 -0.1457
17787W        W31201  14.477  10.714  14.087  0.0135  0.3427 -0.1224
17788W        W31202   5.570   3.504   4.656 -0.0856 -0.3348  0.3116
17789W        W31203  11.964   0.585   5.081 -0.0330  0.2766  0.2351
17790W        W31204   1.895  11.512  16.086 -0.0248  0.1330 -0.0863
17791W        W31205   6.926  14.683   2.869  0.0023 -0.1119 -0.0718
17792W        W31206   3.499   1.761   5.212  0.0798  0.1443  0.0170
17793W        W31207   2.101   0.106   0.705  0.1687  0.0731  0.0556
17794W        W31208   5.848   0.273  11.001  0.1490  0.2978  0.0618
17795W        W31209   4.834  16.497  12.521 -0.1472  0.1473 -0.0197
17796W        W31210  17.387  14.860   4.946 -0.1798 -0.3365  0.0655
17797W        W31211  15.811   4.111  16.136 -0.2622  0.2116  0.1343
17798W        W31212  15.784   8.061  13.316 -0.2502 -0.1390  0.0979
17799W        W31213  16.895  12.461   0.014 -0.0001  0.2177 -0.1184
17800W        W31214  11.190   8.465  12.795  0.1120  0.2558  0.3157
17801W        W31215   4.559   5.906  11.380 -0.0156  0.1428 -0.1576
17802W        W31216   5.391  11.470   2.700  0.1793 -0.2101  0.0633
17803W        W31217  16.520   8.871   5.340 -0.2040  0.0538  0.2847
17804W        W31218  16.110   4.550  14.662 -0.1972  0.0898 -0.0107
17805W        W31219   2.282   8.881  14.944 -0.1340 -0.1255 -0.1653
17806W        W31220  12.618  16.425   1.247 -0.2235  0.0050  0.1038
17807W        W31221  12.927   7.521   2.730  0.1319 -0.3288  0.3100
17808W        W31222  12.746   6.142  12.990 -0.2517 -0.0863 -0.0449
17809W        W31223   8.629  17.063   4.690  0.1394 -0.1253 -0.1285
17810W        W31224  17.921   8.272   3.514  0.0024 -0.3097  0.1872
17811W        W31225  12.141  11.788  12.822  0.0232 -0.0905  0.2660
17812W        W31226   5.258  18.026   4.711 -0.2485  0.2561  0.3370
17813W        W31227   4.298   8.049   2.970 -0.2211  0.2888  0.1569
17814W        W31228   9.771   4.271   1.377 -0.2045 -0.0953  0.1823
17815W        W31229   1.821  10.867  13.451  0.0877  0.2501 -0.0713
17816W        W31230   8.724  12.308   1.433  0.1355 -0.0892 -0.0757
17817W        W31231  14.744   2.350  11.352 -0.2282 -0.0611 -0.1672
17818W        W31232   6.670   9.336   4.342 -0.1037  0.1727  0.1132
17819W        W31233  14.926   7.758  15.323  0.1699 -0.1036 -0.2629
17820W        W31234  17.857   6.025  13.298  0.4150  0.2343  0.2316
17821W        W31235   9.681   1.861  15.771  0.2281  0.1402  0.3332
17822W        W31236  10.762  14.738   1.601  0.3540 -0.1544 -0.0375
17823W        W31237   7.296   5.525   2.572  0.1142  0.2536  0.0224
17824W        W31238   6.210   6.791  16.265 -0.1474  0.5789 -0.1570
17825W        W31239  14.860  10.880   0.518 -0.1017  0.2597  0.0091
17826W        W31240  11.202  14.607   1.809 -0.0267  0.0447 -0.0478
17827W        W31241   6.229  18.343  11.005  0.0347 -0.2054  0.1990
17828W        W31242   2.780   2.989  13.028 -0.2176 -0.1302 -0.1501
17829W        W31243   2.560   8.073   0.190  0.0353 -0.2015  0.0566
17830W        W31244   3.972   0.066   1.449  0.1243 -0.2159  0.1984
17831W        W31245  16.058   2.518  13.006 -0.0417 -0.1377 -0.0175
17832W        W31246  16.323   0.669  12.900 -0.3510 -0.0193 -0.1279
17833W        W31247   0.292  18.210   3.495 -0.0016 -0.1081 -0.1672
17834W        W31248   6.945   5.299   5.212 -0.0286 -0.0104  0.2498
17835W        W31249  12.586  17.890   9.849  0.2000  0.0942  0.3112
17836W        W31250  10.933   3.870   3.640 -0.0082 -0.0889  0.2738
17837W        W31251   6.382  15.445   2.150 -0.1578  0.0583 -0.1401
17838W        W31252  10.451  15.765   4.514 -0.0748  0.1889  0.2128
17839W        W31253   7.860   5.050  14.319  0.0817  0.0773  0.0065
17840W        W31254  12.622   2.560  12.662  0.0653  0.0719  0.2439
17841W        W31255  13.448  17.053  10.542  0.1924 -0.0386  0.0162
17842W        W31256   1.714  13.749   0.645 -0.1655 -0.0122  0.2078
17843W        W31257  14.353  10.151   1.621  0.0271  0.2640  0.2076
17844W        W31258   3.058  17.109  15.708  0.2155  0.0284  0.2823
17845W        W31259   6.715  12.639   5.761  0.2141  0.1210  0.0345
17846W        W31260   3.129  13.769   4.761 -0.0663 -0.2124 -0.1255
17847W        W31261  13.676  13.717  12.472 -0.1999 -0.5424 -0.0001
17848W        W31262   5.525   4.843  11.158 -0.0317  0.0017 -0.0502
17849W        W31263   2.785  17.024  12.367 -0.2744  0.0679 -0.1648
17850W        W31264   3.254  17.745   3.313 -0.1449 -0.0578 -0.0642
17851W        W31265   5.566   8.139   5.947 -0.3185  0.1264  0.0718
17852W        W31266   3.418   7.308  10.546 -0.0751 -0.1011  0.0403
17853W        W31267   0.680   2.177   5.223  0.1512 -0.2275 -0.0465
17854W        W31268  13.063   1.735  10.622 -0.1177 -0.6259 -0.4309
17855W        W31269   1.266   5.092  14.688  0.0462 -0.2843  0.3551
17856W        W31270  13.965  12.038  12.993 -0.0913 -0.4233  0.2219
17857W        W31271   3.949   1.346  15.745 -0.0321 -0.1122  0.2583
17858W        W31272  13.925  10.659  12.694 -0.0800  0.1670  0.3671
17859W        W31273  10.158   4.992  16.025  0.1085 -0.0044 -0.0695
17860W        W31274  17.002  13.532   0.177  0.0011  0.1040  0.5954
17861W        W31275  11.164  15.379   5.204  0.1665  0.3250  0.0598
17862W        W31276  12.417   1.497   1.354  0.0122 -0.0385  0.3321
17863W        W31277  10.893   5.668   6.151 -0.2686 -0.0652  0.0483
17864W        W31278  12.320  13.355   0.734 -0.1295  0.3014  0.1692
17865W        W31279   9.875   9.355  14.884 -0.2213 -0.0496 -0.1235
17866W        W31280   8.494   8.914  11.517  0.0759  0.2254 -0.1446
17867W        W31281  10.481   4.282  11.388 -0.1498 -0.0389 -0.0539
17868W        W31282   2.251   7.711   3.838 -0.0478 -0.0795  0.0728
17869W        W31283   4.808   1.016  10.389 -0.2114 -0.0084  0.3221
17870W        W31284  12.279  15.808   4.085  0.2836  0.0065  0.2048
17871W        W31285   0.321  15.312   6.282 -0.2128 -0.0652  0.1212
17872W        W31286   0.265   1.793   3.218  0.2878 -0.0031  0.2922
17873W        W31287  11.601  11.491  14.467 -0.2207 -0.0102  0.4170
17874W        W31288  17.843   8.437   3.031  0.2959  0.0158 -0.0213
17875W        W31289  15.429   8.835   3.325  0.0164 -0.3502  0.0899
17876W        W31290   9.920  15.630   0.192 -0.1259  0.2401 -0.1128
17877W        W31291  12.006  17.618   3.216  0.1098 -0.0296 -0.1239
17878W        W31292   8.115   6.579  15.050  0.4131 -0.2659 -0.3322
17879W        W31293   0.653  16.294   3.013  0.1033  0.2641  0.0454
17880W        W31294   0.468   1.724  13.545 -0.0979 -0.2707 -0.2936
17881W        W31295  15.817  12.524   6.073 -0.0462 -0.0222 -0.0308
17882W        W31296  11.715   2.503   4.544 -0.0224 -0.0424 -0.1490
17883W        W31297   3.398  17.079  11.863  0.2032 -0.2169 -0.0521
17884W        W31298  13.128  11.245   0.766  0.0506 -0.1556  0.1978
17885W        W31299  10.562   3.709   0.910  0.2139 -0.0420  0.2204
17886W        W31300   2.981   6.465   1.469  0.2375  0.1826  0.0971
17887W        W31301  16.473  16.141   5.318 -0.1210  0.0524 -0.1950
17888W        W31302   1.206  14.951  13.501  0.0254 -0.1620  0.0834
17889W        W31303  13.193   4.738  11.843 -0.0128 -0.0538 -0.0993
17890W        W31304  16.307   3.262   0.880 -0.0036  0.2623  0.0526
17891W        W31305   5.326   9.508  11.135  0.0083 -0.0229 -0.2382
17892W        W31306   5.529  16.742  11.437  0.3398 -0.0118 -0.0526
17893W        W31307   1.773  12.695   5.311 -0.2500  0.0186 -0.1531
17894W        W31308   3.479  15.787  14.519 -0.0838  0.0203 -0.2107
17895W        W31309  14.808  14.014   4.483 -0.4146 -0.2431  0.3713
17896W        W31310   0.946   7.085  12.736  0.0281  0.0757 -0.0640
17897W        W31311   3.943   1.705   5.470  0.0696 -0.2528 -0.2344
17898W        W31312   8.447  13.092   1.038  0.1190 -0.1413  0.1706
17899W        W31313   7.275   5.602  14.895 -0.3132 -0.1031  0.1401
17900W        W31314   9.030  10.688   1.654 -0.0455  0.2908  0.3719
17901W        W31315  10.196   7.228   2.308 -0.0345 -0.0946  0.0568
17902W        W31316   5.718   4.377   3.286  0.0459  0.0324 -0.1696
17903W        W31317  14.502   5.133   3.748  0.1699  0.0727  0.0172
17904W        W31318  14.184   9.144  10.177 -0.4268 -0.0783 -0.1150
17905W        W31319  17.882   4.777  10.482 -0.1035 -0.0407  0.0564
17906W        W31320   7.483   4.641  10.344  0.0634 -0.0499  0.2234
17907W        W31321  15.397  17.101   5.511 -0.1448  0.0059  0.0896
17908W        W31322   0.869  17.528  14.366  0.1669 -0.0576  0.1732
17909W        W31323   7.080   7.155  10.119 -0.0373  0.3675 -0.3617
17910W        W31324   1.596   2.397  13.275 -0.1359 -0.3196 -0.1177
17911W        W31325  13.800   2.041  10.194 -0.0942  0.1338  0.1570
17912W        W31326  11.024  16.712   2.892 -0.0764  0.1505 -0.0472
17913W        W31327   7.744  14.735   1.028 -0.1446  0.1857  0.0598
17914W        W31328  15.076  12.206  11.314 -0.1442 -0.1890  0.2762
17915W        W31329  11.783   8.323   0.221  0.0081 -0.0001 -0.1298
17916W        W31330  14.365  15.978   3.577 -0.2739 -0.4210 -0.1619
17917W        W31331  13.643  11.240   5.181 -0.1790 -0.4272  0.0637
17918W        W31332   9.062  16.191  11.412  0.0647 -0.2819 -0.2913
17919W        W31333   3.686  17.315   5.662  0.0419 -0.1128 -0.2352
17920W        W31334  15.908   7.225  13.820 -0.0550 -0.0044 -0.0507
17921W        W31335  10.185   3.422   1.185  0.1397  0.0946 -0.1888
17922W        W31336   8.151   3.847   3.962 -0.3734  0.0200 -0.0729
17923W        W31337  16.378  12.484  11.480  0.0827  0.0398  0.4325
17924W        W31338   4.337  15.267   3.583  0.2088 -0.0054 -0.1949
17925W        W31339   2.503   9.612   3.219 -0.1019  0.3116 -0.0208
17926W        W31340  16.941  16.016  15.691 -0.1090  0.1862  0.2434
17927W        W31341  12.917  16.429   4.455  0.0328  0.3866 -0.1699
17928W        W31342   2.959  11.820   4.153 -0.1394  0.0398  0.3083
17929W        W31343   9.751   7.798  16.266 -0.0209  0.2029 -0.0942
17930W        W31344   0.522  15.439  14.507  0.0171 -0.1590  0.3020
17931W        W31345  11.530  16.803   3.242  0.0018 -0.2019  0.1904
17932W        W31346   0.361   9.786  12.956 -0.0669  0.0777 -0.0830
17933W        W31347  11.980   8.796   0.352  0.1097 -0.0551 -0.2803
17934W        W31348   7.582  14.610  13.889 -0.0194 -0.0387 -0.0806
17935W        W31349   6.632   8.833  15.040 -0.2325 -0.0008 -0.1310
17936W        W31350  11.944   0.084   4.635  0.1960  0.0231  0.1672
17937W        W31351   9.372   3.472   4.169  0.3421 -0.0243 -0.1056
17938W        W31352   7.272  13.048   3.567  0.0404 -0.1467 -0.1183
17939W        W31353  17.624  15.870  11.861  0.0751 -0.0307  0.3661
17940W        W31354   8.233   6.152  16.410  0.1417  0.1440  0.0034
17941W        W31355  15.976   1.414  11.848  0.1653  0.3360 -0.1011
17942W        W31356   1.554   2.129   6.030  0.1400 -0.0526 -0.1762
17943W        W31357   4.375  12.751  10.687  0.0601 -0.3341 -0.0796
17944W        W31358  13.603  17.605  12.396 -0.2178  0.4740 -0.2396
17945W        W31359  17.689   5.287  14.734  0.0761  0.1081 -0.0490
17946W        W31360   2.216  15.096   0.553  0.0910 -0.3382  0.0582
17947W        W31361   6.156   5.959   1.962 -0.0854 -0.0624 -0.4472
17948W        W31362  14.132   0.669  12.676  0.3773 -0.0281 -0.1146
17949W        W31363   5.897  15.147  15.230  0.0983 -0.0563 -0.2798
17950W        W31364   2.456   0.955  10.934  0.0191 -0.2349  0.0211
17951W        W31365  15.639  16.411  12.373  0.0209  0.1548 -0.3398
17952W        W31366   4.746   3.457  11.324 -0.4055 -0.1209 -0.4130
17953W        W31367   4.311  14.444   1.489 -0.2095  0.0949 -0.1006
17954W        W31368  16.950   0.703   4.008  0.1726 -0.0484  0.3243
17955W        W31369  13.801   6.674   4.710 -0.3050  0.2395 -0.1725
17956W        W31370   6.284  13.825   1.958 -0.3055 -0.0782 -0.1036
17957W        W31371  13.032   7.648   0.553 -0.0467  0.3537  0.0619
17958W        W31372   8.901   9.198  11.671  0.2031 -0.1836 -0.2996
17959W        W31373  14.587   1.498   5.364  0.0287  0.0577 -0.1132
17960W        W31374   6.426  13.873   4.193 -0.2188 -0.1417  0.0951
17961W        W31375  10.416  15.113  14.706  0.0276 -0.1340  0.2140
17962W        W31376  11.618  11.330   2.539  0.0089 -0.1937  0.5950
17963W        W31377   5.567   2.737  12.200 -0.0069 -0.0271  0.2224
17964W        W31378   4.365   4.749   0.403 -0.0417 -0.1786  0.1867
17965W        W31379  17.243   3.301   1.084  0.2458  0.1253 -0.0625
17966W        W31380  15.519   1.623   2.304 -0.0036  0.1361 -0.1338
17967W        W31381  14.133   2.024   2.915 -0.1458 -0.1128 -0.1937
17968W        W31382  15.463   4.784   1.976  0.2413 -0.1771 -0.2897
17969W        W31383   6.078   3.928  16.005 -0.1117 -0.0537  0.5058
17970W        W31384   3.925  10.524   3.315  0.3605  0.2272  0.0957
17971W        W31385  10.197  17.688   1.114  0.0454 -0.3342 -0.0091
17972W        W31386   9.033  10.615  13.290 -0.0692  0.0236  0.0245
17973W        W31387  10.888   6.422  13.959 -0.2073 -0.2449  0.4068
17974W        W31388  17.840   7.651   2.329 -0.1411 -0.1669  0.0033
17975W        W31389  12.488  18.082  11.962 -0.1252 -0.3015  0.0652
17976W        W31390   1.037   3.153  11.150  0.0262 -0.0966 -0.1576
17977W        W31391   6.531   4.879   2.503  0.1905  0.0385 -0.0239
17978W        W31392  10.575   4.356   3.647  0.2744  0.1122 -0.2928
17979W        W31393   7.334   8.196  11.007 -0.1013 -0.0467  0.1667
17980W        W31394  10.148  14.725  13.659  0.0179  0.1185 -0.2671
17981W        W31395   0.874  11.017   2.656  0.2603  0.1469  0.0364
17982W        W31396   3.292   7.835   3.325  0.0524  0.0260 -0.1930
17983W        W31397   6.564   6.365  16.146 -0.1295 -0.2082  0.3892
17984W        W31398   6.169   7.208   0.906  0.2458 -0.2063  0.1439
17985W        W31399   1.988   4.965   3.291 -0.1522 -0.1682  0.0291
17986W        W31400  12.914  12.604  12.749 -0.2640 -0.2452 -0.0575
17987W        W31401   8.962  17.364  15.208 -0.1194 -0.0560  0.0134
17988W        W31402   8.468   2.078  15.104  0.0257 -0.2585 -0.1051
17989W        W31403  14.280  15.537  12.148 -0.0007  0.1620 -0.1221
17990W        W31404   8.669  15.251  10.475 -0.1507 -0.0085 -0.0536
17991W        W31405  10.825   2.816  13.215  0.1119 -0.0404  0.1024
17992W        W31406   0.064   9.728  12.156  0.3582 -0.0300  0.0129
17993W        W31407  12.512  17.785   3.217  0.3769  0.0524  0.0451
17994W        W31408  16.728   3.834   3.759 -0.2454 -0.2581  0.2273
17995W        W31409  16.375  13.274  15.244 -0.1161  0.0830  0.0862
17996W        W31410  12.325   6.901  11.380 -0.0432  0.1798  0.2008
17997W        W31411  17.109  13.239  11.761  0.4211 -0.1524 -0.2897
17998W        W31412  17.230   9.817  10.587  0.1097  0.0602  0.1617
17999W        W31413   5.492  12.231   1.000  0.3605 -0.2053 -0.1654
18000W        W31414   4.004  10.419  11.159 -0.1728 -0.0169 -0.0488
18001W        W31415   8.812   6.054   0.544 -0.0523  0.0098 -0.3831
18002W        W31416   6.232   1.377   5.652 -0.0695 -0.0677  0.1237
18003W        W31417   3.475   6.422   5.102 -0.0739 -0.0946  0.2999
18004W        W31418  12.320   4.794  14.837  0.0003 -0.0909 -0.2207
18005W        W31419   4.488   6.850  14.777  0.1460  0.3131 -0.0084
18006W        W31420  14.627   7.268   4.715 -0.0013  0.0394 -0.0310
18007W        W31421  11.125   2.612   2.263  0.3101  0.0953 -0.1517
18008W        W31422   5.491   5.032  13.713 -0.2715  0.4412  0.2714
18009W        W31423  10.545   5.893  12.894 -0.1910  0.0878 -0.1337
18010W        W31424   8.953  12.272  12.311 -0.0537  0.0478  0.1763
18011W        W31425   9.681  18.269  16.105  0.2668  0.0590 -0.2087
18012W        W31426  13.911   1.529   4.175  0.1776 -0.1607  0.0232
18013W        W31427  12.939   3.392  10.932  0.1141 -0.2005 -0.0473
18014W        W31428   0.351  14.918  11.513  0.0713 -0.0149 -0.1000
18015W        W31429   0.153   9.125   6.548 -0.0627  0.2373 -0.0108
18016W        W31430  16.372   7.420  13.828  0.0517  0.1234 -0.0699
18017W        W31431   7.836   6.520   1.482  0.0997  0.1396  0.1442
18018W        W31432   0.357   4.051   4.012  0.1167  0.0864 -0.0432
18019W        W31433   8.284   3.586   3.222 -0.1660  0.0760 -0.1344
18020W        W31434  10.898   5.362   0.792  0.3351 -0.2200 -0.2915
18021W        W31435  14.159   9.880   4.085  0.1402 -0.2810  0.0098
18022W        W31436  15.682   0.048  13.524  0.1826  0.2105 -0.1089
18023W        W31437   8.095   2.456   4.415  0.1810  0.0007  0.0993
18024W        W31438   8.356  16.849   3.191  0.0261  0.0121  0.0242
18025W        W31439   9.016   8.402   4.802  0.3012 -0.0739  0.1649
18026W        W31440  10.131  12.233   6.163  0.0513 -0.0839 -0.2329
18027W        W31441   2.935   3.719  11.917  0.0249 -0.2928 -0.1837
18028W        W31442   1.393   3.027   2.331 -0.3042 -0.0777 -0.1425
18029W        W31443   8.690   9.934  11.105 -0.0116  0.0044  0.2844
18030W        W31444  14.412  16.615   1.855  0.1268  0.2165  0.1013
18031W        W31445   2.987  17.544   4.596  0.1477 -0.3158  0.2869
18032W        W31446  12.690  11.793   3.512 -0.3064 -0.1109  0.0988
18033W        W31447   8.796  12.464  15.008 -0.1494  0.1636  0.3769
18034W        W31448   7.487   0.595   1.629 -0.2700 -0.0588  0.2302
18035W        W31449  10.102   0.090   2.632  0.0176 -0.0138 -0.3273
18036W        W31450  11.005  12.508   2.995 -0.1029  0.2232 -0.1006
18037W        W31451   4.482   6.416   5.119 -0.0231 -0.0234  0.2205
18038W        W31452  10.689   4.520  12.724 -0.2665  0.2943  0.0773
18039W        W31453   4.144   0.620  12.520  0.0416  0.0357  0.0979
18040W        W31454  10.529  11.378  16.048 -0.4866 -0.2202  0.0716
18041W        W31455   0.892  15.534  14.170  0.3075  0.2114  0.1314
18042W        W31456  11.507   4.682  12.862  0.2018  0.0237 -0.0243
18043W        W31457   8.253   7.237  14.403  0.1774  0.2946 -0.4966
18044W        W31458  11.163   3.400   3.570 -0.0795 -0.0689 -0.0451
18045W        W31459   4.752   7.807   2.999  0.1708  0.4829  0.0262
18046W        W31460   5.116   2.961   2.825  0.0294 -0.1270 -0.1558
18047W        W31461   9.603   2.464  11.144 -0.1778 -0.0138  0.1452
18048W        W31462   8.199  15.529   2.310  0.1801  0.1592 -0.0977
18049W        W31463   9.844   2.244  11.559  0.0089 -0.0805 -0.2112
18050W        W31464   4.392   0.752  11.162 -0.1937  0.0134  0.0760
18051W        W31465  14.593  13.767  14.247  0.0987  0.2508 -0.0804
18052W        W31466  16.105   9.348   0.700  0.0258 -0.1127 -0.2181
18053W        W31467   2.423  16.683   5.897 -0.0662 -0.3568 -0.2822
18054W        W31468   3.920   5.096  16.047 -0.0146 -0.1415  0.2372
18055W        W31469   6.093   5.696  14.670  0.1575  0.0000 -0.1925
18056W        W31470  13.762  11.748   0.457 -0.0015 -0.3079 -0.0831
18057W        W31471   8.114  17.122   5.607  0.1035  0.1957  0.1185
18058W        W31472  10.948  12.709  15.290  0.1025 -0.0913 -0.1196
18059W        W31473   9.379   0.708   4.848  0.0889 -0.1274  0.3670
18060W        W31474   9.844   7.776  12.793 -0.1315 -0.1820  0.0783
18061W        W31475   7.622  13.960   5.905  0.2512  0.0374  0.1846
18062W        W31476   5.686   1.457   2.510  0.1724 -0.0667  0.2491
18063W        W31477   0.717   6.137  12.888 -0.2448 -0.1785  0.2243
18064W        W31478  11.737   9.903   0.569  0.2561  0.1704 -0.0489
18065W        W31479  17.237   7.804   0.980 -0.0518 -0.2822 -0.2060
18066W        W31480  11.541  15.779   6.478 -0.0498  0.0013  0.1331
18067W        W31481   1.924  13.846  10.938  0.0756  0.1783 -0.0623
18068W        W31482  11.828  13.579  14.240  0.2119  0.1152  0.2878
18069W        W31483   1.582   9.214  11.025  0.1514  0.1209  0.0100
18070W        W31484  15.730  16.148  14.570  0.0522 -0.4167 -0.4620
18071W        W31485   4.467  16.918   3.292 -0.1779  0.0051  0.1458
18072W        W31486   3.864  14.831   5.355  0.1097 -0.0991  0.0775
18073W        W31487   3.959  11.053   5.375  0.0015 -0.1981 -0.3295
18074W        W31488  15.386  14.949  16.300  0.1624  0.2583  0.0492
18075W        W31489  11.544  10.518  12.694  0.1599 -0.0783 -0.1688
18076W        W31490  15.913   2.131  12.546  0.1354  0.1465  0.0011
18077W        W31491   9.198  11.169  15.082 -0.0859  0.0103 -0.0957
18078W        W31492   6.734  10.689  15.445 -0.1244  0.0695  0.1793
18079W        W31493  12.838  18.317   2.357  0.0531  0.0251  0.1531
18080W        W31494   1.099  10.286   0.158 -0.3307 -0.1611  0.3973
18081W        W31495   9.391   6.735   1.232 -0.3146  0.0909  0.3244
18082W        W31496   1.218  14.621   3.243 -0.2231 -0.2084  0.2019
18083W        W31497  10.071  12.583  15.327 -0.3356  0.0444  0.0894
18084W        W31498   2.457  12.686  11.402 -0.1901  0.1885 -0.3328
18085W        W31499  15.466   9.876  12.612 -0.2269 -0.0222 -0.0373
18086W        W31500   7.465  14.659   1.640  0.2022  0.0214 -0.2342
18087W        W31501   4.130   1.441   0.691  0.4033  0.0538 -0.0590
18088W        W31502  12.766   2.674   3.707 -0.0383  0.0220 -0.2568
18089W        W31503  12.383   5.326   2.150 -0.0769 -0.2747 -0.1315
18090W        W31504  14.248   7.888  14.485  0.0545  0.0914  0.1485
18091W        W31505   2.168  17.046   2.559  0.3614 -0.2494 -0.1550
18092W        W31506  16.204   3.052   1.837  0.0998 -0.0810  0.1899
18093W        W31507   4.977   1.398  11.303  0.1465  0.2952  0.1630
18094W        W31508  10.073   9.577  15.325 -0.0669  0.0702  0.2775
18095W        W31509   8.828   9.877   5.622  0.0642  0.0320 -0.2456
18096W        W31510  10.319   5.444   1.840  0.0884 -0.0758 -0.1420
18097W        W31511   0.024   2.420  15.105 -0.0645  0.2012  0.2260
18098W        W31512  10.034  10.279   3.463 -0.1059 -0.0956 -0.0496
18099W        W31513   2.088  17.230   5.599 -0.2803  0.2843  0.0060
18100W        W31514   7.740   0.416  10.657 -0.3106 -0.2990  0.2135
18101W        W31515   2.157  17.938   3.303 -0.0991  0.2293 -0.0388
18102W        W31516   0.756   5.846  14.482  0.2143 -0.3510 -0.0458
18103W        W31517   6.752  14.609   0.466 -0.0616  0.0032 -0.0356
18104W        W31518  12.298  11.086   0.785  0.1357 -0.0712 -0.0508
18105W        W31519  11.245   0.172  12.550  0.4524 -0.0702  0.0669
18106W        W31520  15.015  13.208  11.358 -0.1876 -0.1497  0.1246
18107W        W31521  16.209  13.807  11.542 -0.0182  0.1331  0.4397
18108W        W31522   8.644   0.987   3.078  0.2594 -0.2173 -0.0204
18109W        W31523   9.921  16.383  11.514  0.0875 -0.0966  0.0352
18110W        W31524   1.991  11.482  10.554 -0.2527 -0.1917  0.1376
18111W        W31525   0.605   0.481   1.983  0.0588 -0.2316 -0.1988
18112W        W31526   2.291   6.943   5.309 -0.2686 -0.0163  0.0477
18113W        W31527   2.783  12.472   4.742  0.4109 -0.0983  0.0004
18114W        W31528  15.254   1.490   0.967  0.0406 -0.4216  0.0363
18115W        W31529   8.492  10.509   4.231 -0.2500  0.0983 -0.0405
18116W        W31530   7.212   2.812   4.032  0.0683 -0.2209 -0.1405
18117W        W31531   6.630   4.699  10.921 -0.0074  0.0866  0.1666
18118W        W31532   7.100  12.123   0.509  0.0061 -0.2829  0.1110
18119W        W31533  11.972  12.308  15.116  0.0131  0.0382  0.1761
18120W        W31534   8.923   2.383  10.345 -0.4106  0.0409 -0.0054
18121W        W31535   9.818   8.302  11.741 -0.2862 -0.0129  0.1126
18122W        W31536  17.586   5.678  13.478 -0.0209  0.1169 -0.1701
18123W        W31537   8.220   0.854   5.619 -0.2850 -0.0400  0.0184
18124W        W31538  13.745  16.413   5.569  0.3218 -0.1115 -0.4242
18125W        W31539   0.583   7.374  16.115  0.1171 -0.1351 -0.0748
18126W        W31540   0.410  12.076  13.298  0.1023  0.2230  0.0526
18127W        W31541  12.895   2.794  15.333 -0.0697  0.1141  0.1492
18128W        W31542  16.211   4.412  12.391 -0.2600 -0.0111 -0.1140
18129W        W31543   2.803   5.061   3.695  0.2803 -0.0535 -0.3505
18130W        W31544  16.277   3.476  13.550  0.0147 -0.0138 -0.0415
18131W        W31545   2.392   0.284  13.302  0.1732 -0.0505  0.0731
18132W        W31546   7.440   3.975   1.837  0.1608  0.1627 -0.0774
18133W        W31547  10.853   5.675   1.182 -0.0867  0.0243 -0.3516
18134W        W31548  16.717   7.467  16.199 -0.1868  0.2631  0.0531
18135W        W31549  12.898   2.180  14.433  0.2041 -0.1056  0.1879
18136W        W31550  17.346   1.220   1.568  0.1447  0.2812 -0.1083
18137W        W31551  10.656   6.944  10.942 -0.2386  0.0820 -0.2516
18138W        W31552  18.011   0.612  11.814 -0.2054 -0.0664  0.0536
18139W        W31553   6.781   1.111  12.169 -0.0881 -0.1685  0.0916
18140W        W31554   5.122   6.848  12.588  0.0935 -0.0007  0.0991
18141W        W31555  11.102   8.688  16.169 -0.2143  0.0298  0.3409
18142W        W31556   3.042   2.165   1.126  0.1692 -0.0756  0.1752
18143W        W31557  12.674   5.906  11.217  0.0457  0.1949  0.3566
18144W        W31558  14.631   1.240   1.843  0.2219  0.2878  0.0988
18145W        W31559   1.065  11.662  14.507 -0.0796 -0.0106  0.1256
18146W        W31560   6.284   7.754  13.398 -0.2185 -0.1837 -0.2959
18147W        W31561   3.004  18.051   0.819  0.0696 -0.2889 -0.5247
18148W        W31562   2.218  11.754  13.174  0.0492  0.2430  0.0477
18149W        W31563   9.487  13.799  12.285 -0.2495  0.1544 -0.3707
18150W        W31564  18.093  17.952   5.553 -0.1042 -0.1344 -0.1315
18151W        W31565   1.935   5.751  10.186  0.1878  0.3738  0.0542
18152W        W31566  14.849  14.270  13.556 -0.2988  0.3038 -0.0142
18153W        W31567  15.025  12.035  13.748 -0.1510  0.2027  0.1875
18154W        W31568   2.717   7.827  12.952  0.0210 -0.2712  0.3237
18155W        W31569  15.259  13.506   3.676 -0.0613  0.1905  0.0367
18156W        W31570   2.069  15.760   2.348 -0.4269 -0.2294  0.2473
18157W        W31571   6.258  16.516   3.258 -0.2821 -0.2688 -0.1572
18158W        W31572  12.996  12.228  14.328 -0.0961  0.0939  0.2074
18159W        W31573   0.931  15.887   5.271  0.1889 -0.1089  0.1427
18160W        W31574   8.575  17.390  12.180  0.0417 -0.0707  0.1553
18161W        W31575   3.073   6.340  16.026  0.0553  0.2098  0.3912
18162W        W31576   3.871   9.469   4.344 -0.0272  0.0165 -0.0343
18163W        W31577   5.508   2.718   5.093  0.5287  0.1234  0.1911
18164W        W31578  17.801   6.888   3.605 -0.0766  0.4790  0.2620
18165W        W31579   8.338  14.415  10.590  0.0856  0.2138 -0.2292
18166W        W31580   6.563   9.782  13.943 -0.0842 -0.0572  0.1522
18167W        W31581  17.258   6.651  12.989  0.2434 -0.1439  0.1447
18168W        W31582   4.185   9.075   5.072  0.0002  0.0095  0.0514
18169W        W31583   5.493  16.512   1.729 -0.2078  0.1557 -0.0956
18170W        W31584   9.865   9.645   3.215  0.3435  0.1867  0.0511
18171W        W31585   2.058   5.966   3.652 -0.0178 -0.0844 -0.5080
18172W        W31586   7.709   9.177  15.860 -0.0562 -0.1864 -0.0655
18173W        W31587  16.548   6.041  15.781  0.2782  0.0039  0.0985
18174W        W31588   8.448   5.741  16.007 -0.0668  0.0430 -0.1437
18175W        W31589  14.827  10.002   4.835 -0.2805 -0.1030  0.2225
18176W        W31590  13.255   1.070   4.299 -0.2661 -0.1896 -0.2272
18177W        W31591  17.481   4.429  14.453 -0.4064 -0.0420 -0.2592
18178W        W31592   0.846   6.525  13.660  0.2824  0.0221  0.0230
18179W        W31593   6.636   7.813  11.205 -0.2889 -0.1140  0.1144
18180W        W31594  12.591   5.614   1.842  0.2176 -0.1756  0.3011
18181W        W31595  11.245  16.554   2.472 -0.2375  0.0388 -0.0621
18182W        W31596   6.818   5.067  15.014  0.1423  0.0608  0.0217
18183W        W31597   7.359  14.876  15.987  0.0946 -0.0546 -0.0192
18184W        W31598  11.988   6.094  13.013  0.0307  0.0109 -0.0454
18185W        W31599   8.969  17.658   5.512 -0.7398 -0.1824  0.1248
18186W        W31600  17.421   0.745   5.997  0.1716  0.1659  0.2149
18187W        W31601   6.316  10.421  16.391  0.0309  0.0678 -0.0299
18188W        W31602   4.726  11.935   1.451  0.1421  0.1179 -0.0832
18189W        W31603   2.836   1.779   3.609  0.0434  0.0053 -0.0031
18190W        W31604  17.049  17.076  16.127 -0.1152 -0.0056  0.0646
18191W        W31605   9.918   8.333  11.224  0.2109  0.0188  0.2225
18192W        W31606   4.046  13.616   1.378 -0.0941 -0.0713  0.0326
18193W        W31607   7.313   8.313   6.395  0.1591  0.1056  0.0976
18194W        W31608   0.868  16.324  10.854  0.1531 -0.2868 -0.3845
18195W        W31609  15.987  10.674   3.447  0.1038  0.5359  0.1913
18196W        W31610  17.312   4.955   2.814 -0.1695 -0.1801  0.4604
18197W        W31611  10.005  10.572   0.469  0.2590  0.4210  0.2562
18198W        W31612   8.771  14.708  10.615 -0.1189  0.1134  0.3346
18199W        W31613   1.373   5.276   1.854  0.0758  0.2068  0.0242
18200W        W31614  11.194   3.929   5.446 -0.0191 -0.1103  0.0325
18201W        W31615  14.900  15.654   2.534 -0.1286  0.1143  0.1098
18202W        W31616  10.169   2.269   4.950  0.4801  0.0458 -0.1224
18203W        W31617  16.220  14.578   5.520  0.2289  0.0875 -0.0727
18204W        W31618   1.556  14.484   3.589 -0.1216  0.0517  0.0228
18205W        W31619   9.239   9.499  14.983 -0.1658 -0.0840  0.1131
18206W        W31620  12.679  13.487  12.686  0.0050  0.1584 -0.1563
18207W        W31621  15.143   6.317  13.924 -0.2023 -0.1394 -0.2946
18208W        W31622   4.191   2.351   2.807 -0.1735  0.0150 -0.1701
18209W        W31623   0.970  15.988  14.006  0.0386 -0.0253 -0.0922
18210W        W31624   2.109   6.879   2.229 -0.1161  0.1500  0.0286
18211W        W31625   1.125   1.139  10.601 -0.1243  0.1886 -0.0636
18212W        W31626   7.249   3.243  12.773 -0.2356  0.1811 -0.4518
18213W        W31627  17.748   5.395  14.055 -0.2085  0.0384  0.2638
18214W        W31628  18.301   0.153   3.497 -0.1021 -0.0531  0.0753
18215W        W31629   7.159   2.029  11.348 -0.1733 -0.0409  0.2710
18216W        W31630   7.186   5.576  12.323 -0.0187  0.0233 -0.0183
18217W        W31631  10.240   3.098   1.697  0.0651  0.2272 -0.1260
18218W        W31632   5.427   5.569  11.719  0.0546 -0.1715 -0.2867
18219W        W31633   3.620   3.844  13.727  0.0924 -0.1100  0.1054
18220W        W31634   1.904   8.716  12.474 -0.2150 -0.0478 -0.2154
18221W        W31635   7.685   2.767  15.869  0.2336 -0.0862  0.3688
18222W        W31636  13.662   7.564   5.154 -0.0118 -0.0521 -0.1208
18223W        W31637   8.448  13.055  13.217 -0.1684  0.0023 -0.1300
18224W        W31638   4.335   1.020  12.322  0.2681  0.2741 -0.1764
18225W        W31639   5.386   0.493  15.728 -0.1544 -0.1040  0.0452
18226W        W31640  18.027  16.563   2.702  0.0099 -0.1732  0.0981
18227W        W31641   5.885   8.527   5.197  0.0495 -0.0286 -0.0998
18228W        W31642   1.891  17.730   4.324  0.1297 -0.1583 -0.2306
18229W        W31643  10.646   4.888  16.024  0.0843  0.1035 -0.1561
18230W        W31644  11.610   0.144   2.337  0.1153 -0.2293 -0.0083
18231W        W31645  16.409   3.661  11.592 -0.0738  0.0434 -0.1093
18232W        W31646   8.794   2.917  10.952  0.0147  0.1036 -0.1413
18233W        W31647   3.904   8.056  11.230  0.1656  0.1108 -0.0046
18234W        W31648  11.304  11.503   2.173  0.0709  0.0833  0.0640
18235W        W31649  11.347   1.254  16.140 -0.0174  0.0794  0.0976
18236W        W31650   0.203  12.158  10.758  0.1210 -0.0288  0.0118
18237W        W31651   2.919   2.590   0.248 -0.0764 -0.0734  0.0741
18238W        W31652  15.853  14.916  16.047 -0.0501  0.1360 -0.1651
18239W        W31653   0.894   5.907   0.772  0.0582  0.2956  0.0697
18240W        W31654  10.177  17.538  14.982 -0.2096 -0.0319  0.1613
18241W        W31655  14.728  16.455   0.394 -0.3941 -0.3481  0.0453
18242W        W31656  16.742   6.250   3.997  0.1410  0.1395  0.2310
18243W        W31657  16.543   1.410   0.812 -0.2834 -0.2257  0.0553
18244W        W31658  15.841   9.751  11.829 -0.0089  0.0771  0.0954
18245W        W31659  17.682  16.334  15.570 -0.1356 -0.2292  0.1389
18246W        W31660   5.816   7.451  11.589 -0.0063 -0.0529  0.0296
18247W        W31661  17.933   4.716  16.164  0.0123  0.4833  0.1226
18248W        W31662  12.549   4.789   0.745  0.1550 -0.0360  0.1219
18249W        W31663   7.655   5.911   2.365  0.1558 -0.0750 -0.1100
18250W        W31664  15.398   6.586   2.005  0.4230  0.1332 -0.0713
18251W        W31665  13.415   4.673  15.254  0.5306 -0.0592 -0.3665
18252W        W31666   4.385   5.862   1.202  0.1824  0.2978 -0.2801
18253W        W31667   3.729   1.586  11.526 -0.1667  0.1886  0.2724
18254W        W31668  17.064   0.306   5.808  0.1076  0.2610 -0.0235
18255W        W31669  11.860  15.157   4.810  0.1494 -0.0018  0.2969
18256W        W31670  17.314  13.136   1.341  0.1060  0.4728  0.0918
18257W        W31671   9.520   0.390  10.969 -0.3501 -0.1527  0.0809
18258W        W31672  11.078   9.306  10.929  0.1669  0.2246 -0.1773
18259W        W31673   2.859   7.281   2.687 -0.0508  0.1007  0.2437
18260W        W31674   2.367   4.765   3.550  0.0069 -0.1335 -0.1740
18261W        W31675   6.552   6.919   0.560 -0.1629  0.1107  0.1477
18262W        W31676  12.748   8.106  15.139 -0.0676  0.1295 -0.4197
18263W        W31677  15.707   6.251  12.144 -0.3168  0.2038  0.1156
18264W        W31678   8.910  15.036  15.679  0.1318  0.1393  0.1983
18265W        W31679  16.350   2.305   5.781 -0.1200 -0.1367 -0.0879
18266W        W31680  10.239   4.261  11.817  0.1895 -0.1044  0.2896
18267W        W31681  13.327  13.512   3.529  0.0868 -0.0536 -0.0476
18268W        W31682   8.819  14.287   2.871 -0.1008  0.2376  0.2176
18269W        W31683   4.090   9.646   5.775 -0.0853  0.1307 -0.2239
18270W        W31684  14.118  11.349   0.075 -0.2186 -0.1521 -0.0395
18271W        W31685   6.498  13.836  15.805  0.0496 -0.1927  0.2185
18272W        W31686  11.659   9.098   4.412 -0.1851  0.1441 -0.0019
18273W        W31687   7.648  17.954   1.500 -0.0266  0.0880 -0.2249
18274W        W31688  12.073   5.397  15.698 -0.2627  0.0823 -0.3748
18275W        W31689   6.016  17.354  12.566  0.2817  0.1229 -0.0751
18276W        W31690  11.726   1.063  12.443  0.2155 -0.0517  0.1077
18277W        W31691  11.788   4.481  13.460  0.0679  0.1327 -0.1460
18278W        W31692  13.173   0.463  10.707 -0.2374  0.1839  0.3007
18279W        W31693  10.370   4.011   5.312  0.0173  0.3258 -0.1973
18280W        W31694   4.222  14.785  11.382  0.0868 -0.2024 -0.2078
18281W        W31695   9.970  11.399   6.398 -0.2728 -0.2423 -0.0819
18282W        W31696   5.115  17.214  15.572 -0.0278 -0.3033 -0.0046
18283W        W31697   2.744   9.839   5.675  0.0438 -0.3838 -0.0034
18284W        W31698   3.532  15.795   5.527 -0.1243  0.2825 -0.0892
18285W        W31699   7.349   9.573  16.240  0.3304 -0.2827 -0.0261
18286W        W31700   5.896  15.039  12.867  0.1203  0.1483 -0.1304
18287W        W31701   7.158  10.554  10.609  0.1937  0.2759 -0.1643
18288W        W31702   4.452   1.202   0.372 -0.0546  0.2008  0.1186
18289W        W31703  11.880   5.599  10.423  0.0402 -0.0105 -0.0620
18290W        W31704  17.693   4.929  15.775 -0.0139  0.4917 -0.0584
18291W        W31705  17.785  17.230   0.206 -0.3264  0.1898  0.0248
18292W        W31706   2.856  14.403  14.755 -0.2083  0.1216  0.0223
18293W        W31707   3.582  17.633  14.089 -0.2429 -0.5180  0.1862
18294W        W31708  12.408   7.106   0.987 -0.2601  0.0784 -0.0293
18295W        W31709   2.783  11.201   5.451  0.0057 -0.2511 -0.0408
18296W        W31710  14.623   1.013  12.622  0.0712  0.0919  0.0249
18297W        W31711   6.748  10.693  10.420 -0.1857  0.1829 -0.2383
18298W        W31712   3.587  14.916   1.723 -0.2009 -0.0221 -0.2098
18299W        W31713  12.013  10.438   5.164 -0.0863  0.3851  0.1260
18300W        W31714  11.586  15.366   2.076 -0.2236 -0.2352  0.2378
18301W        W31715   0.461   1.327  14.354 -0.0032 -0.1339  0.1873
18302W        W31716   6.676   5.359   2.613 -0.3760  0.0348 -0.3071
18303W        W31717  13.854  12.991   5.758  0.1520 -0.0910  0.0006
18304W        W31718  18.032  15.413   1.307  0.2657 -0.0529 -0.0315
18305W        W31719  15.946   7.862  11.256 -0.1079  0.1912 -0.1311
18306W        W31720  13.063  12.784   5.683  0.3673 -0.0371  0.1399
18307W        W31721   9.375   5.202  15.022  0.2691 -0.0334 -0.0756
18308W        W31722   8.433   9.163  14.622 -0.1093  0.2632 -0.2983
18309W        W31723  16.266   8.329  10.781 -0.0764 -0.2795  0.2053
18310W        W31724   2.241  10.764   4.244 -0.3110 -0.1002  0.0575
18311W        W31725   0.307   3.572   3.081 -0.2396 -0.2404 -0.3099
18312W        W31726  13.921   6.180  16.306  0.0307  0.1636 -0.1499
18313W        W31727  10.346  12.655   2.453  0.0747  0.3412 -0.2059
18314W        W31728  12.381  12.321  14.284  0.0432  0.2185 -0.1037
18315W        W31729  14.711  16.298  16.220 -0.0044 -0.1809 -0.1345
18316W        W31730   6.463  13.396   6.379 -0.1104  0.2220 -0.0248
18317W        W31731  14.116  11.659   5.779  0.1942  0.2102 -0.0977
18318W        W31732   9.767   6.374  14.297  0.1809  0.1722  0.0408
18319W        W31733  14.110  17.778   4.037 -0.0493 -0.2768  0.1477
18320W        W31734   6.962  17.193  12.462  0.3593 -0.0031  0.1322
18321W        W31735   6.899  18.202   4.934 -0.2361 -0.2609 -0.0208
18322W        W31736   2.019   2.441  11.342  0.2040  0.1476  0.0867
18323W        W31737   7.337   0.692   0.368  0.0108 -0.0268  0.1820
18324W        W31738  13.849  18.027   1.621  0.1894  0.2650 -0.2662
18325W        W31739  12.666   8.120  13.226  0.2717  0.2230 -0.1029
18326W        W31740   6.279  17.586   6.473 -0.1239 -0.2856 -0.1455
18327W        W31741   3.815   4.780  14.822  0.1763 -0.0077 -0.3342
18328W        W31742  17.463  15.702   3.806 -0.3456  0.4410 -0.0428
18329W        W31743   1.628   2.873  14.631 -0.0114 -0.0911  0.1586
18330W        W31744   0.054  14.062   0.065 -0.0158 -0.2070  0.0499
18331W        W31745   1.238   8.988  15.786 -0.0184 -0.0626 -0.0433
18332W        W31746   1.656   3.999   3.445  0.0463  0.2936  0.2875
18333W        W31747   2.101   7.682  14.366  0.1676 -0.1268  0.2688
18334W        W31748  13.374  11.883  13.082  0.2034  0.0144  0.0700
18335W        W31749   9.151  11.947  12.774  0.1888 -0.1364  0.1872
18336W        W31750  11.086   8.181   1.415  0.1128 -0.1424  0.0287
18337W        W31751   5.782   4.959   3.629 -0.2565  0.2294  0.4830
18338W        W31752  17.368  10.384  16.073 -0.2017  0.3364 -0.0804
18339W        W31753   6.090   9.576   9.804 -0.0616 -0.0194  0.1866
18340W        W31754   6.333   2.231   2.548 -0.0266 -0.4277  0.0423
18341W        W31755  13.819   3.043   0.828  0.0871  0.0290  0.1051
18342W        W31756  11.583  13.322   0.213 -0.0483 -0.0453  0.0008
18343W        W31757  10.125   2.607  15.692 -0.0958  0.1562 -0.1291
18344W        W31758  11.311  11.959   2.373 -0.0052  0.0367 -0.1405
18345W        W31759  11.068  13.520  13.842 -0.2498 -0.0379  0.0283
18346W        W31760   3.400   8.687  12.052  0.0520  0.4126 -0.0650
18347W        W31761  16.848   5.356  10.821 -0.1315  0.2049 -0.0144
18348W        W31762  13.164   3.277   3.641  0.2863 -0.5240 -0.2064
18349W        W31763   2.399  16.615  14.791  0.1291 -0.0060  0.0940
18350W        W31764  13.706  10.219   4.192  0.0157  0.2193  0.0233
18351W        W31765   9.120   7.803  10.794 -0.1457  0.0039 -0.2143
18352W        W31766  17.397   9.500  14.077 -0.1433 -0.1048 -0.1467
18353W        W31767  11.650   4.623   0.778 -0.1758 -0.0878 -0.2112
18354W        W31768  15.931   7.837   0.269  0.1257 -0.0890  0.1965
18355W        W31769   9.018  15.541   3.483  0.1143  0.1341  0.3497
18356W        W31770  16.753  18.260  13.501 -0.3079 -0.1668 -0.2002
18357W        W31771  10.395  14.793  15.650 -0.3387  0.0277  0.2058
18358W        W31772  11.420   4.338  10.966 -0.0269 -0.2589 -0.3468
18359W        W31773  11.988   8.711  14.124 -0.2632  0.0203 -0.0575
18360W        W31774  10.080  11.938   3.148 -0.1461 -0.0466 -0.1960
18361W        W31775   6.369  18.127  12.384  0.0955  0.0028 -0.0667
18362W        W31776  16.613  13.247  12.028  0.1798  0.2817 -0.1442
18363W        W31777   5.048  10.700  13.384  0.0433 -0.1172 -0.1312
18364W        W31778   1.826   6.079   1.857 -0.0659 -0.0891 -0.3946
18365W        W31779  14.125   5.470   4.600 -0.1301  0.0520  0.0172
18366W        W31780  18.322  13.033  12.367  0.0477 -0.0414  0.0183
18367W        W31781  17.056   1.612  13.859  0.1054  0.1778  0.0539
18368W        W31782  15.898   6.648  14.012  0.2876 -0.1064 -0.0129
18369W        W31783   5.789   6.420  13.012 -0.1422  0.0968  0.0362
18370W        W31784   1.128  10.068  15.274  0.1308 -0.2890  0.0839
18371W        W31785   0.608   4.606   4.761  0.2744  0.0245  0.1424
18372W        W31786  17.943   5.706   4.373 -0.1512 -0.1592  0.0419
18373W        W31787   2.708   0.492   4.858  0.0393  0.1451  0.2014
18374W        W31788   1.080  11.105  10.241 -0.0293 -0.0054  0.2197
18375W        W31789   8.661  12.383   4.325  0.1060  0.2179 -0.1593
18376W        W31790  16.896   6.361  13.481 -0.3407 -0.5057 -0.1497
18377W        W31791  11.203   9.791   3.298  0.0625 -0.2370 -0.0886
18378W        W31792   2.811  13.664  16.175 -0.0081 -0.1591  0.1889
18379W        W31793   6.244  17.686   4.932  0.0709  0.0301 -0.2252
18380W        W31794   7.185  14.341   0.460 -0.0999  0.1354 -0.2661
18381W        W31795  10.376   3.206  12.236  0.0361 -0.1138  0.1920
18382W        W31796   1.401  13.025  14.887  0.0492 -0.2964 -0.2091
18383W        W31797  11.487   5.944  14.955  0.0459  0.2771 -0.3112
18384W        W31798   0.917  13.107   5.163  0.0718  0.1694 -0.2887
18385W        W31799  17.416   5.877   1.168 -0.1350 -0.2597 -0.1741
18386W        W31800  13.143  13.412  11.892  0.1499 -0.3235 -0.1770
18387W        W31801  13.686   1.992  16.456  0.2914  0.0983 -0.2720
18388W        W31802   3.372   5.277  11.012 -0.0952  0.0802  0.0622
18389W        W31803  16.980  14.134  15.453  0.2458  0.2113  0.0081
18390W        W31804   0.563  16.835   3.134 -0.1327  0.0963  0.0554
18391W        W31805   3.552   3.087   2.433  0.0444  0.2173 -0.0070
18392W        W31806   9.667   9.125  13.024 -0.1444 -0.3522  0.4724
18393W        W31807  16.053  13.311  13.384  0.0484 -0.0153 -0.0248
18394W        W31808   3.467   3.462   2.101  0.2156 -0.1479 -0.0143
18395W        W31809   4.193  11.354  12.367 -0.2116 -0.0213  0.0054
18396W        W31810   1.378  12.250  14.615  0.0410  0.2774  0.2314
18397W        W31811   8.420  18.361   2.307 -0.0720  0.2104 -0.1259
18398W        W31812  15.418   6.629  14.247 -0.1112 -0.1297  0.2775
18399W        W31813  15.690  14.600  13.943 -0.1619  0.4677  0.1142
18400W        W31814   1.278   9.629   3.353  0.0439  0.2583  0.0917
18401W        W31815   7.516  11.131  12.727  0.1371 -0.0158  0.1241
18402W        W31816   6.553  13.650  12.035  0.2072 -0.0490 -0.1698
18403W        W31817  11.984  12.725   6.810 -0.2394  0.2024 -0.1562
18404W        W31818  17.485   2.928  10.918 -0.2058  0.0223 -0.3888
18405W        W31819  16.552   7.327   2.347 -0.1795 -0.0620  0.0421
18406W        W31820  18.001  11.260  12.195  0.0052 -0.1307 -0.1131
18407W        W31821  12.761   5.091  14.593 -0.0283 -0.2036 -0.3981
18408W        W31822  18.395  14.113  13.905 -0.1603 -0.2150  0.0268
18409W        W31823  18.231  13.300   5.420  0.0514 -0.2341  0.0880
18410W        W31824  15.713   2.807   4.935 -0.1589 -0.0914 -0.1099
18411W        W31825   1.956   7.969  13.891 -0.2220  0.4040  0.0856
18412W        W31826   0.031   1.694   0.857 -0.3558  0.0615 -0.0156
18413W        W31827  11.303   5.326  15.475 -0.1334  0.0878  0.2582
18414W        W31828   9.496   6.324  13.856  0.2841 -0.0423 -0.3095
18415W        W31829   8.731   3.001  11.464  0.0476  0.0759  0.5871
18416W        W31830  15.438   9.105  13.823  0.3314 -0.1823  0.2650
18417W        W31831   8.108   4.761  13.106 -0.1481 -0.0586 -0.3023
18418W        W31832  17.105   5.897   3.095 -0.0199  0.0492 -0.2840
18419W        W31833   8.660   0.056  12.841 -0.1231 -0.1036 -0.1375
18420W        W31834  14.058  16.951   1.682  0.2127 -0.0410 -0.1961
18421W        W31835  16.211   5.501  14.378 -0.1163  0.0595  0.3162
18422W        W31836   2.650  17.678   0.668  0.2434  0.0024  0.1212
18423W        W31837   6.148   0.047  13.549 -0.0616  0.1635  0.2043
18424W        W31838  14.047   7.785  10.409 -0.4780  0.0984 -0.2100
18425W        W31839  13.641   4.725  10.340 -0.0852 -0.3731 -0.0654
18426W        W31840  12.491   3.688  14.834 -0.1514 -0.0777  0.1614
18427W        W31841   7.082   8.152   1.867  0.0719 -0.1448  0.1805
18428W        W31842  11.524   4.339  12.401 -0.1447  0.0130 -0.0580
18429W        W31843   2.265  16.761   3.292 -0.1596 -0.1785  0.0433
18430W        W31844  10.046   6.532   3.793 -0.1654  0.1252 -0.0372
18431W        W31845  11.948  18.094  12.559  0.4956 -0.2100  0.2683
18432W        W31846   3.138  10.590   9.744  0.3402  0.0700  0.1281
18433W        W31847   3.374   2.109   2.832  0.0072  0.2235  0.1245
18434W        W31848   9.180   0.465  10.565 -0.3321  0.2993 -0.1548
18435W        W31849  11.829  15.749   4.245  0.1251 -0.0633  0.1193
18436W        W31850  16.003   0.479  13.638 -0.0109  0.0840 -0.0854
18437W        W31851   3.185   9.335   1.222 -0.0632 -0.4113  0.0434
18438W        W31852  11.450   9.320  11.307  0.2936 -0.1297  0.0050
18439W        W31853  17.017   9.720  12.327  0.2855 -0.0448  0.1737
18440W        W31854   5.193  18.110  15.703  0.2070  0.1672  0.1269
18441W        W31855   0.984  15.944   4.784 -0.3088 -0.2641 -0.0554
18442W        W31856   1.907   9.306  12.389 -0.2442 -0.2332 -0.0042
18443W        W31857  12.397   4.131  14.624 -0.1083  0.1416 -0.0059
18444W        W31858   1.749   1.468  16.441 -0.2798  0.0216  0.0552
18445W        W31859  13.621   7.345  15.914  0.2748 -0.1603  0.1235
18446W        W31860   8.844  11.143  11.616  0.0202 -0.0055 -0.1903
18447W        W31861   5.467  11.048  13.125  0.0009 -0.4040 -0.0077
18448W        W31862   0.678  12.113  15.506 -0.3294 -0.4154  0.3387
18449W        W31863  17.348  15.842   6.629  0.0374 -0.1126 -0.0742
18450W        W31864   4.349  14.557  13.776  0.0003  0.1837 -0.2669
18451W        W31865  18.209   4.330  11.148  0.3177  0.4247 -0.1946
18452W        W31866   3.606   9.431  11.896 -0.0903  0.1549 -0.1651
18453W        W31867  14.556  15.814  15.955 -0.0629  0.2607 -0.0695
18454W        W31868   3.667  17.090   4.092  0.0331  0.2253  0.1381
18455W        W31869  16.192   8.659   4.132 -0.1230  0.3935  0.0733
18456W        W31870  15.128   3.376   3.233  0.1394  0.0603 -0.0070
18457W        W31871  11.351   6.169  11.747  0.1529  0.0501 -0.3169
18458W        W31872   5.311  11.306   4.589 -0.4050 -0.1458 -0.1293
18459W        W31873  12.062   0.932  13.386  0.0486 -0.2887 -0.2261
18460W        W31874   5.365  10.772   6.105  0.0210  0.1250 -0.3815
18461W        W31875  18.130  18.021   3.449  0.1651 -0.0487  0.0361
18462W        W31876  17.687   9.472  11.776 -0.0821 -0.1680 -0.0007
18463W        W31877  13.529  10.934  12.614 -0.2850  0.0848 -0.1162
18464W        W31878  11.356  13.681   0.565  0.0069  0.1287  0.2067
18465W        W31879  11.115  16.172   1.412 -0.2994 -0.2978 -0.1677
18466W        W31880  14.035   0.610   3.944  0.0034 -0.0872  0.2618
18467W        W31881  13.743  11.962  14.407  0.0480  0.0134  0.2556
18468W        W31882   7.025   3.316  13.816 -0.2379 -0.1005  0.0850
18469W        W31883  15.243   1.802  13.794  0.0164  0.1622 -0.2554
18470W        W31884   8.792  15.849  12.427 -0.0888  0.1082  0.0830
18471W        W31885   0.289  16.400   2.200 -0.2525  0.0437  0.0242
18472W        W31886  14.779  14.987   5.587  0.0178  0.2752  0.4422
18473W        W31887  15.805   1.274   2.583  0.2040  0.1259 -0.0601
18474W        W31888  10.352   0.596   4.136 -0.1172  0.0345 -0.0272
18475W        W31889  11.108  12.484   4.041 -0.4103 -0.0061 -0.0659
18476W        W31890   5.787  12.249  13.795  0.1649 -0.0517 -0.1868
18477W        W31891   2.702  14.323  13.068  0.1442 -0.2149  0.2547
18478W        W31892  15.717   6.234   2.551  0.2289 -0.1121 -0.1594
18479W        W31893  14.096   5.558   3.826  0.0040  0.0404 -0.0430
18480W        W31894   9.091   3.017   9.588 -0.0385  0.0389 -0.0947
18481W        W31895  18.056  10.665  11.326 -0.0266  0.0448 -0.1090
18482W        W31896  11.859  10.119  12.382  0.1909 -0.1863 -0.1019
18483W        W31897   4.318   5.001  10.351 -0.2163 -0.0786 -0.1948
18484W        W31898   5.807  17.112  11.105 -0.1287 -0.0721  0.0002
18485W        W31899   8.341  15.577  12.360 -0.2833  0.1667 -0.1357
18486W        W31900  17.916   8.444  10.876 -0.1650  0.1257 -0.2533
18487W        W31901  16.525   9.823  15.951  0.0926  0.1544  0.3783
18488W        W31902   2.385   8.570  11.100  0.0735 -0.0059 -0.0922
18489W        W31903   0.129   6.307   0.586 -0.1713 -0.1009  0.1168
18490W        W31904  12.822   6.681   3.167  0.0927  0.0282  0.0745
18491W        W31905   7.420  18.260  10.893  0.1407 -0.0161  0.1574
18492W        W31906   5.622  14.737  13.499 -0.4606  0.1342  0.0337
18493W        W31907  17.550  13.667   4.861  0.2337  0.1778  0.4012
18494W        W31908  17.292  16.392  13.553  0.1017  0.2209 -0.1757
18495W        W31909   7.046   0.289   4.498  0.1170  0.2364  0.0053
18496W        W31910   1.105   4.460  12.396 -0.3683  0.1836 -0.0660
18497W        W31911   1.256   4.494  14.504  0.1565 -0.2385  0.0347
18498W        W31912  11.463  11.180   4.656  0.1604  0.0232 -0.0849
18499W        W31913  12.034  14.591  14.749 -0.1653 -0.0633  0.0758
18500W        W31914   1.210   9.373  14.502 -0.2781  0.1293  0.0311
18501W        W31915  12.810   4.502   2.594 -0.0841  0.0529  0.1329
18502W        W31916  13.350   0.697   3.276  0.0429 -0.2611 -0.0926
18503W        W31917  10.260   4.276  14.739  0.3570 -0.1803 -0.2345
18504W        W31918   8.933  13.740   5.354 -0.3856 -0.3251 -0.0793
18505W        W31919   9.289   9.854   5.437  0.0827 -0.1712 -0.1655
18506W        W31920   7.027  15.782   4.583 -0.4546 -0.5269  0.1558
18507W        W31921  10.567   2.838   4.778  0.2010 -0.0459 -0.0679
18508W        W31922   5.537   6.252   2.495 -0.1606 -0.1550 -0.0418
18509W        W31923  15.243   4.295   3.975  0.0047  0.2315 -0.1202
18510W        W31924   3.517  16.926   2.362  0.1122  0.0391  0.0522
18511W        W31925   3.310  16.800   5.061 -0.1993 -0.1340  0.0971
18512W        W31926  14.844   0.837   0.216 -0.2534 -0.1436  0.1228
18513W        W31927   7.788   9.054  10.942 -0.0676  0.0098 -0.3010
18514W        W31928  14.038   7.563  12.578  0.0703 -0.1864 -0.1202
18515W        W31929  14.250   4.412  10.967  0.2243 -0.2085 -0.0431
18516W        W31930   0.854   3.717  13.556 -0.0875 -0.1685  0.0399
18517W        W31931   2.984   5.368  15.790 -0.2115  0.4528 -0.0646
18518W        W31932  15.508   9.911   3.068 -0.2296  0.1041 -0.0553
18519W        W31933   1.728   9.188   5.598  0.2263  0.1460 -0.0866
18520W        W31934   7.605  14.680  11.165  0.1682 -0.1909  0.5559
18521W        W31935   5.469   6.082   0.833 -0.0263 -0.1555  0.2289
18522W        W31936  11.460  15.876   5.450 -0.3829  0.0397 -0.1107
18523W        W31937   7.689   4.420   4.334 -0.1668  0.1754 -0.1452
18524W        W31938  17.848   6.605  15.820  0.0438  0.5744 -0.0163
18525W        W31939   6.192   9.622  15.025  0.0585 -0.1559  0.1089
18526W        W31940  12.575   6.735   1.838  0.3191  0.1648 -0.3337
18527W        W31941  15.758  13.005   0.956 -0.0667  0.2131 -0.0982
18528W        W31942  13.129  16.960   3.667  0.0525 -0.2005  0.1492
18529W        W31943   7.746   7.374   4.690 -0.1346 -0.1220  0.1503
18530W        W31944  10.052  13.785   5.471 -0.0486 -0.0306  0.0889
18531W        W31945   3.555   0.954   1.871 -0.3202 -0.1414  0.2569
18532W        W31946   7.909  17.497   3.174  0.0378 -0.0750 -0.0934
18533W        W31947  14.681   4.839   5.745 -0.1348 -0.1014 -0.0265
18534W        W31948   1.314   0.816  14.464  0.1153 -0.1580  0.1121
18535W        W31949  10.765   4.129  14.488  0.0822  0.0180 -0.0761
18536W        W31950  16.981  14.393  11.386  0.0082  0.1225  0.0248
18537W        W31951   5.613  17.440   1.079 -0.0255 -0.2698  0.1764
18538W        W31952   0.995   8.673   2.931 -0.1055  0.0286 -0.1883
18539W        W31953   8.667   0.461   3.288  0.1034  0.2570 -0.0760
18540W        W31954  12.597   8.640   3.069  0.2476 -0.1106  0.1470
18541W        W31955  10.530   3.613  13.148  0.1003  0.0731 -0.2312
18542W        W31956  10.492  18.098   0.059  0.0411 -0.1491 -0.2212
18543W        W31957   2.243  17.537   0.962  0.0348 -0.0481  0.1726
18544W        W31958   9.066   3.976   2.096  0.1148  0.2266 -0.1215
18545W        W31959   9.339   8.583   4.319 -0.1848 -0.0464 -0.1544
18546W        W31960  16.127  10.649   4.424 -0.0040  0.0487 -0.1342
18547W        W31961  10.212  16.569  12.970  0.0527 -0.0257 -0.0948
18548W        W31962   7.206  14.428  16.103  0.3257 -0.3176  0.1395
18549W        W31963  11.009  17.471  14.849  0.0323 -0.2277  0.0207
18550W        W31964   2.280  12.054  12.731 -0.2038 -0.0865 -0.4449
18551W        W31965   8.015   3.060   1.441  0.1786 -0.0925 -0.1242
18552W        W31966   8.278   6.313  13.301  0.0523 -0.2325 -0.0199
18553W        W31967  16.865   1.801  15.363  0.3161  0.1909 -0.2217
18554W        W31968   3.635  10.623   1.510 -0.0862  0.1725 -0.3809
18555W        W31969  14.938  13.098  12.036 -0.2518 -0.0398  0.1910
18556W        W31970  10.301  11.822   2.721 -0.3006  0.1381  0.0956
18557W        W31971  11.152   1.697  11.508  0.0873  0.0158 -0.2255
18558W        W31972  15.271   1.206   0.564  0.3242 -0.1179  0.1772
18559W        W31973  16.726   4.668  16.179  0.0194 -0.2602 -0.2178
18560W        W31974   6.045  11.734   2.278  0.0213 -0.0866  0.1399
18561W        W31975  12.546   8.913   0.513  0.0723  0.1549 -0.0856
18562W        W31976  18.161  15.723  12.717  0.2264 -0.2397  0.0110
18563W        W31977   4.774  12.368   2.509 -0.0013 -0.1866  0.1444
18564W        W31978  13.870   4.406  12.564  0.0990 -0.1300 -0.1698
18565W        W31979  10.944  16.176   3.270  0.3101 -0.2774 -0.0540
18566W        W31980   3.254   3.431  13.706  0.0046 -0.0138 -0.2418
18567W        W31981   3.004   0.599   3.545 -0.1108 -0.2653 -0.2182
18568W        W31982  14.696   8.849  12.663 -0.1412 -0.0637 -0.2521
18569W        W31983   5.621  18.334  13.428 -0.2545 -0.2331 -0.1775
18570W        W31984  13.931  13.041  12.520 -0.0818 -0.1158  0.1703
18571W        W31985   8.572  18.004   0.318  0.0004  0.0320  0.1042
18572W        W31986  11.649   0.157   0.359  0.0839 -0.0092 -0.0517
18573W        W31987  14.037  10.393  14.818 -0.0435 -0.1042  0.0400
18574W        W31988   5.177   1.492  10.828  0.2613 -0.1607  0.0117
18575W        W31989   2.079   8.888   4.252 -0.2238 -0.1449 -0.2853
18576W        W31990   9.971  16.675   2.725  0.2649 -0.0570 -0.2188
18577W        W31991   5.855   3.196  14.284  0.2246 -0.1562 -0.0370
18578W        W31992   6.434   1.521   4.766  0.1057  0.0037 -0.3863
18579W        W31993   3.856   6.577  12.102  0.3887  0.1242 -0.1959
18580W        W31994  13.582   5.394   4.796  0.2206  0.0516  0.0733
18581W        W31995   1.333  12.619   2.039 -0.0277  0.0408 -0.0697
18582W        W31996   7.737  12.742  10.669  0.0796  0.0926 -0.2943
18583W        W31997  11.174  10.339  10.636 -0.0161 -0.0083  0.0441
18584W        W31998   3.039  10.136  11.574 -0.0994 -0.0309 -0.1975
18585W        W31999  15.084   7.349  11.030  0.1415  0.1727  0.0055
18586W        W32000  17.511  16.688  16.012 -0.0852  0.1801 -0.3691
18587W        W32001   2.545  11.600   9.703  0.2097  0.3072 -0.0107
18588W        W32002  13.314   1.008  15.293  0.4813  0.0331 -0.1285
18589W        W32003  13.969  16.743  14.698 -0.2085  0.3120 -0.0771
18590W        W32004  11.123  10.035  12.589 -0.1030 -0.1976  0.0830
18591W        W32005  10.429   1.540   1.979 -0.3526 -0.1805  0.0935
18592W        W32006   0.735  13.917   3.615  0.2383 -0.1516  0.2723
18593W        W32007   6.327   5.576  11.704 -0.0823 -0.0349 -0.1732
18594W        W32008  17.176  18.242   1.513 -0.0441 -0.0319  0.1015
18595W        W32009   5.178   4.213  10.271 -0.0074  0.1880 -0.2321
18596W        W32010   5.237   2.264   9.937  0.0447 -0.1629 -0.0602
18597W        W32011  15.020  15.261  12.622 -0.3984 -0.0688 -0.0976
18598W        W32012   5.751  10.429  16.375  0.0153 -0.1921 -0.0128
18599W        W32013   7.417   2.042  15.690 -0.0118 -0.2431 -0.0357
18600W        W32014  16.079  13.874   3.886 -0.1264  0.0925 -0.4080
18601W        W32015   8.058   3.396   4.092 -0.1369  0.0702 -0.1537
18602W        W32016   4.893   5.863   3.791  0.2455  0.6130 -0.0541
18603W        W32017   4.201   6.266  15.900 -0.1230 -0.0744  0.0358
18604W        W32018  18.238  10.544   3.912  0.3824 -0.0387 -0.2714
18605W        W32019   0.160  16.866   1.384 -0.0777 -0.3265 -0.0026
18606W        W32020   7.614  13.166   2.628  0.0629  0.5418 -0.1802
18607W        W32021   2.979  14.514  16.253  0.0617 -0.3083  0.3570
18608W        W32022   7.884  11.205   2.941  0.1971 -0.1206 -0.1987
18609W        W32023  12.096  12.270   6.130 -0.0221 -0.0270 -0.1077
18610W        W32024  14.261   5.706  11.249  0.2103 -0.0862 -0.0247
18611W        W32025   4.676   3.586   1.123  0.0852  0.0224 -0.1559
18612W        W32026  16.153  18.243  15.261 -0.1848  0.3607 -0.2208
18613W        W32027   8.584   9.172  11.053 -0.1524  0.0707 -0.2063
18614W        W32028  11.211   7.431  15.867  0.1828  0.1228  0.0306
18615W        W32029  10.919  14.121  15.623  0.3635  0.1476  0.0506
18616W        W32030   3.143   6.813   3.890  0.0362  0.1420  0.0834
18617W        W32031  12.079  13.256   0.098 -0.2882  0.1382  0.3651
18618W        W32032  13.436  16.954   3.225 -0.0887 -0.3923 -0.1567
18619W        W32033   8.505   8.058   5.388  0.0784  0.0075  0.2864
18620W        W32034  13.249  17.814   5.613  0.1651 -0.0651  0.1457
18621W        W32035  14.091  11.442  11.971  0.0061  0.1575  0.1332
18622W        W32036   9.546  14.454  11.579 -0.0969  0.1238 -0.2499
18623W        W32037  12.608   5.607  15.334  0.0670  0.0625  0.0751
18624W        W32038   1.870  10.203   3.422 -0.1410 -0.4466  0.1311
18625W        W32039  17.544  12.131  14.114  0.1670 -0.1413 -0.1134
18626W        W32040  10.243   1.040   3.860 -0.1179 -0.2089 -0.2122
18627W        W32041   9.655  15.557  15.850 -0.1435 -0.2215 -0.1861
18628W        W32042  12.469   3.811   3.353 -0.2702 -0.1826  0.0359
18629W        W32043   3.506   6.205   5.582  0.0490  0.2807  0.3102
18630W        W32044  17.075  16.962   3.961  0.2247  0.4539 -0.2670
18631W        W32045   3.381  15.964   2.897 -0.0959 -0.0807 -0.0660
18632W        W32046   9.545  15.735   2.203  0.0907 -0.0790  0.1940
18633W        W32047   2.536   6.553  15.335 -0.0042 -0.1009  0.3431
18634W        W32048   7.479   3.732   0.156  0.1223  0.1429 -0.0463
18635W        W32049   7.353   0.614  14.962  0.1159 -0.0543  0.0674
18636W        W32050  13.668   8.906   4.275  0.0060  0.1563 -0.0663
18637W        W32051  16.665   8.072  14.363  0.1412 -0.0917 -0.0460
18638W        W32052  10.690   0.588  13.423  0.2817  0.1372 -0.1546
18639W        W32053   8.221  17.330  15.572  0.1265 -0.3059 -0.1643
18640W        W32054   8.584  18.386   9.792  0.2176 -0.0460  0.1458
18641W        W32055   2.398   0.844  15.084  0.1273  0.3860  0.3931
18642W        W32056   7.139  16.889  10.564  0.3883  0.0102  0.1593
18643W        W32057   1.169   5.573  14.520  0.4179  0.2971  0.1976
18644W        W32058   9.647   4.345  15.453  0.1796  0.3056  0.3152
18645W        W32059   4.631   7.171   2.232 -0.0864 -0.2353 -0.1332
18646W        W32060  17.626  12.356  14.574  0.0147 -0.2348 -0.2163
18647W        W32061  18.015   1.006   5.261 -0.1723 -0.0658 -0.0879
18648W        W32062   0.852   7.986   1.789 -0.1724 -0.0253  0.0473
18649W        W32063  17.406   5.778   0.257  0.1164  0.0001 -0.0990
18650W        W32064   9.370   7.500  16.330  0.0482  0.0666  0.0190
18651W        W32065  16.884   9.595  11.861  0.4686  0.1196  0.1447
18652W        W32066  13.118  13.003   3.001  0.1679  0.1106 -0.1774
18653W        W32067   0.197  14.395   1.800  0.1805 -0.0382 -0.1390
18654W        W32068  14.466  18.117   2.111 -0.2917  0.1881 -0.1385
18655W        W32069   4.089  16.679   4.166 -0.1070  0.1232 -0.0068
18656W        W32070   2.372   5.902  13.781 -0.1449 -0.0293  0.0392
18657W        W32071   4.636   9.279  15.894  0.4024  0.1309  0.0506
18658W        W32072   4.508  14.035   1.874 -0.3958  0.1043 -0.0206
18659W        W32073   3.230   8.434  14.865 -0.0071  0.1792 -0.1324
18660W        W32074  15.494  12.188   3.644 -0.3025  0.0073  0.1591
18661W        W32075   3.692  13.365   4.620 -0.1767  0.3068  0.1893
18662W        W32076   3.747   0.981   6.822  0.2441  0.0110 -0.1556
18663W        W32077  13.093  17.842   1.100  0.0120  0.4125 -0.0841
18664W        W32078  13.778   5.739  16.020 -0.0523 -0.0448  0.1795
18665W        W32079  10.293   3.403  12.735 -0.0199 -0.0603 -0.1079
18666W        W32080  17.008   0.318  13.342 -0.2669  0.2658 -0.0220
18667W        W32081  15.001   7.227   3.814  0.1348 -0.0160 -0.1359
18668W        W32082   0.113  14.518  12.769 -0.0649 -0.0307  0.2404
18669W        W32083  13.426   8.241  15.056  0.0046  0.1601  0.1515
18670W        W32084   7.935   7.241  13.233  0.0098 -0.3727  0.0882
18671W        W32085  13.996   8.465   2.248  0.1013 -0.1094  0.1200
18672W        W32086   4.656  14.599   4.142  0.1326 -0.2527 -0.2240
18673W        W32087   7.061   3.610   3.127 -0.0240  0.1920  0.1708
18674W        W32088   4.161   5.440   1.974  0.0100  0.1230 -0.0564
18675W        W32089  13.626  17.367  11.510 -0.0196  0.0205  0.1553
18676W        W32090   5.068   0.587   1.730 -0.0819  0.3356 -0.0360
18677W        W32091  14.908   2.091  15.695  0.1604 -0.2927 -0.1707
18678W        W32092   5.890  17.552  10.908 -0.2910 -0.0068 -0.0294
18679W        W32093   1.350  14.802  14.335  0.0798 -0.1818  0.2358
18680W        W32094  10.250   9.819   3.522  0.2176 -0.1345  0.2889
18681W        W32095   5.998  15.992  13.082 -0.0080 -0.1015 -0.1575
18682W        W32096  14.841  17.766  10.960 -0.0344  0.0098  0.1353
18683W        W32097   4.417   3.958   5.766 -0.2528  0.0073  0.0430
18684W        W32098   4.456  12.919  13.814 -0.1315  0.0299 -0.1046
18685W        W32099   7.085  14.652   3.515  0.0119  0.2429  0.4046
18686W        W32100   5.871   7.263  12.481 -0.1644  0.0731 -0.0828
18687W        W32101   6.196   4.634  14.862  0.1529  0.2092  0.2231
18688W        W32102   4.545  15.357   0.225 -0.2400  0.2799  0.1036
18689W        W32103   7.147   2.793  11.216  0.0762 -0.1523  0.1750
18690W        W32104  11.653   5.724  13.006 -0.2016  0.2732  0.2550
18691W        W32105   7.195  14.290   5.896  0.1296 -0.1236 -0.3885
18692W        W32106   7.266   9.624   0.239 -0.1787  0.3180  0.2042
18693W        W32107  14.543  14.395   5.299  0.3596  0.1631 -0.2018
18694W        W32108  17.622  13.554  14.404 -0.1585 -0.0576  0.1824
18695W        W32109  13.494  11.179   2.314  0.1246  0.0821  0.2390
18696W        W32110   3.660  17.161  15.672 -0.0270  0.1522  0.3166
18697W        W32111  17.850  17.546  13.078  0.3799  0.1438 -0.0428
18698W        W32112   7.541   5.080   3.514  0.0070 -0.0280  0.2129
18699W        W32113  11.891   3.258   4.189  0.3965 -0.1679  0.0920
18700W        W32114  17.334  17.087  15.734 -0.0195 -0.1552  0.1525
18701W        W32115  11.096   8.892  12.106  0.3112 -0.2035  0.1373
18702W        W32116   3.639   8.960  10.359 -0.5041 -0.1441 -0.1124
18703W        W32117   6.320   1.712  15.991  0.1094 -0.0673 -0.0668
18704W        W32118   9.779   9.811   5.049  0.1565  0.3072 -0.0386
18705W        W32119  13.243   5.042  14.391 -0.1224  0.0017 -0.1760
18706W        W32120  16.651   3.051   4.281  0.1867 -0.1420 -0.4045
18707W        W32121   3.316   6.881  15.210 -0.0669  0.3430  0.5866
18708W        W32122   9.514   8.782   3.820 -0.1881  0.1840  0.3327
18709W        W32123   9.498  15.469   3.547 -0.0163 -0.2313 -0.1874
18710W        W32124   8.860   7.289   3.520 -0.0304 -0.0976  0.1025
18711W        W32125   9.183   4.647   3.765 -0.1041  0.2621 -0.3537
18712W        W32126   8.171  14.539   4.523  0.2116  0.1643 -0.1520
18713W        W32127   5.852  17.871   5.287  0.1506  0.0800  0.0920
18714W        W32128  10.944  14.036   3.330  0.1022 -0.3372  0.3939
18715W        W32129  13.471  13.061   2.113 -0.2348 -0.1014 -0.1179
18716W        W32130  14.140  13.470  15.903  0.1368 -0.3133 -0.0489
18717W        W32131  13.347  12.310  14.716  0.0279 -0.4615 -0.0838
18718W        W32132   0.456   5.719   3.692 -0.3821 -0.2499  0.0453
18719W        W32133  12.313   1.322  12.851  0.3439 -0.0343  0.0687
18720W        W32134  17.070  15.246   6.053  0.0403 -0.0563 -0.3119
18721W        W32135   1.805   5.675  12.175  0.2971  0.1099  0.0423
18722W        W32136   2.559  16.842  10.082  0.0091  0.0295  0.2293
18723W        W32137   0.919  13.442   2.342 -0.0380  0.1341  0.1389
18724W        W32138  12.165  13.070  13.106  0.0670 -0.3041  0.0176
18725W        W32139   2.083   0.052  14.170 -0.0887  0.0258  0.1820
18726W        W32140  12.139  15.162  16.436  0.0368  0.2213 -0.2371
18727W        W32141   1.933   1.358  15.771  0.1748 -0.1041  0.1716
18728W        W32142   0.440   8.572   0.592 -0.0389  0.0298  0.0982
18729W        W32143   1.967  17.084  14.509 -0.0943 -0.2374 -0.4038
18730W        W32144  15.331  14.231  12.671  0.3394 -0.0474  0.1609
18731W        W32145   3.238  15.272  15.228  0.0458  0.0998  0.2823
18732W        W32146   2.712  10.108   3.843 -0.2906 -0.0236 -0.1097
18733W        W32147   0.869  11.924   5.774  0.2926  0.2724  0.0629
18734W        W32148  12.267   4.474   2.662 -0.0951 -0.2279 -0.0963
18735W        W32149   1.903   8.652   3.733  0.0388  0.0468 -0.3343
18736W        W32150   0.237   0.549   0.836  0.0140 -0.2614 -0.0632
18737W        W32151   4.391   5.176   5.311  0.1356  0.1784 -0.0785
18738W        W32152   3.972  16.092  12.021 -0.1419 -0.0205  0.1288
18739W        W32153  15.242  17.560  13.329 -0.0534 -0.1963 -0.1118
18740W        W32154   2.497   7.512   0.817 -0.0566  0.0120 -0.1362
18741W        W32155  16.167   0.204  12.673  0.1810  0.0895 -0.0400
18742W        W32156  13.988   5.864  13.689  0.2421  0.2567  0.4247
18743W        W32157   9.258   3.597   0.248 -0.0138  0.4441 -0.1931
18744W        W32158  13.277  17.149   0.657  0.0496  0.4078 -0.0633
18745W        W32159   6.699   3.674  10.119  0.1064 -0.1388  0.2539
18746W        W32160  13.960   5.426  15.240  0.3138  0.3268 -0.0265
18747W        W32161  10.793  11.939   2.141 -0.2343  0.0092  0.0510
18748W        W32162   7.195   8.244   2.449  0.1930  0.0850 -0.0809
18749W        W32163  10.623   0.252   2.761 -0.0448  0.0338  0.1475
18750W        W32164   9.830   9.259   5.558  0.3918 -0.1530 -0.1422
18751W        W32165   1.021   8.456   1.972 -0.2722  0.0939  0.3817
18752W        W32166  13.711   3.874   1.068  0.0903 -0.1498 -0.0267
18753W        W32167  12.201  16.527   6.257 -0.1602 -0.0357  0.1474
18754W        W32168   8.450   0.184   5.745 -0.0309  0.2553  0.0118
18755W        W32169  15.885  15.883  11.299  0.2829  0.0563  0.0435
18756W        W32170  11.317   4.414   2.636  0.2821 -0.2317 -0.0638
18757W        W32171   6.198   5.249   6.266 -0.1675 -0.0534  0.0403
18758W        W32172   3.499  16.259   3.267 -0.1486 -0.1401 -0.2468
18759W        W32173  10.487  18.258   3.086 -0.2073 -0.3996 -0.0414
18760W        W32174   2.074   4.479  10.549  0.1784 -0.0626 -0.1919
18761W        W32175  15.587  17.755   3.509 -0.1685  0.0338 -0.1136
18762W        W32176  10.150   6.789  15.660  0.2277 -0.0067  0.0012
18763W        W32177  12.853   3.406  10.466 -0.2887  0.1286  0.1161
18764W        W32178   8.824   1.758   2.524 -0.2080 -0.1310 -0.0436
18765W        W32179   8.558   0.923   0.965 -0.0770  0.4370  0.2187
18766W        W32180  15.893   6.597  15.662 -0.1735 -0.4742  0.1641
18767W        W32181  14.668  14.753  15.221 -0.1613  0.4107 -0.2724
18768W        W32182  14.918  17.639  14.662  0.0205  0.0888  0.0094
18769W        W32183  16.979  11.454  11.853  0.1739  0.0647 -0.1641
18770W        W32184  17.551   3.413   5.967  0.2662  0.2237  0.1224
18771W        W32185  10.398   6.854   3.728 -0.1311  0.2932  0.2619
18772W        W32186   2.012   4.434   5.307  0.0952  0.1998  0.2701
18773W        W32187   6.581   0.653  12.808  0.0298 -0.1185  0.3001
18774W        W32188  17.908   4.641  12.080  0.3465  0.2350  0.2422
18775W        W32189   9.213   1.445  11.543  0.0434 -0.0394 -0.0031
18776W        W32190   0.379  12.443  11.671  0.2451 -0.2362  0.0768
18777W        W32191  12.766  13.801  12.262 -0.0569  0.2509  0.0194
18778W        W32192   0.360   4.304   1.777 -0.0521  0.1002  0.2457
18779W        W32193   8.185   8.771   3.540 -0.0039 -0.1251  0.0231
18780W        W32194   5.318  16.217   0.560 -0.3022  0.1651 -0.2056
18781W        W32195  12.722   9.271   1.881  0.0944 -0.1267  0.1048
18782W        W32196  15.304   6.252  11.525 -0.2780 -0.0026 -0.2053
18783W        W32197  11.931   5.710   2.561 -0.0915 -0.0485 -0.1778
18784W        W32198   9.705   6.758   4.844 -0.3701 -0.0982 -0.1088
18785W        W32199   9.222   4.049  14.394  0.1159  0.2312 -0.3051
18786W        W32200  12.508   6.046  14.653  0.5895  0.0877  0.0541
18787W        W32201  15.342   5.805   3.850 -0.0711  0.1746 -0.0520
18788W        W32202  17.162   3.791  15.950 -0.4148 -0.0119 -0.1471
18789W        W32203  10.729   1.579   1.431  0.0471 -0.0840  0.2827
18790W        W32204  10.639   7.533  12.500  0.2005  0.2048  0.1084
18791W        W32205  12.924   8.985  10.830 -0.1904 -0.0268  0.2010
18792W        W32206  15.485   9.424   3.905 -0.2227  0.0537  0.1632
18793W        W32207   8.650  14.281  14.987  0.1345  0.2349 -0.1824
18794W        W32208   7.436  10.204  11.238 -0.3435  0.1015 -0.2561
18795W        W32209  16.224   4.402  16.296 -0.5642  0.2408  0.1822
18796W        W32210  15.335   4.592  12.088 -0.0230 -0.0349  0.4354
18797W        W32211   7.319   4.861  14.970  0.1106  0.1300 -0.1479
18798W        W32212  12.465  12.929   4.413  0.0184  0.0425  0.0410
18799W        W32213  13.327   4.588   1.792  0.2105 -0.0345 -0.2116
18800W        W32214   7.703   7.910  16.020 -0.0614  0.3024  0.1359
18801W        W32215   9.502   0.931   3.079 -0.3787  0.3777  0.0527
18802W        W32216  11.802  13.835   0.112  0.0445  0.2481  0.0590
18803W        W32217  13.408  16.056   5.631 -0.1383 -0.0600  0.0908
18804W        W32218  11.294  12.078   0.077  0.2901 -0.1488 -0.0712
18805W        W32219   1.969   9.628  10.818 -0.4591 -0.0552 -0.0671
18806W        W32220   2.974  13.932  13.512 -0.0188 -0.1957  0.1621
18807W        W32221  13.994   3.632  16.029  0.2026  0.1409 -0.0717
18808W        W32222  16.523  10.811  10.559  0.0760  0.0783  0.0562
18809W        W32223   5.130   1.842  12.238  0.1845  0.1707  0.1767
18810W        W32224  13.302  11.956   6.655  0.4839 -0.0646 -0.0690
18811W        W32225  15.681  12.571  10.420 -0.1150  0.0374 -0.0458
18812W        W32226   0.599   7.939  15.372 -0.0243  0.0242  0.0284
18813W        W32227  17.454   1.225  12.281 -0.0785 -0.1988  0.0019
18814W        W32228   0.106   0.898   5.155 -0.1214  0.0491  0.0128
18815W        W32229   0.348   3.628  14.583 -0.2066 -0.1242  0.0326
18816W        W32230   8.015   7.863   5.349  0.1799 -0.2281  0.1810
18817W        W32231   4.121  10.185   0.276 -0.1982  0.3394 -0.4458
18818W        W32232   8.916  13.527  11.546  0.0879  0.0162  0.0682
18819W        W32233  18.204   0.321   0.594  0.1481  0.1722  0.1591
18820W        W32234   9.139  12.140   4.292  0.1151  0.4613 -0.1554
18821W        W32235   5.843   5.757  11.502 -0.4656  0.1755  0.0839
18822W        W32236  10.599  16.697  15.364  0.0265  0.2160  0.2736
18823W        W32237   3.624  12.135   3.960 -0.0764 -0.0451  0.0852
18824W        W32238   7.645   2.284   5.124  0.2181 -0.0182 -0.1251
18825W        W32239   3.807   7.185  14.350  0.1819 -0.1345  0.3165
18826W        W32240   1.319   0.261   1.877 -0.2234 -0.1107  0.3165
18827W        W32241  16.699  10.119  12.088  0.0451  0.2762  0.0697
18828W        W32242  14.456  12.354  14.672  0.0424  0.0962 -0.2373
18829W        W32243  12.895   6.378   0.542 -0.0365 -0.2280  0.2516
18830W        W32244  10.984  11.252   4.843 -0.2603  0.3816  0.1196
18831W        W32245  11.032   6.630   1.443 -0.2704 -0.1763  0.2866
18832W        W32246   9.030   5.960  11.232  0.0490 -0.4081 -0.0229
18833W        W32247   0.994   3.792   5.273  0.3218  0.3828  0.1135
18834W        W32248   1.162   1.716   5.818  0.0944 -0.0192 -0.0799
18835W        W32249   2.867  14.614   5.198 -0.0859 -0.0437 -0.0364
18836W        W32250   6.981  10.107  13.994 -0.0681  0.0497 -0.1995
18837W        W32251   2.613   3.781  11.234 -0.0141  0.0153 -0.0963
18838W        W32252  15.005  18.185   6.247 -0.3135 -0.2129 -0.1502
18839W        W32253   6.215  12.612   0.751  0.3552 -0.1062  0.0378
18840W        W32254   8.821  12.517   4.928  0.3555 -0.1013  0.0907
18841W        W32255  10.179   4.243  15.305 -0.0128  0.1392  0.0838
18842W        W32256   7.566   1.705   2.182  0.1896 -0.1295 -0.1478
18843W        W32257  14.887   2.276  15.162 -0.1172 -0.0850 -0.0472
18844W        W32258  15.544  11.578  15.367  0.0412  0.1709  0.1703
18845W        W32259   0.477  14.251  14.162  0.0495 -0.2617 -0.1538
18846W        W32260  12.061  13.441   1.190  0.2815  0.0949  0.0590
18847W        W32261  14.063   5.295  15.735 -0.1604  0.0490  0.0638
18848W        W32262  16.749   3.487   0.800  0.0078  0.0754  0.0386
18849W        W32263  17.744   1.379  11.853  0.2405  0.0684 -0.0568
18850W        W32264  13.884   6.627   3.565 -0.0874  0.0891  0.1443
18851W        W32265   4.751  15.218   0.707  0.1934  0.1919 -0.0160
18852W        W32266   2.477   3.672  14.180 -0.1240  0.0493 -0.0525
18853W        W32267  14.148   3.570  10.437  0.3502  0.1651  0.0114
18854W        W32268   3.749   6.184   4.690  0.0009 -0.0675  0.1087
18855W        W32269  15.217  11.277  10.989  0.0815  0.0195 -0.1668
18856W        W32270  12.095   7.111  15.547 -0.0877 -0.1588 -0.1642
18857W        W32271   0.080  16.927   4.813  0.1688 -0.0928  0.0334
18858W        W32272   0.612  12.215   5.004  0.0297  0.0740 -0.0555
18859W        W32273  17.749   2.344  15.687  0.1184  0.1215 -0.1215
18860W        W32274   3.090  18.233  14.434 -0.1030  0.2901  0.1501
18861W        W32275  16.203  16.095  13.097 -0.0174  0.2162 -0.0439
18862W        W32276   0.273   1.172  11.675 -0.0169  0.2269 -0.0625
18863W        W32277  10.648  15.921  12.336  0.1919  0.1607  0.1280
18864W        W32278   6.159   1.457  16.393 -0.0738 -0.3407  0.1509
18865W        W32279   5.771   5.546   2.220 -0.1908 -0.2887  0.2875
18866W        W32280  16.943   6.264  15.083 -0.2606  0.0971 -0.0607
18867W        W32281  13.706  18.294  12.313  0.2288  0.0680 -0.0394
18868W        W32282   3.412  17.147  16.067  0.1668  0.3124 -0.0203
18869W        W32283  13.611  11.369  14.376 -0.1879  0.0155 -0.0329
18870W        W32284   2.889  15.588   6.465  0.1167  0.1220  0.0439
18871W        W32285   2.093  13.315  12.280  0.1128  0.3642  0.0240
18872W        W32286   8.602  13.686  14.134  0.0506  0.2098 -0.1020
18873W        W32287  13.344   1.840  12.571 -0.2086 -0.1593  0.0110
18874W        W32288   5.407   9.523  12.564  0.0016 -0.1101  0.2823
18875W        W32289  15.408   1.204   5.151  0.1211 -0.0625  0.0352
18876W        W32290   8.202  11.590  13.261  0.0424 -0.1799  0.2448
18877W        W32291   0.210  10.900  10.942 -0.2843 -0.0480  0.1019
18878W        W32292  11.076   8.482  11.650 -0.0678  0.0241  0.0428
18879W        W32293  17.539  14.102  14.978  0.0504 -0.0747  0.0130
18880W        W32294   8.960  12.281   2.561 -0.1146  0.0532  0.1689
18881W        W32295  11.495   7.764  11.197  0.0710  0.2192 -0.3375
18882W        W32296  12.757   7.565  11.018  0.1515  0.2031  0.2588
18883W        W32297   1.341  15.796   4.417  0.4084 -0.1108  0.2160
18884W        W32298   9.663  10.651   2.486 -0.0405  0.0150 -0.1737
18885W        W32299  12.221   6.357   1.969 -0.1125 -0.2262  0.3074
18886W        W32300   4.093  17.311  15.257  0.2097 -0.0980 -0.0429
18887W        W32301   6.497   4.611   2.894 -0.0655 -0.0912  0.0273
18888W        W32302   9.005  13.353  13.404 -0.0821 -0.2984 -0.0065
18889W        W32303   7.841   5.008   1.420  0.1998  0.0446  0.0724
18890W        W32304   4.739  17.015  16.405 -0.1290 -0.1735  0.1094
18891W        W32305   5.663  13.094  13.291  0.0050  0.0154  0.2361
18892W        W32306  11.053   0.963  16.429 -0.0528 -0.3799 -0.1685
18893W        W32307   4.726   7.281   3.187 -0.1497  0.3681 -0.1666
18894W        W32308  14.645   5.798   4.552  0.0361 -0.2355 -0.2752
18895W        W32309   6.270  10.825   2.644 -0.3381  0.3556 -0.2773
18896W        W32310  17.015   3.395   3.001  0.1147 -0.3641 -0.2144
18897W        W32311  17.934  18.373   2.899 -0.3707 -0.1145  0.3824
18898W        W32312  11.339  15.278   4.760  0.0054 -0.5078 -0.1341
18899W        W32313  14.512  15.624  16.457  0.2051  0.1270  0.5164
18900W        W32314  17.527   4.900  14.045  0.0806  0.1573 -0.1949
18901W        W32315   5.037   1.201   1.519 -0.1648  0.2268  0.2673
18902W        W32316   6.224   5.545   0.563 -0.0768 -0.2112  0.0986
18903W        W32317   5.447   6.617   3.671  0.0882  0.0209 -0.1217
18904W        W32318   9.786   7.042   1.321 -0.0209  0.0631 -0.0214
18905W        W32319   6.351   6.329  10.889  0.2664  0.2598  0.0374
18906W        W32320   9.153  15.534  12.716 -0.0046 -0.1694 -0.2928
18907W        W32321  13.093   2.026   9.557  0.2837 -0.0178 -0.0128
18908W        W32322  12.617  17.846   2.519 -0.0686  0.0331 -0.0527
18909W        W32323  11.858   6.076   0.487  0.2151 -0.2437  0.1939
18910W        W32324   3.134   1.437   2.862 -0.2036 -0.1503 -0.2365
18911W        W32325  17.337   2.214  13.126  0.3483  0.3314  0.0993
18912W        W32326  14.110   4.805  15.229  0.1848 -0.2068  0.3321
18913W        W32327  15.377  12.795  12.104 -0.0305 -0.3265  0.1009
18914W        W32328  14.103   6.868   0.562 -0.2446 -0.2041 -0.0400
18915W        W32329   1.456  14.052  11.785 -0.0897  0.0075 -0.0833
18916W        W32330   9.797   0.534   2.721 -0.0708  0.0232 -0.1188
18917W        W32331   7.558  10.456   5.320  0.0752 -0.0164 -0.1963
18918W        W32332   7.590  10.969  13.733 -0.2412  0.0009  0.0736
18919W        W32333   7.066  10.591  14.153 -0.3059  0.1300 -0.2648
18920W        W32334  16.877   6.169  13.001  0.1659  0.1558  0.3528
18921W        W32335   5.873  11.334  16.428 -0.1474  0.3282  0.0708
18922W        W32336   2.020  16.703   1.968  0.2044 -0.2453  0.0999
18923W        W32337  17.276   0.151  14.831  0.1856  0.2248 -0.0158
18924W        W32338   3.950   0.906  11.400 -0.1307  0.1710  0.1507
18925W        W32339  14.659   1.965   2.197 -0.0259 -0.0480 -0.1995
18926W        W32340   4.528  12.179  12.645  0.0921  0.1439  0.0747
18927W        W32341   6.254  12.053  15.694  0.1551  0.2108 -0.2757
18928W        W32342   8.356   1.540  10.959 -0.0819 -0.1786 -0.2387
18929W        W32343  12.817   5.539  12.874  0.3626 -0.0639  0.0498
18930W        W32344  11.832   7.399   5.341  0.2432  0.1816 -0.0555
18931W        W32345  11.258   6.955  11.925 -0.2877 -0.0728  0.2412
18932W        W32346  10.052   1.654  15.046 -0.1435  0.2408 -0.1301
18933W        W32347  11.455  18.170  15.536 -0.1104 -0.0949  0.0715
18934W        W32348   5.037   5.656  11.360 -0.2055  0.1070 -0.4917
18935W        W32349  17.887   4.809   0.695  0.3685 -0.0486 -0.1728
18936W        W32350  14.487  18.189  15.257 -0.0763 -0.1233 -0.0942
18937W        W32351  17.455   5.835  13.032  0.1988  0.0094 -0.0212
18938W        W32352   1.391  15.701  14.591 -0.1347 -0.0457  0.0898
18939W        W32353   4.021  10.927  11.406  0.1708  0.2511 -0.2961
18940W        W32354  12.256  12.090  14.723 -0.2203 -0.2281 -0.0168
18941W        W32355   9.685   4.478   4.660  0.0255 -0.1178 -0.1267
18942W        W32356   6.324  10.523   4.719  0.0199  0.2110  0.3873
18943W        W32357   2.948  12.428   5.211 -0.1731 -0.0211 -0.0396
18944W        W32358   3.510   0.061   4.656  0.2893  0.0372 -0.1767
18945W        W32359  10.368  13.652   5.108 -0.2608  0.2832 -0.1891
18946W        W32360   4.881   0.417  12.896 -0.4070  0.1261  0.0342
18947W        W32361  14.480   9.906  13.726 -0.2312 -0.0964  0.1526
18948W        W32362  18.385  12.657   5.596 -0.0302  0.0129 -0.0142
18949W        W32363  12.811  10.693   1.989 -0.0015  0.0715 -0.1313
18950W        W32364  10.684  14.594   6.208  0.2220  0.1004 -0.0303
18951W        W32365  14.428   9.707  14.949 -0.1578  0.0380  0.3400
18952W        W32366  18.349  14.811   5.111  0.0838  0.0081  0.0066
18953W        W32367   6.215   9.430  13.669 -0.1977 -0.1097 -0.0714
18954W        W32368  14.742  12.621  11.990 -0.0324  0.2831  0.1062
18955W        W32369   7.738  11.584  13.553 -0.0375 -0.0469  0.2118
18956W        W32370   7.868  14.207   2.829  0.1844  0.1895 -0.0681
18957W        W32371   7.308   0.961  13.455  0.0327  0.3817 -0.0067
18958W        W32372  14.763   4.930  14.498  0.1849 -0.0152 -0.0178
18959W        W32373   4.256   7.824  13.812  0.0865 -0.1277 -0.0397
18960W        W32374  12.640   6.153   2.037  0.0273  0.2218 -0.1375
18961W        W32375   1.163   7.801  10.782  0.0448 -0.0518 -0.1170
18962W        W32376  17.526  18.261  15.083 -0.3253 -0.1132  0.0761
18963W        W32377   1.198   0.106   2.334  0.3487  0.1497  0.1606
18964W        W32378  11.766  16.792  11.587  0.1684 -0.1476  0.1559
18965W        W32379  14.125  17.709  15.337  0.1540 -0.3129  0.2822
18966W        W32380  12.842  14.765   0.849 -0.0545  0.1161  0.1286
18967W        W32381   7.386   1.292  13.073  0.2514  0.1760  0.0096
18968W        W32382  11.424  10.860  13.220 -0.3674 -0.0577 -0.0988
18969W        W32383  11.591   0.050   5.032  0.2382 -0.1438 -0.0088
18970W        W32384  18.135   1.586  13.709  0.1255 -0.1862 -0.0701
18971W        W32385   1.111   4.771   5.009  0.0730  0.0618 -0.0587
18972W        W32386   2.775  10.188   4.773  0.0487 -0.0792  0.2616
18973W        W32387   9.510  15.211  13.087  0.1391  0.1487  0.3076
18974W        W32388   6.938  15.719  11.686  0.0815 -0.3418  0.0871
18975W        W32389   7.177   5.075   4.768  0.0622 -0.1440 -0.1608
18976W        W32390  10.025  14.850  14.169  0.2124 -0.2561 -0.3631
18977W        W32391  10.890  17.575   3.247  0.2926 -0.3223 -0.0912
18978W        W32392  12.021   7.647  15.779  0.1727  0.0596 -0.1066
18979W        W32393   1.496  12.454   2.965 -0.0518 -0.1332  0.0085
18980W        W32394   8.995  16.905   3.558  0.1539  0.0774 -0.0385
18981W        W32395   9.332   7.148  10.086  0.0047  0.3098 -0.3026
18982W        W32396  12.793   7.928   2.953  0.1973 -0.2647 -0.5625
18983W        W32397  13.598   9.981  11.259 -0.2201  0.3018 -0.0174
18984W        W32398   7.329  18.142   5.326 -0.2269  0.2556  0.2817
18985W        W32399   8.935  15.699  15.271 -0.1208  0.0412 -0.0126
18986W        W32400   3.400   9.702  12.632  0.1058  0.0488 -0.0968
18987W        W32401  11.341  10.031   2.134  0.1144  0.1896  0.1751
18988W        W32402   5.878   6.277   5.575  0.1672  0.0218 -0.2459
18989W        W32403  12.934  15.134   4.421 -0.0280  0.3380 -0.1345
18990W        W32404   4.989   1.345  12.306  0.0279  0.0432  0.2494
18991W        W32405   0.911  11.691   3.001 -0.0166 -0.3012  0.2140
18992W        W32406   7.650   6.292  12.678 -0.4686 -0.1387 -0.2755
18993W        W32407   5.154   4.359  15.871  0.2967 -0.0519 -0.0363
18994W        W32408  17.738   8.517  15.645 -0.2975 -0.2097  0.1409
18995W        W32409  15.106  15.339  14.672  0.2922  0.1146  0.1437
18996W        W32410   1.522   6.303   5.153 -0.1964  0.4072 -0.0824
18997W        W32411   1.250  12.745   5.372  0.3655 -0.0149  0.0023
18998W        W32412  17.682  13.376  14.893  0.1424  0.2671 -0.0597
18999W        W32413   3.466   1.202   0.492 -0.0105 -0.1434  0.3892
19000W        W32414   6.970  15.193   2.883 -0.4443 -0.0942 -0.2846
19001W        W32415   2.607   7.977   2.780 -0.1478 -0.1915  0.1627
19002W        W32416   8.821  17.356   5.067 -0.2434  0.2996  0.4715
19003W        W32417   0.781   3.803   3.785 -0.0244  0.0558 -0.0321
19004W        W32418  13.412   5.167   0.570  0.1624  0.1849 -0.0379
19005W        W32419   8.937  17.806  11.646  0.0383 -0.0953 -0.0039
19006W        W32420  10.845  15.866   5.343  0.0426  0.0271  0.0405
19007W        W32421   3.563   0.197   4.173  0.2529 -0.0354 -0.5839
19008W        W32422  16.795   3.917  14.713 -0.0725 -0.3581  0.2114
19009W        W32423  13.676  12.262   3.352 -0.1877  0.0618  0.0262
19010W        W32424  11.300  14.522  14.445  0.2832  0.0546 -0.0755
19011W        W32425   2.232  14.702   4.355 -0.1468  0.1961 -0.3807
19012W        W32426  11.345  13.567  12.174  0.1835  0.0990 -0.0369
19013W        W32427  12.192  12.927  16.214  0.1849  0.2656 -0.0701
19014W        W32428  10.170   8.529   1.915 -0.0609 -0.3274  0.1375
19015W        W32429  15.786  11.937  15.165 -0.0451 -0.0105 -0.1417
19016W        W32430   5.279  14.433  14.204 -0.1143 -0.1389 -0.2918
19017W        W32431  17.148   0.136  11.913 -0.2260  0.0282  0.2407
19018W        W32432   3.213   6.873   4.979  0.0082  0.2489  0.0843
19019W        W32433  11.146  14.437   2.350 -0.1323 -0.2088  0.0691
19020W        W32434  16.973  14.749  16.099  0.1292  0.1720 -0.0404
19021W        W32435   9.061   8.144  15.269  0.0633  0.1550  0.1998
19022W        W32436  14.252  13.470   6.529  0.0021  0.1427 -0.0185
19023W        W32437   9.868  16.507  15.804  0.0010  0.2894 -0.2355
19024W        W32438  14.413   1.822   3.875  0.1755 -0.3604 -0.1060
19025W        W32439   6.943   1.349   1.106 -0.1709  0.0134  0.1307
19026W        W32440   4.453  11.435  11.526  0.4235 -0.0957 -0.2276
19027W        W32441   9.702  10.994  11.267 -0.0275  0.2296 -0.1786
19028W        W32442   4.511  17.452   4.653 -0.0157  0.0407 -0.0115
19029W        W32443  16.557  14.536  13.687 -0.0441  0.0167 -0.0424
19030W        W32444   6.766  15.793   3.965  0.2090  0.1093  0.0837
19031W        W32445   8.487   5.584  10.658  0.0992 -0.1625 -0.3137
19032W        W32446  10.797   6.762   3.476  0.0503 -0.0605  0.1178
19033W        W32447  11.748  10.402  15.909  0.0180  0.1019 -0.1245
19034W        W32448   2.481  12.100  13.509  0.1243  0.0563  0.1408
19035W        W32449  12.662   5.379  13.345  0.1180  0.1896  0.3235
19036W        W32450  14.529  10.689   1.733  0.0690 -0.1031 -0.1759
19037W        W32451   1.840   8.791   5.158  0.1569 -0.2333 -0.0006
19038W        W32452  14.977   7.827  16.370 -0.4566 -0.3554  0.2222
19039W        W32453   3.365   2.846   0.772  0.0063  0.0891  0.0476
19040W        W32454  15.821   7.450   9.566  0.0251 -0.0366  0.0962
19041W        W32455   7.746   6.750  11.289  0.4275  0.0358 -0.0840
19042W        W32456  11.682   8.694   3.372  0.0485  0.0186  0.2971
19043W        W32457   0.063   2.612  12.232 -0.1792 -0.0432 -0.1106
19044W        W32458  16.216  12.648  15.801 -0.1830 -0.1044 -0.0735
19045W        W32459  17.548   0.226   6.054 -0.0010 -0.1456  0.0813
19046W        W32460   3.053   4.441   0.490  0.2092  0.1991 -0.1085
19047W        W32461   1.283   0.173   4.089 -0.1993 -0.1620 -0.1155
19048W        W32462  10.191  12.373   4.601 -0.1892  0.2157  0.1435
19049W        W32463  11.973  14.547   4.662 -0.1090 -0.0146  0.1372
19050W        W32464  13.794  12.362  12.280 -0.0375 -0.2652  0.1576
19051W        W32465  15.716   9.794  15.049 -0.0800  0.1506  0.2593
19052W        W32466   6.160  15.567  11.364  0.1509  0.0221  0.0428
19053W        W32467   8.023  18.319   1.996 -0.1658 -0.0220  0.0927
19054W        W32468   9.339  13.246  12.141  0.1004 -0.1293  0.0138
19055W        W32469  16.627   3.614  11.130  0.0505  0.3160  0.0181
19056W        W32470  10.852  10.908   5.206  0.2739  0.2838 -0.1967
19057W        W32471  13.122   8.556  13.677 -0.1492 -0.0379 -0.0904
19058W        W32472  17.925   3.233   0.388 -0.1711  0.2914 -0.2477
19059W        W32473   4.974  16.152  12.836 -0.0233  0.0640  0.0405
19060W        W32474   6.380   9.252   4.754  0.1994 -0.2164 -0.0170
19061W        W32475  15.737  12.833   1.883  0.0824  0.0121  0.2418
19062W        W32476  11.811   8.248   4.895  0.3656 -0.3086  0.0776
19063W        W32477   3.968   2.735   4.073  0.1930 -0.0815  0.1716
19064W        W32478   8.719   2.745  15.219  0.0879  0.0360  0.2500
19065W        W32479   4.368   4.927  13.413  0.1574 -0.0517 -0.0835
19066W        W32480  13.926   5.209  11.220 -0.1088  0.0977 -0.0212
19067W        W32481   3.104   3.549   2.843  0.1050  0.1378  0.3174
19068W        W32482  11.105   3.320   2.180  0.1186  0.0381 -0.0671
19069W        W32483  15.904   0.376  16.474 -0.1749 -0.1532  0.1243
19070W        W32484   2.319  17.535   4.113 -0.1033  0.1509  0.2896
19071W        W32485  12.346   3.408  11.295  0.0465 -0.3214 -0.0243
19072W        W32486  12.554   2.889  12.071  0.1805 -0.0187 -0.3681
19073W        W32487   6.869  16.991  11.899  0.0144 -0.0179  0.1561
19074W        W32488   9.892   4.682  14.569 -0.3814  0.2801  0.0386
19075W        W32489  12.927   2.791  12.988  0.0979 -0.2290 -0.0624
19076W        W32490  14.732   3.940  10.557  0.2900  0.2944 -0.0113
19077W        W32491  14.278   3.804   1.148 -0.1910 -0.2027  0.1908
19078W        W32492   7.599   7.731   4.314 -0.2824  0.0832  0.2325
19079W        W32493   4.556   5.331  15.511  0.0768 -0.0531  0.0592
19080W        W32494   5.229  14.103  11.899  0.0793  0.0502  0.4098
19081W        W32495  13.815   7.998   2.600  0.1700 -0.0073 -0.2765
19082W        W32496  13.526  10.873  14.208  0.0535 -0.1157 -0.0967
19083W        W32497   6.929  17.272  10.923  0.1182 -0.0415 -0.1096
19084W        W32498  12.583   1.610  10.696 -0.2345 -0.2989  0.2491
19085W        W32499   3.705  10.214  12.121  0.0365  0.1391 -0.0995
19086W        W32500  16.188  15.021   4.476  0.0149  0.1227  0.0999
19087W        W32501  14.664   5.527   5.810  0.1396  0.3149 -0.0469
19088W        W32502   4.895  17.446  15.067 -0.0145 -0.2012  0.0551
19089W        W32503  12.736   6.400  11.103 -0.0645 -0.0355 -0.0930
19090W        W32504   5.491  13.143  14.752 -0.0868 -0.0011 -0.1790
19091W        W32505   8.988   8.849  11.279  0.2837 -0.0709  0.0091
19092W        W32506   5.840  10.994   3.085 -0.1021  0.0412  0.0960
19093W        W32507   8.689   0.843  14.457 -0.0268  0.3651  0.2957
19094W        W32508   4.376  10.197   4.835 -0.1431 -0.1109 -0.0634
19095W        W32509  14.646  10.183  14.105 -0.1097  0.3526  0.2002
19096W        W32510   7.545   7.799  12.541  0.1000 -0.2554  0.1684
19097W        W32511   4.460  18.207  13.626  0.4395 -0.2432  0.2962
19098W        W32512  11.041   0.093   2.159  0.0463 -0.0359  0.3044
19099W        W32513   3.216   0.414   1.769 -0.0739  0.1478  0.0516
19100W        W32514   1.261  17.457   2.225 -0.1207  0.1543 -0.0747
19101W        W32515   3.499  16.584   2.864 -0.0942  0.2889 -0.0149
19102W        W32516  15.709  11.395  11.120  0.1044  0.1728  0.2134
19103W        W32517   3.695  18.302  10.476  0.0010  0.0925 -0.0149
19104W        W32518  15.562   4.324   4.378  0.0272 -0.0269  0.0798
19105W        W32519   1.584  13.124  13.579 -0.0582  0.0389  0.3085
19106W        W32520  17.508   8.778   0.019 -0.1841  0.2520  0.3526
19107W        W32521   4.545  12.546  10.248 -0.0348  0.0858 -0.0521
19108W        W32522  11.766  15.644   4.746 -0.2092 -0.1315  0.2249
19109W        W32523   4.757   9.434   4.396 -0.1115  0.0669  0.1366
19110W        W32524   4.476  14.442   2.823  0.0387 -0.2864 -0.0924
19111W        W32525  10.284  14.964   1.375  0.0654  0.2193 -0.1488
19112W        W32526   9.681   0.502  12.787  0.1421 -0.3022  0.4417
19113W        W32527  12.080   7.428   4.825  0.1053 -0.5219 -0.1619
19114W        W32528  14.017  10.351   0.337  0.0227  0.1509 -0.2116
19115W        W32529   4.074   6.384  10.610 -0.1808 -0.3042  0.2832
19116W        W32530   8.834   1.944  15.417  0.0758 -0.0657 -0.1100
19117W        W32531  12.109  15.809   1.413 -0.1354 -0.2101  0.1313
19118W        W32532  16.165  16.204   0.393  0.2025 -0.0668 -0.1951
19119W        W32533   8.383   3.878   2.805  0.1104  0.0850  0.3047
19120W        W32534   6.047  14.236  11.560 -0.0008 -0.2942  0.0007
19121W        W32535   5.653   8.882  11.369 -0.3858  0.1454  0.1047
19122W        W32536   2.257   1.197   2.648 -0.0908  0.0390  0.1665
19123W        W32537   1.085   8.275  12.520 -0.1083 -0.3724  0.0908
19124W        W32538  16.644  15.432  16.444  0.0591  0.1597  0.0216
19125W        W32539   4.788   9.463   3.224 -0.1570 -0.2867  0.0020
19126W        W32540   3.357  16.896   4.550 -0.0482 -0.1799  0.0430
19127W        W32541  15.270   1.746   4.361 -0.1378  0.2213  0.1354
19128W        W32542   8.160  18.010  12.906  0.2493 -0.0367  0.0666
19129W        W32543  16.381   9.944   4.056 -0.1070  0.1868 -0.0344
19130W        W32544  11.085  14.769  16.278  0.0573 -0.2158  0.0420
19131W        W32545  12.415  17.340   3.271 -0.3226 -0.1878  0.0528
19132W        W32546   3.873   1.254  14.142  0.0475  0.3930  0.2594
19133W        W32547   3.724   7.122  14.982  0.0918 -0.1198  0.2539
19134W        W32548   4.489   7.001  12.563 -0.0077  0.0179  0.0908
19135W        W32549   3.259  15.272   0.330  0.0225 -0.0124 -0.2993
19136W        W32550   8.218  14.438  11.743 -0.1594 -0.2356  0.1708
19137W        W32551  11.329  12.997  15.558 -0.0188  0.0385  0.0333
19138W        W32552  12.419   4.056   5.261  0.0855 -0.0820 -0.3341
19139W        W32553   7.282   2.513  10.321  0.1622 -0.1688 -0.0503
19140W        W32554  13.868   4.167  12.143 -0.1562  0.1011  0.0814
19141W        W32555  13.052   6.564  10.214 -0.3468 -0.3593 -0.1821
19142W        W32556  17.724   2.524  10.460 -0.1908  0.1679  0.2206
19143W        W32557   4.486  17.559   3.122 -0.0764 -0.0305 -0.2817
19144W        W32558  12.052   0.260  10.063 -0.0742 -0.0941 -0.3846
19145W        W32559  15.232   8.435   0.254  0.4485  0.1007 -0.0567
19146W        W32560   0.476   3.747  16.093  0.1313 -0.1341  0.2259
19147W        W32561  13.981  10.405   5.117  0.0904  0.2091  0.3035
19148W        W32562  14.551   7.624  14.138  0.3643 -0.0505 -0.1193
19149W        W32563   6.556  16.127   0.451  0.1632 -0.2990 -0.0063
19150W        W32564  17.399  10.621   6.226 -0.4424 -0.1023  0.2019
19151W        W32565  16.294  13.377  11.311  0.1056  0.0385  0.0871
19152W        W32566   3.425  16.161   0.168 -0.3106 -0.2702 -0.1795
19153W        W32567   0.335   5.834  14.922 -0.2282  0.0135 -0.0256
19154W        W32568   5.057   4.358   4.721  0.0498  0.2633  0.1135
19155W        W32569   5.248   4.627   1.441 -0.2730  0.2247 -0.1499
19156W        W32570   7.098  17.257   4.998 -0.2973  0.0410  0.1227
19157W        W32571   6.007   4.364   1.269 -0.1463 -0.2905  0.0708
19158W        W32572   4.627   7.274   1.697 -0.0383  0.0048 -0.1022
19159W        W32573  16.939   5.942  11.534  0.5173 -0.2786 -0.4066
19160W        W32574   0.327   7.966   5.549  0.0363 -0.2070  0.0706
19161W        W32575   1.101  18.080  11.585 -0.1953  0.0188  0.0488
19162W        W32576  15.759   5.904  12.841 -0.0811 -0.0655 -0.0182
19163W        W32577   3.386  12.355  11.710 -0.2757 -0.1855 -0.0787
19164W        W32578   5.292  13.439  10.418 -0.3347  0.2313  0.1733
19165W        W32579   3.395   5.142  15.852  0.1667  0.1694 -0.0426
19166W        W32580   8.171   2.902  10.715 -0.1422 -0.2261  0.1384
19167W        W32581  15.193   6.971  11.420 -0.0461  0.2291 -0.1520
19168W        W32582   5.386   4.809   0.065 -0.0978  0.1887  0.2333
19169W        W32583  12.472  11.745   0.052 -0.2571  0.3287  0.1199
19170W        W32584  12.649   8.937   9.924  0.1689  0.2778 -0.1707
19171W        W32585  13.228   1.003   2.863  0.1062 -0.0750  0.3149
19172W        W32586   8.298  10.991   1.192 -0.0981  0.2055 -0.0420
19173W        W32587   1.051  15.241   5.735  0.0475 -0.2178  0.4650
19174W        W32588   6.558  15.735   5.626  0.1472  0.2094 -0.1836
19175W        W32589  16.803   6.358   1.085 -0.0936 -0.1335  0.1719
19176W        W32590   0.784  11.872  15.915 -0.0291  0.0972  0.1933
19177W        W32591  14.784   8.312  10.722  0.0890  0.1939  0.1837
19178W        W32592  11.635  12.340  13.630 -0.1040 -0.1181 -0.0383
19179W        W32593  14.608   3.908   2.263  0.1380 -0.0569 -0.0252
19180W        W32594  11.896   3.356  11.537 -0.0595  0.3283  0.3348
19181W        W32595   9.864  14.496   3.788  0.0676 -0.2515  0.0911
19182W        W32596  14.597   3.570   0.393 -0.4327  0.1426 -0.1174
19183W        W32597   3.058   3.507   3.716 -0.1033 -0.3942 -0.0886
19184W        W32598   4.544  15.340   4.471  0.1833 -0.1843  0.0828
19185W        W32599  14.048   6.087   1.305  0.1626  0.0215 -0.1409
19186W        W32600   9.245  17.280   0.981 -0.3464 -0.0611 -0.0088
19187W        W32601  13.522   6.520   5.239 -0.1877 -0.0102  0.0607
19188W        W32602  10.381   8.248  13.395 -0.0532 -0.2358  0.3749
19189W        W32603   5.340   7.494  14.541 -0.3819  0.0670  0.1329
19190W        W32604   1.010  12.999   3.540 -0.2143  0.0369  0.1130
19191W        W32605   2.963  14.425   3.640 -0.0237 -0.0007  0.3260
19192W        W32606   2.191   3.151   2.048 -0.0460 -0.0705  0.0392
19193W        W32607  15.757   2.623  13.470 -0.0934 -0.2050  0.0157
19194W        W32608   5.855   3.146   4.212  0.2209 -0.2479 -0.1909
19195W        W32609   7.699   2.601   4.207 -0.0408  0.2462 -0.0598
19196W        W32610   8.237  16.860   0.208  0.3127 -0.3502 -0.1314
19197W        W32611  17.520   3.887  11.009 -0.1841  0.0308  0.0010
19198W        W32612   4.932  15.690  11.335  0.2192  0.1598  0.2271
19199W        W32613  13.180   5.334   5.022 -0.2381  0.3940  0.1591
19200W        W32614  13.850   6.353  14.955 -0.0200  0.1129 -0.0498
19201W        W32615  10.781   9.521  11.614 -0.4401  0.0460  0.1246
19202W        W32616   7.275  13.620   1.726 -0.0903  0.1262 -0.1607
19203W        W32617   6.695  14.055  15.348 -0.1293  0.0050  0.2979
19204W        W32618  16.497   2.958   3.719 -0.0397 -0.3385 -0.2835
19205W        W32619   1.177  13.218   1.084  0.1851  0.2441 -0.3926
19206W        W32620   3.920   2.823  12.109 -0.1392  0.0125  0.0552
19207W        W32621   4.884  15.396  12.237  0.1784  0.1089  0.4609
19208W        W32622  17.480  17.374  13.390  0.2113  0.0328  0.2420
19209W        W32623   9.176   0.547  13.542  0.0549 -0.3211 -0.2686
19210W        W32624  15.472  10.759   3.588  0.0246  0.1461 -0.1123
19211W        W32625   6.510   8.578  12.736 -0.1779  0.0646  0.1636
19212W        W32626  17.876  15.640  13.361 -0.1455  0.0259  0.2309
19213W        W32627  12.902  10.978   1.462  0.0254 -0.0877  0.0549
19214W        W32628  11.000  16.567  11.143 -0.1516  0.4121 -0.2239
19215W        W32629   6.821   1.038  13.642 -0.1473 -0.2924 -0.3403
19216W        W32630  15.779  14.700  11.307  0.1497  0.0787 -0.1365
19217W        W32631   0.874  16.095   0.166 -0.0481  0.2729 -0.0966
19218W        W32632  16.959   1.278  16.163 -0.2445 -0.2502 -0.0024
19219W        W32633   2.409  13.900  15.512  0.0241 -0.4025 -0.0654
19220W        W32634  10.846   7.063   1.128  0.1022 -0.0834  0.1647
19221W        W32635   2.231   3.427  13.748  0.2198  0.1249 -0.2303
19222W        W32636   8.634  16.278   0.945 -0.0145 -0.1721 -0.1290
19223W        W32637  17.016   1.705   4.675  0.1847 -0.1570 -0.1101
19224W        W32638  16.156   5.565   4.465 -0.2585 -0.1971 -0.0906
19225W        W32639  15.121  17.723   4.978  0.1087  0.2955  0.4423
19226W        W32640   4.549   0.696   1.846  0.0072 -0.0031 -0.2865
19227W        W32641  14.089   5.985   4.687  0.1527 -0.0238  0.0410
19228W        W32642  17.649   2.305  12.668 -0.1535  0.3427  0.0310
19229W        W32643  11.698  12.995  13.161  0.2576  0.3570 -0.0290
19230W        W32644   4.392   9.588  16.173 -0.3481 -0.1811 -0.2604
19231W        W32645   9.041   2.089  13.241  0.1690  0.0699 -0.2333
19232W        W32646   6.779   6.306  14.488 -0.0937 -0.2146 -0.0248
19233W        W32647   9.643   3.668  11.120 -0.0901  0.1593  0.0642
19234W        W32648   0.320   3.910   2.119 -0.1668  0.3384 -0.0054
19235W        W32649  10.227  18.209  15.549 -0.0773  0.0089 -0.3965
19236W        W32650  16.664  10.435  15.922  0.0092  0.1114 -0.1961
19237W        W32651  14.000   3.449   1.910 -0.1868 -0.2604  0.0022
19238W        W32652  11.217  17.797  12.275  0.0527  0.2574 -0.0885
19239W        W32653  13.428  16.197   1.399  0.2285 -0.0548  0.2031
19240W        W32654  17.551  17.516  15.685  0.1248 -0.0290 -0.1427
19241W        W32655  13.032  12.023  12.691  0.0953  0.1489  0.2041
19242W        W32656  16.366  16.551   1.177 -0.0827  0.3170 -0.0818
19243W        W32657   5.994   5.054   1.687  0.2372  0.2201  0.2548
19244W        W32658   8.460   3.234  14.234  0.1908 -0.2085 -0.1184
19245W        W32659   3.873   0.042   2.895 -0.1567 -0.1663  0.2865
19246W        W32660  17.195  16.797  14.022  0.0085 -0.1322  0.1055
19247W        W32661  12.106   6.384   4.421 -0.0987  0.3204 -0.3935
19248W        W32662  17.489  13.200   2.988  0.4652 -0.0985 -0.1284
19249W        W32663  12.222   6.372  11.198  0.0456 -0.1147  0.2953
19250W        W32664  17.665  14.710   4.575  0.0280  0.1110 -0.0216
19251W        W32665   0.809   1.661  14.533  0.0608  0.1041 -0.0616
19252W        W32666  11.741  10.488   0.289  0.4763  0.1158 -0.2495
19253W        W32667  10.311   7.399   4.977 -0.1586 -0.3758 -0.0468
19254W        W32668   8.667  11.012   1.599  0.3343  0.3741  0.2641
19255W        W32669  18.292  17.105   5.420 -0.1348  0.3910  0.2648
19256W        W32670   9.976   0.637   1.798 -0.0715  0.1270 -0.0729
19257W        W32671  11.912  16.275  10.930 -0.3593  0.1322  0.0874
19258W        W32672   1.405  14.834   1.534  0.4012 -0.1683  0.0052
19259W        W32673  11.617  12.750   4.036  0.0758  0.2491  0.2562
19260W        W32674   5.899  11.161  12.024 -0.3442  0.5551  0.0855
19261W        W32675   2.027  12.063  16.180 -0.0206  0.2957  0.3110
19262W        W32676  15.341   2.028   0.142 -0.1779  0.0202  0.1558
19263W        W32677   4.082   2.941  11.671  0.0267  0.0397  0.1664
19264W        W32678  14.628  13.380   1.362 -0.3984  0.0397 -0.1589
19265W        W32679   6.096  18.048  11.807  0.0218  0.1346  0.0539
19266W        W32680   8.163   6.344  10.668  0.0975  0.1451  0.3200
19267W        W32681   1.229  13.286   4.126  0.2755 -0.1077  0.1364
19268W        W32682  16.519   2.181  13.995  0.2657 -0.1813 -0.2935
19269W        W32683  13.276   5.163   5.514 -0.2288  0.0983  0.1343
19270W        W32684   6.570   0.425  10.369 -0.0260 -0.1704 -0.0894
19271W        W32685  15.502  10.651  16.288 -0.0988 -0.1763 -0.0872
19272W        W32686   4.669  12.920  13.354 -0.0823  0.1481 -0.1593
19273W        W32687   9.644   1.647  11.335 -0.0365  0.0746  0.2111
19274W        W32688   1.830  10.537  13.948 -0.0413 -0.0763  0.0324
19275W        W32689  11.708   5.317  12.415 -0.1296 -0.1915 -0.1228
19276W        W32690   2.289   7.984   0.624  0.2576  0.0418 -0.1817
19277W        W32691   2.146   3.047   0.836  0.1148 -0.0887 -0.0852
19278W        W32692  10.055   1.170  16.348  0.1099 -0.2683 -0.0036
19279W        W32693   7.095   4.885  12.911  0.3656  0.1471  0.0879
19280W        W32694   9.307   7.567  12.888 -0.0232  0.0756 -0.1193
19281W        W32695   5.468  14.013  14.576  0.0546 -0.0357  0.2883
19282W        W32696   4.138   5.328   2.770 -0.0497 -0.2950 -0.4175
19283W        W32697  14.955   9.110   2.580  0.3063 -0.1616 -0.1113
19284W        W32698  12.889   1.751   3.505  0.1860  0.0049 -0.1281
19285W        W32699   7.496  16.561  14.842 -0.0392  0.0526  0.0428
19286W        W32700  15.218  11.916  15.134 -0.1749  0.1637  0.0978
19287W        W32701  14.918   3.045  15.855  0.4141  0.0269 -0.0827
19288W        W32702  15.888   3.291  12.303  0.1738  0.0561 -0.3096
19289W        W32703   3.605   1.356   4.890 -0.1678 -0.5046  0.1023
19290W        W32704   9.814   4.270   4.222 -0.0443  0.3257  0.0260
19291W        W32705  15.830   4.553   1.110 -0.2441  0.3444 -0.0448
19292W        W32706   1.672   1.053   4.144  0.1433 -0.1898  0.0778
19293W        W32707  18.195   2.742   5.656 -0.3510 -0.0936  0.0103
19294W        W32708  18.035   6.711   2.425 -0.0312 -0.2291  0.3149
19295W        W32709  10.559   1.256   4.769  0.0525  0.2326 -0.0244
19296W        W32710  13.768  13.685   3.310  0.0554 -0.1244  0.0488
19297W        W32711   3.055   6.723  14.455  0.1005  0.0691  0.0565
19298W        W32712   8.816  12.205  13.330  0.0513  0.1306  0.2028
19299W        W32713   4.812  17.243   2.603 -0.2782  0.2498  0.0995
19300W        W32714  12.239  16.000   4.563  0.0649 -0.2643  0.0889
19301W        W32715   5.714  15.785  11.368  0.2931 -0.0809 -0.1331
19302W        W32716  11.125  17.767  10.855 -0.1138 -0.1001  0.1314
19303W        W32717  15.628  13.344   0.532  0.3676  0.3069  0.0221
19304W        W32718   8.049   1.801  14.913 -0.0817  0.0776 -0.3270
19305W        W32719  11.641  17.113  10.725 -0.0281  0.2722 -0.2254
19306W        W32720   7.886   7.854  10.299 -0.2581  0.2011  0.0137
19307W        W32721   9.179   9.225   0.443  0.1797 -0.0491  0.1089
19308W        W32722  11.964  12.223   4.620 -0.0935 -0.0305  0.1570
19309W        W32723   8.545   7.700  14.459 -0.1241  0.0295  0.0703
19310W        W32724  17.975   3.508   2.680  0.1135  0.0444  0.3858
19311W        W32725   3.984   9.925   4.789  0.2396 -0.0355 -0.3122
19312W        W32726   0.725   9.743  11.529 -0.4223 -0.3823  0.2200
19313W        W32727  16.688   5.912   6.119  0.5319  0.2344 -0.0063
19314W        W32728  15.386  17.431  12.540 -0.0924 -0.1116  0.0482
19315W        W32729  13.459   2.124   0.899  0.3761 -0.2352  0.0429
19316W        W32730  10.314  10.713  10.375 -0.1880 -0.0183  0.2336
19317W        W32731   9.471  12.357   0.431  0.2391 -0.3367 -0.0762
19318W        W32732  12.231   2.391  11.203  0.1060 -0.2312 -0.0665
19319W        W32733  13.806   2.047  14.451 -0.1238  0.1320  0.0154
19320W        W32734   9.794  18.078  12.169 -0.1252  0.1971 -0.3916
19321W        W32735   3.706   0.267  14.283  0.0429  0.0423  0.2754
19322W        W32736  17.972   0.596   6.869 -0.2220  0.0063  0.0325
19323W        W32737  11.535  11.380   3.066  0.0936 -0.0913 -0.0065
19324W        W32738   8.651  15.024  10.996  0.0333  0.0976 -0.0985
19325W        W32739  18.065  16.498  12.814 -0.0996 -0.0707 -0.2485
19326W        W32740  11.415   2.877  15.510  0.2321 -0.0113  0.0661
19327W        W32741  10.242   6.261  15.312 -0.5050  0.1418 -0.4653
19328W        W32742   3.522   6.971  11.955 -0.0047  0.0758 -0.1267
19329W        W32743  10.779   3.293  12.878  0.0898  0.1169 -0.1113
19330W        W32744   2.780   5.275   2.831 -0.3401 -0.0349  0.1764
19331W        W32745  11.659  18.125  13.631  0.0129  0.2873 -0.1250
19332W        W32746   2.363   2.894  12.144 -0.1573  0.2021  0.1741
19333W        W32747   3.780   6.534  13.845  0.0552 -0.1672  0.0406
19334W        W32748   2.178  14.279   4.737  0.5047 -0.0360 -0.0524
19335W        W32749   0.610   3.335   5.906 -0.2276 -0.4550  0.1107
19336W        W32750   9.914   8.972   1.682 -0.1930  0.0940  0.4157
19337W        W32751  17.565   0.324  14.430 -0.2201  0.0377  0.0710
19338W        W32752  11.699   3.163  14.613  0.1714 -0.0746 -0.0636
19339W        W32753   9.161   2.534  12.308  0.0772 -0.0761  0.2539
19340W        W32754   9.171  10.891  16.055  0.1786  0.2497 -0.1438
19341W        W32755  10.178  14.467  16.042 -0.2457 -0.1368  0.1077
19342W        W32756   3.767  11.889   4.997 -0.2450 -0.1231  0.4568
19343W        W32757   8.618   5.738  14.673  0.0035  0.0669  0.0540
19344W        W32758  16.899   8.487  12.239  0.1606  0.2474 -0.0637
19345W        W32759  15.499  17.677   0.296 -0.0751 -0.1764 -0.1550
19346W        W32760   3.544  16.235   1.204 -0.3190  0.0356 -0.0129
19347W        W32761  18.166  11.934  16.220 -0.0622 -0.0775  0.0071
19348W        W32762  15.014  10.297   3.912 -0.0957 -0.0960  0.1152
19349W        W32763  13.866  16.051   1.238 -0.2117  0.3210  0.0308
19350W        W32764   0.669   1.744   4.994 -0.1189  0.0720 -0.0323
19351W        W32765   1.660  11.303  14.995 -0.1860  0.1146 -0.1470
19352W        W32766   6.760   2.837  13.764 -0.0190  0.2404 -0.0962
19353W        W32767   0.166   2.083   4.952  0.0283 -0.0462 -0.3709
19354W        W32768  13.497   8.149  16.508  0.1086  0.0935  0.1279
19355W        W32769  14.499  15.819  14.561 -0.3887  0.0655  0.0653
19356W        W32770  13.545   5.593  12.255 -0.2675  0.0949  0.2443
19357W        W32771  14.364   4.066   2.633  0.1632  0.0935  0.2605
19358W        W32772   3.275  17.086   1.181  0.1706  0.1212  0.2287
19359W        W32773   1.278   9.056   3.211  0.1787  0.0229 -0.2026
19360W        W32774   9.833  17.994  11.604  0.1769  0.0912  0.2532
19361W        W32775  14.045   9.826   6.199 -0.3422  0.2514 -0.0619
19362W        W32776  16.228   2.689   5.027 -0.2185  0.0732 -0.1088
19363W        W32777  15.181   4.544   2.447 -0.1404  0.1700 -0.0059
19364W        W32778  14.969  15.864  15.456  0.1208 -0.1932  0.0702
19365W        W32779   3.787   0.207  15.580  0.1664  0.0357 -0.1331
19366W        W32780   3.435  16.735  15.835  0.0919  0.2989  0.1886
19367W        W32781   6.575  11.141   3.473 -0.0476  0.2639  0.0210
19368W        W32782   4.549   9.079  12.439 -0.0867  0.0876  0.3749
19369W        W32783  13.588   2.172  12.239  0.1209 -0.1322 -0.0890
19370W        W32784  13.872  15.463   5.718 -0.1032  0.1467  0.4423
19371W        W32785  11.105   4.880   1.857 -0.3540 -0.3601 -0.2326
19372W        W32786   6.251  13.708  15.392 -0.2657 -0.1299  0.2203
19373W        W32787  12.551  11.822   0.908  0.0083 -0.5135 -0.1329
19374W        W32788   9.118   8.316   5.272 -0.1347  0.1903  0.1117
19375W        W32789   8.293   5.407   1.864 -0.1059 -0.1204 -0.1325
19376W        W32790  15.643   4.143   1.402 -0.4762 -0.0617 -0.5565
19377W        W32791  17.902  16.437   5.947 -0.2481 -0.2714 -0.0102
19378W        W32792   7.735   6.274   4.293  0.0958 -0.2824 -0.1053
19379W        W32793   7.318   1.129  12.269  0.1036 -0.0261 -0.1528
19380W        W32794  15.251  16.396  12.647  0.0594  0.0944  0.2120
19381W        W32795  13.049  11.076  14.942  0.0787 -0.1444  0.1030
19382W        W32796  16.482   2.486   2.534 -0.2192 -0.2763  0.1098
19383W        W32797   2.033  12.618  11.786  0.1215 -0.1830  0.0686
19384W        W32798   7.681  15.796  14.993 -0.3940 -0.1141 -0.0416
19385W        W32799  17.491   2.055   4.588  0.3385  0.3042  0.1359
19386W        W32800   2.768   8.387  13.739  0.0192 -0.2179  0.0219
19387W        W32801  13.483   8.330   2.775  0.3044  0.3619 -0.0915
19388W        W32802  18.324   6.524  10.272  0.1829 -0.0248  0.3464
19389W        W32803  15.420   8.059   1.612 -0.0434  0.0474 -0.0907
19390W        W32804  15.569  12.775   6.831 -0.0496  0.0632 -0.1235
19391W        W32805   5.698  11.619  12.211  0.0179 -0.0810  0.0234
19392W        W32806   6.059   6.773   0.412  0.0449 -0.1310  0.1949
19393W        W32807  13.387   2.075  15.592 -0.2917  0.2329  0.1609
19394W        W32808  16.588  11.480   0.799  0.2161 -0.3046  0.3340
19395W        W32809   5.910   4.054  11.481 -0.2754  0.0012 -0.0430
19396W        W32810   5.130   1.045  11.911  0.0521 -0.0165  0.1852
19397W        W32811   1.844   9.460  11.335 -0.2058  0.0389 -0.0424
19398W        W32812  11.944   5.984   5.816  0.3073  0.1011 -0.0001
19399W        W32813   4.627  11.860   2.433  0.1928 -0.1418  0.1634
19400W        W32814   9.171  11.279  11.284 -0.0639 -0.1338 -0.3598
19401W        W32815   9.701  16.742  12.912  0.1354 -0.2352 -0.3725
19402W        W32816  18.210   9.486  10.623 -0.0745 -0.0124 -0.1026
19403W        W32817  14.665  11.790   2.940 -0.0585  0.2773 -0.2521
19404W        W32818  11.743   1.230  11.055  0.1148  0.0826 -0.0470
19405W        W32819  17.184   6.365   1.501  0.1920  0.3577  0.1771
19406W        W32820  18.243   3.226  10.386 -0.1238  0.1058  0.1084
19407W        W32821  16.346   6.910   2.419 -0.2993  0.2023  0.1586
19408W        W32822  17.727  11.878   3.233 -0.3025  0.1769 -0.3326
19409W        W32823  12.453  16.869   5.330  0.1164  0.1605  0.1343
19410W        W32824   9.131   0.028   1.938 -0.0941 -0.0072 -0.1642
19411W        W32825   7.411   9.842  13.853  0.1270  0.1684 -0.0269
19412W        W32826  11.106   0.320   9.591  0.0196 -0.2665  0.1099
19413W        W32827   6.942  17.941   3.180 -0.1485 -0.1576  0.1834
19414W        W32828  13.336   3.656  10.169 -0.0377  0.3639 -0.1795
19415W        W32829   9.829   9.766   5.519  0.0811  0.1173  0.1170
19416W        W32830  10.145   2.366   5.584  0.0354 -0.0968  0.0362
19417W        W32831   4.789  10.055  15.351  0.0758 -0.0492  0.3428
19418W        W32832   3.648   1.436   3.829  0.0506 -0.1682  0.1529
19419W        W32833   2.333   8.403   2.719 -0.1780  0.0790  0.0722
19420W        W32834   1.273   3.013   3.979 -0.1708 -0.0279  0.1095
19421W        W32835   0.176  12.911  15.941  0.0053 -0.1223 -0.1546
19422W        W32836   8.466   9.779  11.833 -0.0874 -0.0811  0.0266
19423W        W32837   0.806  18.293   2.566  0.2267  0.1509  0.0919
19424W        W32838  10.528  16.639   0.396 -0.2038  0.0296 -0.3591
19425W        W32839  12.149   7.811  16.281  0.0246 -0.0616  0.0238
19426W        W32840  13.448   2.625  11.067 -0.0130 -0.1463 -0.0250
19427W        W32841   4.086   7.325  12.756  0.1949  0.2483 -0.0125
19428W        W32842  11.054   9.985  14.552  0.0655  0.2514  0.1189
19429W        W32843  10.382  14.213  15.650  0.0646 -0.3914  0.0514
19430W        W32844  11.803   4.147   0.985 -0.0963  0.0738  0.3416
19431W        W32845  11.933   3.705   0.584 -0.2068  0.1022 -0.0944
19432W        W32846  15.877  15.170   4.071 -0.1818 -0.0951  0.1626
19433W        W32847   4.666   7.472   3.670  0.1995 -0.0726  0.2159
19434W        W32848  14.799   2.338   1.771  0.1419 -0.2461  0.2591
19435W        W32849  13.086   9.893  11.821 -0.1935  0.0045  0.1585
19436W        W32850   4.566   7.272   1.125  0.1300  0.3726 -0.2632
19437W        W32851   5.535  17.059   5.766 -0.1644 -0.0992  0.1515
19438W        W32852   4.029  10.902   3.632 -0.1595 -0.1008 -0.1407
19439W        W32853   2.638   4.060  15.460 -0.0939 -0.1798 -0.0290
19440W        W32854   7.256  15.971  15.719  0.1003  0.3934 -0.1130
19441W        W32855  18.254  12.092  13.822  0.3471 -0.0330  0.2899
19442W        W32856   2.695  15.455   1.271  0.0654  0.0687  0.2341
19443W        W32857  12.443  14.518   4.906  0.1242  0.1515 -0.3784
19444W        W32858   5.790   1.411  14.517  0.0642 -0.0960 -0.4734
19445W        W32859  16.141   5.424   2.241  0.0749 -0.0018 -0.1109
19446W        W32860  10.064   6.801   1.861  0.4544  0.0313  0.1774
19447W        W32861  10.947   2.757  15.018  0.0530  0.2100 -0.1654
19448W        W32862  15.594  10.278   3.755 -0.0093  0.0100  0.0944
19449W        W32863   0.371  14.008   0.503  0.1302 -0.0552  0.0448
19450W        W32864   7.043  13.512   2.221 -0.1107 -0.1444 -0.0031
19451W        W32865  12.977  14.761  13.266  0.1145 -0.0339 -0.2025
19452W        W32866  14.106   5.553   1.105 -0.1432 -0.3456  0.0885
19453W        W32867   3.546  15.519   1.764 -0.1572  0.2812  0.3643
19454W        W32868   5.385  15.918  16.460  0.3106  0.0674 -0.0171
19455W        W32869  10.761   0.539   5.521 -0.0188  0.3083  0.1644
19456W        W32870  12.850  17.261   6.072 -0.1585  0.1193 -0.0591
19457W        W32871   0.801  18.166  13.682 -0.3656  0.0328 -0.1200
19458W        W32872  15.563   4.154   5.274 -0.3094  0.1880 -0.1941
19459W        W32873  14.990   0.067   3.015 -0.2480 -0.4251  0.0046
19460W        W32874   5.363   7.358   0.461 -0.1778 -0.2512  0.0247
19461W        W32875  15.823   2.885  14.345  0.0009  0.4937  0.0206
19462W        W32876   1.123  14.476  13.339 -0.1577 -0.0080 -0.0736
19463W        W32877  16.772   2.905  14.510  0.0525 -0.3248 -0.0151
19464W        W32878  10.200   9.905   0.276 -0.4074  0.0256 -0.2510
19465W        W32879  17.772   9.024  10.009 -0.0814  0.2016 -0.1315
19466W        W32880   0.691   1.125  11.991  0.4122 -0.1266  0.1451
19467W        W32881  10.668   5.248  14.780 -0.3700 -0.0003  0.1471
19468W        W32882   0.960   6.554  12.772  0.1731  0.0207 -0.0452
19469W        W32883  17.846   1.463   2.478  0.1114 -0.1425  0.1121
19470W        W32884  11.256  16.685  14.571  0.0860 -0.1366 -0.2440
19471W        W32885  16.145   1.823   3.876  0.2227  0.1868 -0.0449
19472W        W32886   9.405  16.908   5.566 -0.2206 -0.2930  0.2008
19473W        W32887   9.050   4.394  10.365  0.1212  0.2234 -0.1353
19474W        W32888   2.478  12.299  16.103  0.2750 -0.2403 -0.0730
19475W        W32889  12.553   6.631  12.925 -0.0550 -0.1558  0.1480
19476W        W32890  14.658  17.101   2.895  0.1954 -0.0986  0.1251
19477W        W32891   3.990  17.733   0.707 -0.2482  0.0634  0.1453
19478W        W32892   0.143  13.764  14.718  0.2988  0.3202  0.0677
19479W        W32893   0.833   5.055   9.871 -0.1012  0.2521 -0.0987
19480W        W32894  10.842  16.199   4.913 -0.1762 -0.0017 -0.0600
19481W        W32895  11.795   8.552  10.788  0.1761  0.0047  0.2361
19482W        W32896   9.060   5.835  14.520  0.0589 -0.0853  0.1429
19483W        W32897   6.993   1.566  14.076  0.0582  0.1603  0.0269
19484W        W32898   2.870   1.532  12.078 -0.0073 -0.2234 -0.4355
19485W        W32899  16.215  13.372   0.624 -0.0207  0.7223 -0.0475
19486W        W32900   2.483   1.540   4.185  0.0995 -0.1867  0.1477
19487W        W32901   2.390   6.865   0.596 -0.1503 -0.1618 -0.0440
19488W        W32902   3.555  12.147   1.645 -0.2754 -0.1159 -0.1677
19489W        W32903   7.004   4.378  13.678  0.3660  0.0492 -0.4268
19490W        W32904   6.536  11.271  10.352 -0.1897  0.1637  0.2184
19491W        W32905  13.330  16.109   2.757  0.0752 -0.3059 -0.0929
19492W        W32906  18.386  11.853  10.482  0.1241  0.0351  0.1824
19493W        W32907  15.426  14.596   5.134 -0.3516  0.1966  0.0044
19494W        W32908   0.152  13.614   5.240  0.1596  0.0677 -0.0842
19495W        W32909   0.590   3.592   4.203 -0.0101 -0.1372  0.0006
19496W        W32910   6.196   4.683   5.412 -0.1851  0.1647  0.0889
19497W        W32911  10.067   7.367  14.986  0.0800 -0.1724 -0.1732
19498W        W32912  13.908  14.372  15.958 -0.3251  0.1926  0.1659
19499W        W32913   3.853  13.035   0.631 -0.1197 -0.3655  0.1140
19500W        W32914  13.491  15.609   5.444  0.3397 -0.0685  0.3563
19501W        W32915  17.582  15.026  16.375  0.0060 -0.1534  0.1899
19502W        W32916  15.717   2.438   0.221  0.2423  0.0768  0.2171
19503W        W32917   4.856  11.259   4.493  0.0179  0.2692  0.1602
19504W        W32918  18.370   4.520   0.165  0.1624 -0.1694  0.1033
19505W        W32919  13.455   6.286   4.748 -0.1410 -0.2189 -0.3315
19506W        W32920   3.318   2.575  13.957  0.1291  0.0561 -0.2133
19507W        W32921  17.503  15.511   0.634  0.1620  0.2454  0.4501
19508W        W32922  12.812   7.158   0.326 -0.2190 -0.3478 -0.1579
19509W        W32923   3.804  10.750  14.098  0.3456 -0.0323  0.0589
19510W        W32924  10.993   3.871  10.629  0.0609 -0.1889  0.1184
19511W        W32925   9.134  14.426   4.817  0.0563 -0.0588  0.4163
19512W        W32926  15.336   2.560  13.276 -0.2036  0.0000 -0.0722
19513W        W32927   0.415   0.188  15.713  0.3027 -0.0533 -0.3427
19514W        W32928  10.843   0.924  12.102  0.1086 -0.2457 -0.1140
19515W        W32929   9.949   9.080   1.153  0.3795  0.0693 -0.2330
19516W        W32930   2.720  16.278   3.547 -0.0040  0.0963 -0.0064
19517W        W32931  10.191   1.505   4.038 -0.0339  0.0979 -0.0140
19518W        W32932   9.712  11.624  14.358  0.2529  0.0735 -0.0648
19519W        W32933  12.705  15.649   4.235 -0.1996 -0.2326  0.0941
19520W        W32934   5.982   6.201  12.291  0.3032  0.0866 -0.1235
19521W        W32935  14.443  16.152   6.803 -0.4727 -0.2076  0.1475
19522W        W32936   7.315   1.927   0.782 -0.0062 -0.0817  0.0159
19523W        W32937   5.370   5.781  10.819 -0.0988  0.0574 -0.1411
19524W        W32938  12.433  12.528   2.467  0.0676 -0.1128 -0.1389
19525W        W32939   1.792  15.711  12.711  0.4151  0.0781  0.1023
19526W        W32940  14.739  11.230   3.479 -0.1550  0.1690  0.1232
19527W        W32941  12.190   8.482   0.696 -0.1267 -0.0318 -0.0290
19528W        W32942  13.123   2.393   2.655 -0.2775 -0.1025 -0.1617
19529W        W32943  11.589  14.270  13.733 -0.3690  0.1854 -0.2317
19530W        W32944   1.530   2.301   0.181  0.0195  0.1532 -0.0754
19531W        W32945  10.673   4.638  14.777 -0.0654 -0.0523 -0.1496
19532W        W32946   8.668  16.212   2.906  0.0082 -0.0458 -0.0805
19533W        W32947  12.357   0.582  12.573 -0.1556 -0.0726  0.0268
19534W        W32948   4.531  12.947  12.308 -0.0731  0.2509  0.1398
19535W        W32949   2.140   2.968  15.189 -0.1808 -0.2775  0.0191
19536W        W32950  12.627  10.328  12.414  0.0107  0.1856  0.0215
19537W        W32951  14.676   8.692   4.388 -0.0148  0.1409  0.2062
19538W        W32952   3.808   6.555  15.137  0.0543 -0.0270 -0.1203
19539W        W32953   2.177  13.543  11.284  0.1314 -0.1357 -0.0299
19540W        W32954  10.855   1.339   1.893 -0.1726 -0.3770  0.0807
19541W        W32955   6.467   2.580   5.207  0.2196 -0.5277  0.0969
19542W        W32956   7.411   1.257   0.237  0.2547 -0.0893  0.2678
19543W        W32957   2.559   4.545   1.820 -0.0407 -0.0038  0.3351
19544W        W32958   5.444   6.445  15.751 -0.1175 -0.4937  0.1469
19545W        W32959  16.748  15.817   3.537  0.0474  0.3100 -0.0338
19546W        W32960   6.176  15.270   4.080 -0.4328  0.4710 -0.0162
19547W        W32961   8.022  12.889  12.390  0.2132 -0.3933 -0.1332
19548W        W32962  14.386  10.247  16.113  0.0158  0.0723  0.0969
19549W        W32963   2.842  13.468   3.872 -0.0303  0.0424 -0.0266
19550W        W32964   9.268   5.130   5.951  0.2883 -0.1031  0.0339
19551W        W32965   2.037   3.358  11.180  0.1092 -0.1980 -0.0136
19552W        W32966  11.301   5.087  13.651  0.0768  0.1135  0.2674
19553W        W32967  11.589  16.979  14.284  0.6229 -0.0728 -0.0962
19554W        W32968  16.196   2.746  16.241 -0.1940 -0.3901  0.2136
19555W        W32969   4.243   3.166  11.028  0.0867 -0.1050 -0.0436
19556W        W32970   9.626  17.589   2.550  0.0635 -0.1179  0.3683
19557W        W32971   5.080   5.188  15.980  0.2622  0.1446  0.0284
19558W        W32972  12.335  18.033   2.152 -0.0515 -0.2923  0.1884
19559W        W32973  10.042   9.467  13.385 -0.1451  0.1522  0.0503
19560W        W32974  16.064  16.302  15.031  0.0798 -0.0394  0.0139
19561W        W32975   2.285  11.433  16.494  0.0954  0.0519 -0.0199
19562W        W32976   2.517  15.393  14.123  0.1839 -0.1135  0.3485
19563W        W32977   2.466  16.924   4.885 -0.1608  0.0868  0.0129
19564W        W32978  17.556  12.828   3.800  0.0496  0.1496  0.1194
19565W        W32979  15.143  10.356  13.368 -0.1672  0.0555  0.0345
19566W        W32980  11.652   6.952   1.927  0.0802  0.1678 -0.3098
19567W        W32981   6.292   1.688  10.704  0.0641 -0.0497 -0.2117
19568W        W32982  12.283   9.860   4.484 -0.0717 -0.0660 -0.1078
19569W        W32983  14.977  16.718  15.648 -0.1823  0.1674  0.0637
19570W        W32984  17.872  11.651  15.850 -0.0793  0.0547  0.2208
19571W        W32985  18.046  17.045   2.696 -0.0022  0.1169  0.2626
19572W        W32986   5.891  10.206  15.698  0.0713 -0.2348 -0.1179
19573W        W32987  17.910  15.819   5.167 -0.1317 -0.0131 -0.0281
19574W        W32988  18.177   8.672   9.937  0.3686  0.0080  0.1267
19575W        W32989  14.175  17.372   3.099  0.1277  0.0315  0.0737
19576W        W32990  12.627   9.705  15.118  0.1004 -0.0641  0.4162
19577W        W32991   8.775   1.270  13.861  0.0891 -0.0283 -0.0161
19578W        W32992   5.807  12.630   1.604  0.1253  0.0397  0.0653
19579W        W32993   2.397   6.163  10.910  0.2369  0.1817 -0.4013
19580W        W32994  14.096   7.218   0.904 -0.0183  0.1766 -0.0923
19581W        W32995  15.865  14.359   5.161  0.1102  0.3311  0.1243
19582W        W32996   6.580   1.042   4.387 -0.3327 -0.2662  0.1736
19583W        W32997  16.302  13.728   5.638 -0.3855 -0.1387  0.0536
19584W        W32998   5.880   1.693  12.564 -0.1229  0.1213  0.2526
19585W        W32999   8.159  11.981   5.695  0.2373 -0.3908  0.0376
19586W        W33000   3.293  14.623   1.338  0.0308  0.1417 -0.1943
19587W        W33001  16.483  14.579   3.934  0.0236 -0.3026 -0.1692
19588W        W33002  12.667   9.724  14.051  0.0274  0.2271  0.0338
19589W        W33003  12.831   2.279   0.463  0.0451 -0.2189 -0.2630
19590W        W33004   7.619  16.229   1.993 -0.0848 -0.2456  0.2559
19591W        W33005  10.591  12.861  11.730 -0.3880 -0.1119  0.4139
19592W        W33006   2.371  17.510  15.739  0.1533  0.0260 -0.1619
19593W        W33007   9.852  11.675   3.959 -0.1770  0.1785  0.2285
19594W        W33008   4.944  10.543   0.333 -0.0013 -0.0657 -0.0129
19595W        W33009  18.283   8.831   3.073  0.1166 -0.0414  0.2560
19596W        W33010   7.004  13.297  14.317  0.1103  0.2106  0.0011
19597W        W33011  12.601   0.921   5.859  0.0286 -0.4544 -0.3997
19598W        W33012   8.985  14.108  11.592 -0.1022  0.1051  0.0398
19599W        W33013  10.446  16.875  12.621  0.2296  0.0360 -0.0151
19600W        W33014  16.853   0.768   5.835  0.0135 -0.1485  0.1286
19601W        W33015   2.531  12.778  14.454  0.4548  0.1023 -0.0299
19602W        W33016   0.860   8.820  13.398  0.1174 -0.1597  0.1401
19603W        W33017  10.314   3.959  15.693 -0.1491  0.2611  0.0594
19604W        W33018  15.173  16.329   6.059  0.0131  0.0766 -0.2297
19605W        W33019   0.731  10.296  15.892  0.1628  0.0184 -0.2088
19606W        W33020   4.412   8.595   5.042  0.0653 -0.2165  0.2704
19607W        W33021   2.202  10.625   0.911  0.3988  0.0156 -0.0792
19608W        W33022  10.560  11.286  14.915  0.1728 -0.0879 -0.2221
19609W        W33023   9.810  14.913  11.915 -0.2774  0.2475 -0.0565
19610W        W33024  10.265  16.915   0.988  0.1806 -0.1619  0.0306
19611W        W33025   4.498   2.612  13.222  0.1425 -0.1006  0.1245
19612W        W33026  13.566  12.084  12.612 -0.0199 -0.0252  0.0411
19613W        W33027   8.553   9.396  13.287 -0.3509 -0.0768  0.0890
19614W        W33028  10.006   2.630   0.871 -0.0594 -0.3114  0.0132
19615W        W33029  18.166  13.721  14.344  0.3120  0.0500 -0.1790
19616W        W33030   0.404  17.186   5.574  0.0111 -0.2496 -0.0994
19617W        W33031   6.457  10.359   2.618 -0.0039 -0.3043 -0.1020
19618W        W33032   8.260   7.044   3.892 -0.3753  0.4114 -0.0112
19619W        W33033   5.107  14.277   3.495 -0.4000  0.2603  0.1320
19620W        W33034   9.819   8.204   1.017  0.2703 -0.0085  0.1957
19621W        W33035  13.062  12.120   3.269  0.1531 -0.0030  0.2308
19622W        W33036   3.929  17.598   5.966  0.2264  0.0497  0.1344
19623W        W33037   3.650   7.981  14.985  0.4594  0.0393 -0.0172
19624W        W33038  10.505  17.145  15.604  0.0477  0.1008  0.0861
19625W        W33039  15.483   2.312  12.325  0.3489  0.3016  0.1517
19626W        W33040  16.070  16.033  15.437 -0.0151  0.2897 -0.0403
19627W        W33041   5.606   5.691  14.455 -0.1415  0.2732  0.0100
19628W        W33042  11.810   4.390  11.380  0.0262 -0.0120 -0.0458
19629W        W33043   5.048  11.561  11.024  0.0165 -0.0205 -0.0391
19630W        W33044   3.120   3.619  14.743 -0.2430  0.1494 -0.2771
19631W        W33045  10.582   0.391  15.266  0.0174 -0.1350 -0.3480
19632W        W33046  13.470  10.088  16.435  0.0758 -0.1874  0.0909
19633W        W33047  17.213  12.321  13.819  0.2789  0.1594  0.0711
19634W        W33048   9.497   0.317  14.426  0.0862  0.2012 -0.2073
19635W        W33049   5.231   3.621   2.240 -0.1729 -0.3158 -0.3084
19636W        W33050  16.764  13.257  14.483  0.1761  0.0838  0.0398
19637W        W33051   1.566   4.514  16.200 -0.0052  0.2107  0.0419
19638W        W33052  12.735   8.242   5.201  0.1662  0.1523  0.0360
19639W        W33053  10.302  11.935  11.127  0.1077  0.1973 -0.0675
19640W        W33054  13.576  15.078   5.461 -0.1324 -0.0453  0.0471
19641W        W33055   0.601  15.381   6.737 -0.1784 -0.0336 -0.2926
19642W        W33056   3.221  16.607  15.300  0.0470  0.1470  0.0277
19643W        W33057  16.663   5.883  16.244 -0.1730 -0.0814  0.1042
19644W        W33058  16.256   4.567   3.811 -0.0126 -0.0476  0.1817
19645W        W33059  12.088  13.173   3.299 -0.0486  0.0168  0.2531
19646W        W33060  10.654   1.141  15.624  0.0353  0.1130 -0.2189
19647W        W33061   4.954   7.293   4.069  0.3229 -0.1555  0.0523
19648W        W33062  15.794   1.267  12.356  0.0163  0.0844 -0.1105
19649W        W33063   6.949  11.411  14.221 -0.0055  0.3020  0.1066
19650W        W33064   7.140   4.393  11.717  0.2098  0.4444  0.0257
19651W        W33065   9.175  18.125  16.182 -0.0531 -0.1847 -0.2603
19652W        W33066   7.738   8.555  10.921  0.0201  0.0011 -0.0738
19653W        W33067   8.751   3.984  15.307  0.2284 -0.0016  0.1230
19654W        W33068   0.509  16.310  16.155 -0.0087  0.1155 -0.0614
19655W        W33069  14.798   9.499  15.258 -0.2690  0.2253  0.5953
19656W        W33070  10.096  12.154  15.065  0.2995 -0.4239  0.2747
19657W        W33071   9.533  11.097  15.848  0.2243  0.3216 -0.1205
19658W        W33072  10.382  11.637   4.011  0.4547 -0.1397  0.2790
19659W        W33073  14.964  13.394   3.214  0.1310 -0.1597  0.3431
19660W        W33074   1.696  11.435   4.648  0.0605  0.2132 -0.1640
19661W        W33075   8.507   4.547  11.449  0.0089  0.0245 -0.0685
19662W        W33076   0.226  15.820  14.637  0.0635 -0.0002  0.0333
19663W        W33077   1.266   0.465   0.875 -0.1631  0.1937  0.0205
19664W        W33078  12.371   8.118  11.148 -0.1303  0.1185  0.2443
19665W        W33079  15.744   5.680  10.379  0.0238  0.2154  0.1192
19666W        W33080  17.962   1.581  12.803  0.2230  0.1238 -0.1838
19667W        W33081   8.516  11.124   0.122  0.0872  0.0561 -0.0935
19668W        W33082   0.606  17.457   6.109 -0.1366 -0.2063  0.2167
19669W        W33083   3.846  11.710   1.711  0.1323  0.1735 -0.3827
19670W        W33084   1.864  15.566   5.206  0.1115 -0.0087  0.2244
19671W        W33085   0.519   0.674   0.400  0.0272  0.2604 -0.0950
19672W        W33086  10.302   2.908   1.227 -0.1478 -0.0649 -0.2835
19673W        W33087  11.551   9.437   4.011 -0.1719  0.3449 -0.0853
19674W        W33088   3.131   9.842  13.420  0.1555  0.0468  0.0128
19675W        W33089   5.903   7.634  10.600 -0.1413  0.0240  0.1019
19676W        W33090   0.178   0.670  11.657 -0.1198  0.1364 -0.0724
19677W        W33091   1.296   9.997   1.041  0.0501  0.0057 -0.3638
19678W        W33092   7.784   5.860  12.412  0.1023  0.0827 -0.2704
19679W        W33093   5.151   5.123  10.869 -0.1737 -0.0837  0.0338
19680W        W33094   3.315   9.368  10.222  0.1552  0.1988  0.0678
19681W        W33095  15.598  15.896  13.230  0.1647 -0.0551 -0.0151
19682W        W33096   5.593  11.515  13.546  0.2982  0.1545  0.0014
19683W        W33097  11.959  14.222  13.386  0.0964 -0.0901 -0.0773
19684W        W33098  17.862   6.489   3.287  0.0678 -0.1407 -0.2067
19685W        W33099  17.291  16.857   4.533 -0.0637  0.1262 -0.0462
19686W        W33100   6.963   9.370  16.378  0.0417 -0.0866 -0.0511
19687W        W33101  14.243   7.322  13.767 -0.1933 -0.1030  0.2675
19688W        W33102   2.025   5.972   2.357  0.4224 -0.3344  0.0783
19689W        W33103   4.829   2.930  15.573 -0.0879  0.0153  0.1801
19690W        W33104  15.662   1.231   2.019 -0.0817 -0.1744  0.0499
19691W        W33105   3.148   1.305   5.018 -0.0245 -0.0088  0.4103
19692W        W33106  14.949   7.131   1.263  0.0400  0.0870  0.0872
19693W        W33107   1.696  12.389  15.661 -0.2413 -0.2732  0.0419
19694W        W33108  13.736  16.704  15.205  0.0283  0.3669 -0.1956
19695W        W33109   0.354  10.041  13.374  0.2104 -0.0727 -0.1988
19696W        W33110   3.903  16.849  14.542  0.0178 -0.1499  0.3561
19697W        W33111  15.158   6.639   0.131  0.2055 -0.1689 -0.0831
19698W        W33112  10.948  11.531  15.736  0.0979 -0.3165  0.2617
19699W        W33113  14.398  16.080  12.440 -0.0575  0.3301 -0.2276
19700W        W33114   3.510   6.049  12.935  0.0351  0.0887  0.1752
19701W        W33115   2.495   2.809  12.677 -0.0035  0.1159 -0.0618
19702W        W33116   4.440  10.115  16.394  0.3725 -0.0436 -0.3095
19703W        W33117  10.311   3.171   2.206 -0.0300  0.0596 -0.2576
19704W        W33118  14.006  17.169  11.047  0.3612 -0.0214 -0.2643
19705W        W33119  16.810  17.808   2.713 -0.0116 -0.0240 -0.1503
19706W        W33120  15.285   1.806  10.880  0.1626 -0.1113  0.1138
19707W        W33121  12.557  11.925  15.056  0.1274 -0.3301 -0.1919
19708W        W33122  10.501  17.669  16.281 -0.1991 -0.2814 -0.1085
19709W        W33123  10.249  12.972   4.003 -0.0205  0.1462  0.0261
19710W        W33124   3.494   9.892  11.763 -0.0249 -0.2962  0.1757
19711W        W33125   9.437   8.706  11.777  0.3616 -0.2190  0.3598
19712W        W33126  10.125  15.078  12.297  0.0263 -0.0073  0.0187
19713W        W33127   7.240   8.073   1.161 -0.2303 -0.2832 -0.0967
19714W        W33128  10.714  14.499  15.334 -0.1461  0.0145 -0.0719
19715W        W33129   4.659   6.642  15.728 -0.2099 -0.0033 -0.0356
19716W        W33130  16.904  13.013   2.249  0.1260 -0.0761  0.3452
19717W        W33131   8.141   7.614  11.405 -0.3655 -0.0999 -0.1772
19718W        W33132   6.129  10.857  16.358  0.2168 -0.2394  0.0342
19719W        W33133  16.994  14.379  14.923 -0.1618  0.3391 -0.3244
19720W        W33134   6.939  10.391   4.101  0.0958 -0.0451  0.3406
19721W        W33135  11.869   9.040   3.975 -0.1219 -0.0165  0.3544
19722W        W33136   9.677   6.618   2.079 -0.0173  0.0877  0.1003
19723W        W33137   8.079  12.396  14.686  0.1513 -0.1724  0.2284
19724W        W33138   5.094  17.928  12.937 -0.0552  0.0255 -0.1894
19725W        W33139  17.063   7.467  12.014 -0.0902  0.6023  0.0369
19726W        W33140  18.178  15.538  15.062  0.1821 -0.2255 -0.0194
19727W        W33141  17.680   2.412   0.074 -0.0731  0.1506 -0.0178
19728W        W33142   8.275   3.858  11.081  0.0773 -0.1497 -0.2656
19729W        W33143  17.326   9.867  11.907 -0.1371 -0.0428 -0.1503
19730W        W33144   1.768  17.773   1.134  0.0641  0.2154  0.3330
19731W        W33145   8.982   9.888  14.591  0.2501  0.0766 -0.1634
19732W        W33146   0.525  16.898   4.417  0.3115  0.1722  0.0441
19733W        W33147   2.980   5.087  16.266  0.1409 -0.2108 -0.0568
19734W        W33148   9.085   7.756  11.313 -0.0399 -0.1992  0.2237
19735W        W33149  17.693  11.099  11.635  0.0052  0.0415 -0.3837
19736W        W33150   0.586   0.348  13.736  0.0500  0.1608  0.2007
19737W        W33151   8.594  15.125   3.261  0.2419  0.0927 -0.2253
19738W        W33152   6.119   2.632  12.230  0.0116  0.0195  0.0153
19739W        W33153   5.603   9.716   0.552  0.1753  0.2245  0.0696
19740W        W33154  12.598  14.670   5.413  0.0707  0.0322  0.1563
19741W        W33155  12.009   2.450  14.890  0.1655 -0.3942 -0.1835
19742W        W33156   0.345   9.161   9.877 -0.2558  0.3591  0.1573
19743W        W33157   7.166   0.612  13.003  0.1707 -0.0435 -0.1709
19744W        W33158   0.728   0.399   5.515 -0.0901  0.1762  0.1624
19745W        W33159  11.922  15.649  13.726  0.0344  0.0071  0.0344
19746W        W33160  11.578  16.477   4.072  0.2895 -0.0848 -0.2331
19747W        W33161  15.132  11.585  16.081  0.2456 -0.1101 -0.0874
19748W        W33162   2.662  14.677   2.970 -0.1909 -0.0559 -0.0104
19749W        W33163  17.727   3.680   3.945 -0.2463  0.0906 -0.3507
19750W        W33164  10.476  12.886  13.578  0.2158  0.0889 -0.0605
19751W        W33165   4.548   2.428  14.862  0.2334  0.0231  0.1924
19752W        W33166   5.468  12.594  13.450 -0.0916 -0.1117 -0.1082
19753W        W33167   7.070   4.962  10.832  0.0769  0.0895 -0.1780
19754W        W33168  14.979   4.270   0.800 -0.0355 -0.1182 -0.2062
19755W        W33169   8.478  15.735   4.550  0.0214 -0.4156 -0.5336
19756W        W33170  10.980   1.618  12.576  0.0104  0.0856  0.3954
19757W        W33171  11.110  12.481  13.641 -0.1425 -0.3111 -0.0049
19758W        W33172   8.084   4.239  11.574 -0.1038  0.3444 -0.1657
19759W        W33173   9.418   3.779   3.521 -0.1543 -0.3023  0.0430
19760W        W33174  12.103  12.787  14.386 -0.2078 -0.1050  0.1851
19761W        W33175   0.414  11.541   2.538 -0.0240  0.1606  0.5111
19762W        W33176   5.791  13.757  12.451 -0.2007  0.1456  0.3090
19763W        W33177  12.833   1.484   4.298 -0.1818 -0.0783 -0.0245
19764W        W33178   2.811   8.515   3.445  0.0408 -0.4500  0.1056
19765W        W33179   9.578  17.957  12.651  0.2333 -0.2286  0.0372
19766W        W33180  16.091   4.711  12.799  0.0171  0.1477  0.0506
19767W        W33181   0.785   7.935  13.227 -0.1995 -0.0900 -0.2709
19768W        W33182  17.056   7.509   0.601  0.0326  0.0544 -0.1596
19769W        W33183  12.355   1.345   9.921 -0.1000 -0.1293  0.0872
19770W        W33184   1.718   5.370   5.574  0.0680  0.5193  0.1850
19771W        W33185   8.112   5.805  10.980  0.3702  0.1206 -0.1179
19772W        W33186  10.605   2.481   3.992 -0.0318 -0.0554  0.0299
19773W        W33187   8.954  12.547   3.940 -0.0344  0.1604  0.2454
19774W        W33188  17.031  15.255   2.463 -0.0829 -0.2036  0.3805
19775W        W33189   6.299   9.540   3.029  0.0826  0.3684  0.0439
19776W        W33190   5.883  17.400   1.775  0.1102 -0.0600 -0.0641
19777W        W33191   5.401  14.753   4.465  0.0184 -0.0206 -0.0244
19778W        W33192  14.903   8.473  14.438  0.0781  0.0211  0.2166
19779W        W33193   8.948   2.128  12.553  0.2206  0.1768 -0.1507
19780W        W33194   9.831   8.078  10.236 -0.2366  0.2623  0.1822
19781W        W33195   4.876  14.195  13.698  0.1130  0.1252 -0.3420
19782W        W33196  11.636  12.603  15.383  0.3318  0.3044 -0.3105
19783W        W33197  14.961  13.341  15.789 -0.0540  0.3298  0.0493
19784W        W33198   4.919   9.188   1.050  0.1770 -0.0168  0.0880
19785W        W33199  15.206   4.407  14.120 -0.0804 -0.0721  0.0376
19786W        W33200   6.146   5.856   3.664 -0.2673  0.1533  0.1440
19787W        W33201   9.761  12.864   6.687 -0.1813  0.3725  0.3940
19788W        W33202   7.855   1.211  13.058 -0.2104  0.3049  0.0072
19789W        W33203  10.550   9.685  13.600  0.0664 -0.4835 -0.0300
19790W        W33204  12.524  15.507   5.919 -0.1575 -0.0403 -0.0117
19791W        W33205   3.195   5.360   6.015  0.1186  0.3268  0.1348
19792W        W33206   5.974  10.736   2.242  0.0338 -0.0750 -0.1097
19793W        W33207  12.214   7.321   1.526 -0.0664  0.0944  0.0215
19794W        W33208  11.988   4.984   2.058 -0.1559 -0.1906 -0.1359
19795W        W33209  17.464  13.816  15.783 -0.0271  0.0245 -0.1269
19796W        W33210  13.788  11.706   5.359 -0.0476 -0.4280 -0.1849
19797W        W33211  10.145   9.585   0.664  0.0954 -0.1430 -0.0864
19798W        W33212  13.419  13.804  12.067  0.0445 -0.3889  0.1759
19799W        W33213   9.025  14.507   4.036 -0.1218  0.0560 -0.2097
19800W        W33214   1.762  11.864  10.752  0.2878 -0.0461  0.0311
19801W        W33215  13.477  12.993  16.268  0.0126  0.3437 -0.1103
19802W        W33216   5.993   3.098   2.487 -0.1735 -0.0124 -0.0331
19803W        W33217  14.054  17.557   0.069  0.2258  0.0882  0.1363
19804W        W33218  17.466   6.650  10.900  0.2787  0.1744  0.1880
19805W        W33219  16.807   2.597  13.679  0.0011 -0.1056  0.3518
19806W        W33220   0.028   4.234   3.606 -0.1784  0.3792  0.0571
19807W        W33221   9.180   9.593  15.493 -0.0504  0.0309  0.2299
19808W        W33222  10.845   6.062   4.412 -0.1713 -0.2897  0.0990
19809W        W33223   1.693  13.398  11.019 -0.2017  0.0812 -0.1589
19810W        W33224  13.289   2.650   2.220  0.2351 -0.2146 -0.0946
19811W        W33225   1.951  18.170  11.017 -0.3321 -0.1883 -0.1097
19812W        W33226   4.976  10.496  15.604  0.0357  0.2201  0.2780
19813W        W33227  10.328  13.273  13.800 -0.1561 -0.3201  0.1798
19814W        W33228  13.633   0.580   5.656  0.0960 -0.0383 -0.2643
19815W        W33229   3.677  15.850  11.704 -0.1748 -0.0233  0.3428
19816W        W33230  16.319   9.055   1.899  0.1398  0.1822 -0.0851
19817W        W33231  13.122   9.484  12.490  0.1540 -0.0701 -0.0143
19818W        W33232   0.236  11.750   3.621  0.0608  0.2098 -0.0603
19819W        W33233  11.800   9.196  13.868  0.2049 -0.0398 -0.1071
19820W        W33234   1.610   4.718  12.265  0.1814  0.1524 -0.0203
19821W        W33235  15.768   0.840   1.236 -0.1850  0.0861  0.3523
19822W        W33236  17.353  12.065  15.847  0.0089  0.1696 -0.0127
19823W        W33237  15.344  13.206  11.802 -0.0693  0.0152 -0.0175
19824W        W33238   9.157  12.378  15.343 -0.2286  0.2140 -0.2836
19825W        W33239   6.783   5.222  12.665 -0.3976 -0.2827  0.2461
19826W        W33240  14.508  16.560  11.515 -0.2164 -0.2680  0.2464
19827W        W33241  16.768  14.239   0.828 -0.2026  0.2216 -0.1824
19828W        W33242   8.229  12.794  14.958 -0.1444 -0.0488  0.0982
19829W        W33243   8.530  16.818  11.833 -0.2613 -0.1887 -0.2115
19830W        W33244   4.283  16.754  16.491 -0.0878  0.1061 -0.1185
19831W        W33245   1.713   5.396   5.001 -0.1496 -0.2447  0.0955
19832W        W33246   2.201   1.491   0.847  0.3338  0.0311 -0.2700
19833W        W33247  16.718  11.727   4.889  0.1089 -0.1714 -0.2182
19834W        W33248   0.394   9.899  10.088 -0.1426 -0.0454  0.1137
19835W        W33249   6.457   1.263  11.564 -0.0492  0.1732 -0.2560
19836W        W33250  10.050   1.134  15.044  0.0579 -0.2316 -0.3066
19837W        W33251  18.108  13.176   4.789  0.3152 -0.0932 -0.2512
19838W        W33252   0.091  16.793  15.278  0.1707  0.1453  0.1125
19839W        W33253  10.288   8.550  11.588 -0.0192  0.2357 -0.2697
19840W        W33254   9.188  13.710  11.920 -0.1210 -0.0939 -0.0750
19841W        W33255   7.068   9.847  12.606 -0.0700 -0.0423 -0.2052
19842W        W33256  10.227  16.342  13.434  0.0351  0.0500 -0.3380
19843W        W33257  15.505   6.945  16.401 -0.1666  0.1541 -0.1242
19844W        W33258   2.683  10.644   3.909  0.0525  0.1245  0.1018
19845W        W33259   0.731   5.439   3.194 -0.0697 -0.0848 -0.2687
19846W        W33260   1.152  11.782  13.797  0.3667 -0.0657 -0.3309
19847W        W33261  13.510   1.495  14.369  0.4782  0.2092  0.0764
19848W        W33262   0.110   6.319   4.146 -0.2250  0.2385 -0.0549
19849W        W33263   4.142   1.017  16.505 -0.2366  0.0702  0.1974
19850W        W33264   9.895   9.983  11.843 -0.1638 -0.2145  0.1899
19851W        W33265  14.630  11.467  11.137  0.3695  0.1172  0.2608
19852W        W33266   9.061   9.228   0.932 -0.1133  0.0280  0.1051
19853W        W33267  15.361  12.471   1.997 -0.2878  0.2554 -0.1439
19854W        W33268  15.487  17.893  15.584 -0.4958 -0.0111 -0.0928
19855W        W33269   8.497   5.720   2.496  0.1771 -0.0208 -0.2855
19856W        W33270  14.537   8.022  16.354  0.0058  0.3312 -0.0468
19857W        W33271   4.781   8.916   4.209 -0.2370 -0.0465  0.2575
19858W        W33272  17.996   3.029   5.089  0.0371  0.0256  0.1586
19859W        W33273   3.567   0.364   2.673 -0.2270 -0.0250 -0.2251
19860W        W33274   2.338   6.141  12.683  0.3234 -0.2839 -0.1928
19861W        W33275  13.696   2.492   2.628  0.0819 -0.3469  0.0039
19862W        W33276  14.444  11.119   1.431  0.0386  0.1718  0.1791
19863W        W33277   9.475  11.902   1.659  0.1520  0.0301 -0.0196
19864W        W33278   0.136   1.871  13.235 -0.0927  0.2064 -0.2344
19865W        W33279  17.792   2.491  12.189  0.0904  0.0090 -0.0224
19866W        W33280   6.313  10.906  13.126  0.3831 -0.2222  0.2252
19867W        W33281   7.929  10.825   2.628 -0.1728 -0.1155  0.3545
19868W        W33282   1.083  10.344  12.256 -0.3701  0.4171 -0.0589
19869W        W33283   9.263  15.204  15.944  0.1830 -0.1319 -0.1724
19870W        W33284   7.432   6.964  16.496  0.2857 -0.1799  0.0514
19871W        W33285   9.921  14.528   2.679  0.0317 -0.0029 -0.0591
19872W        W33286  15.459   1.347  11.299  0.1821  0.3351  0.0166
19873W        W33287  14.579  13.479   6.104  0.2441  0.0849 -0.1504
19874W        W33288   3.157  11.860  15.074 -0.3578 -0.2227 -0.3385
19875W        W33289   6.208   7.063  11.725 -0.0035 -0.0803 -0.0371
19876W        W33290   0.194  16.026   6.478  0.3635  0.1542  0.1263
19877W        W33291   7.451  16.558   0.033 -0.2170 -0.1407 -0.1424
19878W        W33292  17.322  17.438  14.719  0.0261 -0.1528 -0.1543
19879W        W33293   6.020  17.668   1.377  0.0658  0.1902 -0.1894
19880W        W33294   0.572   3.154   2.484 -0.0388 -0.0028  0.4200
19881W        W33295   9.372  15.701   0.298 -0.0233  0.0357  0.1297
19882W        W33296   9.845  14.023  15.934 -0.0258  0.0047 -0.4077
19883W        W33297   9.984   3.443  14.495  0.1055  0.4010  0.2620
19884W        W33298   9.416  12.012   5.551 -0.3521  0.1842  0.0239
19885W        W33299  16.520  14.038   3.333  0.0591  0.3540 -0.1808
19886W        W33300  13.233   3.300  15.372  0.0720 -0.0514 -0.1885
19887W        W33301  11.943   0.529   3.151  0.1097  0.5626 -0.2004
19888W        W33302   1.587   0.197  12.097 -0.4278 -0.1898 -0.3517
19889W        W33303   9.608  11.956  11.697  0.0949 -0.0222  0.0700
19890W        W33304   2.461   4.524  12.960  0.1548 -0.1516 -0.0257
19891W        W33305  13.549   0.001   5.419 -0.0058  0.0481 -0.1452
19892W        W33306  14.364  14.869   0.901  0.3029 -0.3456  0.1177
19893W        W33307   5.073   4.004  15.161  0.2702  0.0901 -0.3056
19894W        W33308  15.062  12.189   6.121  0.1065  0.0126 -0.0892
19895W        W33309  12.347   6.740   3.198  0.0555  0.4355 -0.2356
19896W        W33310   9.975  17.657  15.814 -0.0656 -0.2343  0.1848
19897W        W33311   5.531   3.135  13.931  0.1025  0.1422 -0.2735
19898W        W33312   3.836  16.492   0.008 -0.1597 -0.0435 -0.0108
19899W        W33313   5.885   6.265   0.569 -0.4374 -0.3571 -0.1405
19900W        W33314   1.535   6.548  13.454  0.1817 -0.1999 -0.2510
19901W        W33315   6.907   4.379   3.663 -0.1881 -0.1741  0.2189
19902W        W33316  12.791  11.034  15.330  0.0963  0.2925 -0.2698
19903W        W33317   3.427   8.680   6.239 -0.0560 -0.4481 -0.1404
19904W        W33318   0.433  17.984  13.191  0.0791 -0.0117 -0.3528
19905W        W33319   0.656   5.920  10.997 -0.2171  0.0181 -0.1425
19906W        W33320  16.848   9.233   5.074  0.3327  0.2142  0.0663
19907W        W33321  14.491   0.359   5.769  0.2653 -0.1056  0.1200
19908W        W33322  12.852  12.741   0.350 -0.1225 -0.3203  0.0480
19909W        W33323  12.260  14.473  11.848 -0.0871  0.0405  0.0314
19910W        W33324   2.001   6.209  11.219  0.2182 -0.0141  0.2575
19911W        W33325  12.374  14.332   3.676  0.0192  0.0115  0.2830
19912W        W33326   3.708   4.750   5.690 -0.2425  0.0542 -0.0310
19913W        W33327   6.487   2.143   4.860 -0.2492  0.2849 -0.1713
19914W        W33328   8.849   7.823   0.765  0.0405 -0.1460  0.0073
19915W        W33329  17.166  17.772  11.746 -0.1874  0.3971 -0.1945
19916W        W33330  15.717  10.308  14.124  0.3841  0.1286  0.1709
19917W        W33331  16.230   2.593  10.205 -0.2353 -0.3131  0.0387
19918W        W33332   1.278   6.662  12.099 -0.1047 -0.2297 -0.2623
19919W        W33333   1.126   1.396  13.817  0.1027  0.0058 -0.0037
19920W        W33334   3.973  16.436  14.248  0.2414  0.0116 -0.1587
19921W        W33335   3.797   7.270   3.886 -0.1016 -0.1671  0.1138
19922W        W33336   6.422  15.872   5.166  0.1221  0.0486 -0.1037
19923W        W33337   7.170   9.644  14.964 -0.0173  0.2810  0.0766
19924W        W33338   3.622   8.248   1.706  0.1441 -0.5828  0.2239
19925W        W33339   4.458   1.838  14.827 -0.0713 -0.0934 -0.1650
19926W        W33340  10.145   7.862  15.253  0.1591 -0.0758 -0.2505
19927W        W33341   5.965  16.866  11.619  0.2076 -0.3247 -0.1871
19928W        W33342   6.902  15.105   3.436  0.0085  0.3484 -0.1908
19929W        W33343  13.084  16.996  11.052  0.1458  0.1872  0.0509
19930W        W33344   2.546   2.405  12.356 -0.3552 -0.0573 -0.2678
19931W        W33345   2.223   7.254   4.064 -0.0170  0.1666  0.0033
19932W        W33346   8.321   5.693  15.053 -0.1731 -0.3045  0.0808
19933W        W33347   1.127   1.706  15.436  0.0924  0.1691  0.0000
19934W        W33348  10.041   8.384  12.878 -0.0738  0.0326 -0.1241
19935W        W33349  14.336   9.450  10.553 -0.1102  0.1388 -0.1363
19936W        W33350  13.106  15.183  12.499 -0.1765 -0.0292 -0.2681
19937W        W33351  16.533   5.761  12.186  0.0416  0.1835 -0.2378
19938W        W33352  11.331  17.310  12.295  0.1535 -0.1506 -0.0934
19939W        W33353  17.278   9.781   4.373 -0.3713  0.3350  0.3003
19940W        W33354   9.363   4.420  14.708  0.1993  0.3110 -0.2878
19941W        W33355  11.108   1.847   5.132  0.3689 -0.0338  0.0911
19942W        W33356  13.860  10.124   3.762  0.3195 -0.1054  0.3819
19943W        W33357   6.193   1.371   2.386  0.1061  0.0361  0.0736
19944W        W33358  17.483  14.528  13.639 -0.0562 -0.1031  0.2472
19945W        W33359   5.741  16.853  15.004 -0.0840 -0.1286  0.0966
19946W        W33360   0.886   2.919   2.213  0.0820 -0.0381 -0.0161
19947W        W33361   2.375  12.869  13.966  0.1816  0.0060 -0.1019
19948W        W33362   9.514   6.395   4.498  0.0331  0.0536  0.1580
19949W        W33363   6.101  15.086   1.996  0.1143  0.2282  0.2151
19950W        W33364   4.827  14.585   1.307 -0.0352  0.0210 -0.0502
19951W        W33365   6.496  17.656  10.885 -0.0542 -0.2428  0.0317
19952W        W33366  16.890   8.186   3.813 -0.1955 -0.0284  0.2095
19953W        W33367  13.283   2.280  14.686  0.3256  0.1353  0.1019
19954W        W33368   9.077   7.862  15.700  0.0127 -0.5683 -0.1975
19955W        W33369  14.145   0.733   5.901  0.3039  0.0385  0.2271
19956W        W33370  12.936   0.145  11.033  0.0548 -0.1571  0.0832
19957W        W33371  17.748  12.153   5.598  0.1712 -0.1111  0.1180
19958W        W33372   6.995   0.817   0.730 -0.1057 -0.1050 -0.1380
19959W        W33373   3.955  11.422  15.907  0.2131  0.0354  0.1511
19960W        W33374  17.352  10.931  12.585  0.0461  0.0656 -0.1929
19961W        W33375  16.438  13.847  12.095  0.1476  0.1094  0.1350
19962W        W33376  16.963  14.308   3.907 -0.0789  0.2168  0.0183
19963W        W33377  16.973  10.638   2.574  0.1412  0.0259  0.1751
19964W        W33378  11.824   3.186  15.440 -0.0804 -0.0758 -0.1074
19965W        W33379   8.220  11.233   2.590  0.0783  0.0890 -0.0200
19966W        W33380   1.746   3.814  11.216 -0.1194 -0.2809 -0.2628
19967W        W33381   2.733   5.501  15.364  0.0014  0.2801 -0.1334
19968W        W33382   9.064   1.711   1.171  0.0680  0.3987  0.0347
19969W        W33383  14.261   6.325  12.559  0.0662  0.3428 -0.1679
19970W        W33384   9.206  14.819   2.086 -0.1580  0.1801  0.0987
19971W        W33385   8.007   0.008  15.594  0.0563 -0.1905 -0.3597
19972W        W33386   5.800  10.431   5.623  0.5760 -0.1625 -0.1115
19973W        W33387   4.503  11.107   6.593  0.0585  0.2330  0.0951
19974W        W33388  12.873  10.200   3.470 -0.1250  0.0944  0.0694
19975W        W33389   9.645   5.398  13.293 -0.0301 -0.2035 -0.0853
19976W        W33390   6.149  12.606  13.974  0.2811  0.1117 -0.0577
19977W        W33391   7.059   4.552  14.683 -0.0580 -0.0981  0.0976
19978W        W33392   4.080   5.968  11.271 -0.0161 -0.3767 -0.1528
19979W        W33393  15.905   3.303   0.450  0.0389 -0.0847  0.1236
19980W        W33394   9.845  12.242   3.812  0.2332 -0.0008 -0.1287
19981W        W33395  14.094  11.909   3.456  0.3119  0.1233 -0.0733
19982W        W33396   8.931   3.900   5.393 -0.0204  0.1048  0.2959
19983W        W33397  13.804   5.604   1.487 -0.2070 -0.0745 -0.1312
19984W        W33398  14.297   7.148  16.065 -0.1696 -0.0614  0.0896
19985W        W33399   5.594  12.133  12.348  0.0663  0.0736  0.1555
19986W        W33400  15.991   8.422   1.090 -0.1193  0.0985 -0.0325
19987W        W33401   4.770   2.446   5.558  0.1839  0.1540  0.0435
19988W        W33402  13.631   3.958  12.972 -0.0448 -0.1975 -0.2131
19989W        W33403   5.922  12.453   5.568  0.1901 -0.0528 -0.0669
19990W        W33404   9.663  10.520  15.266  0.0332  0.0453 -0.1738
19991W        W33405   3.934   8.716   2.452 -0.0653 -0.1699 -0.2378
19992W        W33406  15.291  14.080   0.351  0.4439  0.5690  0.1265
19993W        W33407   4.371   1.933   3.110  0.3570 -0.2402  0.0557
19994W        W33408   2.545  15.841  15.170  0.1683 -0.3007  0.0266
19995W        W33409  15.200   9.260  11.715  0.0570  0.1044  0.0148
19996W        W33410  12.351  15.006   4.695 -0.0918  0.2256 -0.0760
19997W        W33411  12.829   3.804   0.800 -0.2450  0.2045 -0.1596
19998W        W33412  14.005  14.573   0.277  0.0159 -0.1473 -0.0145
19999W        W33413   1.447  13.620  13.534 -0.1293 -0.1167 -0.0703
20000W        W33414  15.425   9.322  12.378  0.0487  0.3016 -0.2637
20001W        W33415   6.521  17.106  14.036 -0.1182  0.3510 -0.1865
20002W        W33416   4.580  15.219   2.135 -0.0207  0.2706  0.1380
20003W        W33417  10.515  11.824   0.816  0.0407 -0.3006 -0.0535
20004W        W33418  13.088   9.050   1.477 -0.2392 -0.0335  0.3151
20005W        W33419  10.636  17.987   3.468 -0.3174  0.2923 -0.1479
20006W        W33420   5.309   0.696   4.864  0.1507 -0.2037 -0.3251
20007W        W33421  13.898  17.116   5.890  0.3586 -0.2149  0.0567
20008W        W33422  17.989  14.262   6.174  0.1439 -0.1454  0.3200
20009W        W33423  15.020   7.105  11.860 -0.2834 -0.0168  0.1770
20010W        W33424  12.292   1.419   2.578  0.1290 -0.1367 -0.3266
20011W        W33425   7.049  13.079   4.085 -0.0482 -0.0192  0.3712
20012W        W33426  12.076   7.787  10.314 -0.0153  0.1442  0.0508
20013W        W33427  15.460  14.465  12.253 -0.2560  0.1726  0.3170
20014W        W33428  15.606  16.264   3.822 -0.0830 -0.1119 -0.1004
20015W        W33429  13.040   7.800   6.032 -0.1819  0.0322 -0.1747
20016W        W33430  13.951  10.865   1.427 -0.0089 -0.0460 -0.1700
20017W        W33431   7.215  10.268   1.690 -0.1966 -0.0107  0.0429
20018W        W33432  11.596  13.023  16.214 -0.0301  0.0920 -0.1552
20019W        W33433   2.382   1.463   3.566 -0.1400  0.2654  0.1325
20020W        W33434  14.411  13.382  12.321  0.2206 -0.1832 -0.0332
20021W        W33435  14.303   9.174   5.076  0.1694  0.2214 -0.0499
20022W        W33436  12.589   4.446   4.959 -0.0808  0.2540  0.0121
20023W        W33437   0.516  16.445   1.125 -0.0637 -0.0512  0.3130
20024W        W33438  15.186  12.468  15.835 -0.0396 -0.2199  0.2508
20025W        W33439   1.713  10.249   1.395  0.0730  0.0531 -0.0848
20026W        W33440  13.296  14.638   4.542  0.3235  0.2846 -0.0673
20027W        W33441   5.264  14.243  12.924  0.3618  0.0657  0.2197
20028W        W33442   9.303  12.626  14.842 -0.1699 -0.0671  0.1258
20029W        W33443   4.180   9.908   3.928 -0.1975  0.1220  0.1339
20030W        W33444  13.169   5.436  14.647 -0.5420 -0.1617  0.0556
20031W        W33445   6.493  15.647  13.106 -0.0447  0.1726 -0.1165
20032W        W33446  13.650   9.041   3.510 -0.0332 -0.1545 -0.1263
20033W        W33447   6.216   2.251  10.455 -0.2188 -0.0763  0.4270
20034W        W33448   3.210   8.480   0.792 -0.1309  0.3680  0.1532
20035W        W33449  14.851  14.553   3.538 -0.0394 -0.0739  0.1063
20036W        W33450  18.176   3.639  14.628  0.1284 -0.2723 -0.2691
20037W        W33451   1.067   1.972  12.732  0.4001 -0.1432 -0.0606
20038W        W33452   8.580  11.772  14.885  0.1513  0.0841 -0.1758
20039W        W33453  16.092  17.638   5.015 -0.0051  0.1857 -0.0650
20040W        W33454   3.686  11.822  14.353 -0.2219 -0.1428  0.0785
20041W        W33455   3.730   0.330   1.837 -0.3028 -0.0331 -0.0928
20042W        W33456   6.638   9.651   5.577 -0.1278 -0.1539 -0.1879
20043W        W33457   2.297  15.667   5.595  0.1387 -0.1626 -0.2826
20044W        W33458  14.629  17.224  13.014  0.0718 -0.1948 -0.1637
20045W        W33459  14.873   9.572  13.514  0.1656  0.1630 -0.1149
20046W        W33460   7.021   0.862  12.643 -0.0271 -0.3286  0.3610
20047W        W33461   0.480  15.878  16.431 -0.2857 -0.2608  0.3252
20048W        W33462  10.694  16.709  12.113 -0.1868 -0.0096 -0.0763
20049W        W33463   5.442  15.366  15.674 -0.1596  0.2422 -0.2385
20050W        W33464   1.926  16.131   1.720 -0.4557 -0.0609 -0.1550
20051W        W33465  10.771   2.014  12.088  0.0670  0.6675 -0.1008
20052W        W33466  13.432  17.703  12.944 -0.1690 -0.0171  0.2207
20053W        W33467  10.653   0.990   5.182 -0.0725 -0.0911  0.0709
20054W        W33468  10.754   5.115   4.109 -0.2625 -0.1320  0.0199
20055W        W33469  11.146  13.743   2.964  0.1185  0.5131 -0.0481
20056W        W33470   2.663   5.847  14.303 -0.2057 -0.2142  0.0232
20057W        W33471  16.504  13.377   2.497  0.3330 -0.0585 -0.2469
20058W        W33472   2.821   0.122   0.926 -0.1003  0.2397  0.1199
20059W        W33473  12.888   2.480  10.477  0.1606  0.0962  0.0577
20060W        W33474  16.209   0.908   4.768  0.3899  0.0052  0.1065
20061W        W33475   4.360  16.947   2.426  0.0068 -0.1928  0.0140
20062W        W33476  10.681   2.398  14.076 -0.1738 -0.1390 -0.1437
20063W        W33477  15.263   0.979   1.003  0.3323 -0.1472 -0.3660
20064W        W33478  13.998  10.881  15.224 -0.0158  0.0212  0.0589
20065W        W33479   2.562   0.015   2.180  0.1291 -0.0107  0.2998
20066W        W33480  11.230   4.118  16.306  0.0348 -0.0723  0.2383
20067W        W33481  12.709  14.112  15.780  0.3104 -0.0119  0.1207
20068W        W33482   1.194   7.909   5.125  0.0612  0.0958 -0.1019
20069W        W33483   9.426   3.352   5.928 -0.0913  0.1841 -0.1241
20070W        W33484  15.932   8.989   6.065 -0.1148  0.2202 -0.0849
20071W        W33485  12.762   7.707  12.963 -0.0439 -0.0810  0.0577
20072W        W33486  18.167  14.379   5.461  0.0119 -0.0082  0.1598
20073W        W33487  14.156   8.570  16.119  0.0855  0.1144  0.1620
20074W        W33488   6.688  14.254   5.213  0.1090 -0.0335 -0.2087
20075W        W33489  18.024  17.502  15.493 -0.2380 -0.2463  0.0123
20076W        W33490   6.457   6.307   1.062 -0.0285 -0.1116  0.4363
20077W        W33491   0.451  13.946  11.885  0.2631  0.2799 -0.1343
20078W        W33492   0.807  11.797  13.435  0.0528 -0.2774  0.0273
20079W        W33493   5.072  14.234   0.929 -0.1578  0.1699  0.1001
20080W        W33494   8.818   3.684  10.804 -0.3119  0.0109 -0.0161
20081W        W33495   4.924   9.556  13.338 -0.0382  0.2005  0.2504
20082W        W33496   7.444  10.441  13.897 -0.1313  0.3260 -0.2248
20083W        W33497  15.180   3.538  10.931  0.0410 -0.3442  0.1414
20084W        W33498   1.219   4.105   5.553 -0.2687  0.2004  0.2966
20085W        W33499  15.084   7.644   2.634  0.2446 -0.0637 -0.2863
20086W        W33500   3.663  16.396   0.714 -0.1272 -0.0058 -0.0369
20087W        W33501  17.733  16.265   1.585  0.0232  0.3630 -0.0068
20088W        W33502   9.889  15.796  10.815  0.0047 -0.0960  0.0613
20089W        W33503  17.148  18.231   7.180 -0.1820 -0.0810  0.2008
20090W        W33504  18.188  16.409  16.465  0.0857  0.0376 -0.2512
20091W        W33505   6.319   0.457   3.820  0.3113 -0.2791  0.0054
20092W        W33506  10.320  14.543   2.004  0.1369 -0.1022 -0.1420
20093W        W33507  13.568   6.495   3.913  0.0285  0.2482  0.5446
20094W        W33508  16.380   9.385   5.280 -0.0544  0.3435  0.0410
20095W        W33509   5.359  11.304  12.036 -0.1949  0.1082  0.3688
20096W        W33510  15.010  15.231   3.412  0.0378 -0.0868  0.3155
20097W        W33511  17.614   7.867   1.899 -0.2998 -0.1595  0.0164
20098W        W33512  16.118   1.361  13.497  0.2589 -0.1382  0.0292
20099W        W33513  12.039  12.039  16.474  0.1418  0.3736 -0.0218
20100W        W33514  15.864   6.228   4.447 -0.1278  0.2058  0.1961
20101W        W33515  14.847  14.087  14.675 -0.1062 -0.0715  0.2235
20102W        W33516  15.491   6.292   4.807 -0.0349  0.1169  0.1651
20103W        W33517  12.586  16.121   2.528 -0.0564 -0.0898 -0.4358
20104W        W33518  11.232   2.551  12.992  0.1313  0.1458 -0.2484
20105W        W33519  18.041   3.135   4.604 -0.1903  0.1178 -0.5464
20106W        W33520   3.573   8.101   5.012  0.0357  0.0664 -0.4090
20107W        W33521   2.353   3.371   4.767 -0.0930 -0.0530  0.0552
20108W        W33522   0.254   1.149  13.248 -0.1125 -0.0329 -0.0662
20109W        W33523   7.998   9.747   3.747 -0.1285 -0.1815  0.1370
20110W        W33524   5.176   7.971  14.870 -0.0688  0.0001  0.2024
20111W        W33525   2.620  14.768  12.129  0.0282  0.2121 -0.1261
20112W        W33526   1.809   4.923   2.834  0.1040 -0.1293  0.2419
20113W        W33527   8.608   4.049  11.394 -0.2312 -0.0957 -0.2793
20114W        W33528  15.317  10.471  12.864  0.1486 -0.4313 -0.1082
20115W        W33529  13.533   6.814  10.876  0.0182 -0.0957 -0.0142
20116W        W33530  15.839  10.055   1.864  0.0863  0.3281 -0.1119
20117W        W33531   1.717   3.129  15.872 -0.1701  0.0422 -0.2107
20118W        W33532   6.565   7.119   2.843  0.3360  0.0600 -0.3437
20119W        W33533   2.346   8.286   1.479  0.0390 -0.0764  0.1623
20120W        W33534   7.410   7.397  14.683  0.1894 -0.2619  0.0331
20121W        W33535  13.457   6.101  14.994  0.2468 -0.0958 -0.0565
20122W        W33536   2.127  16.338  15.753  0.0171  0.2598  0.0805
20123W        W33537   2.180  18.014   0.857 -0.1617 -0.0025 -0.1894
20124W        W33538  12.274   9.361  15.775 -0.0389 -0.3461  0.0059
20125W        W33539  11.727   2.377   3.040 -0.1358 -0.2336 -0.0412
20126W        W33540  15.020   9.672  12.441  0.0123 -0.1689  0.2420
20127W        W33541   2.373   5.984   2.751 -0.1019  0.1497  0.0592
20128W        W33542  14.860   3.789   2.742  0.1091  0.1919 -0.2056
20129W        W33543   8.704   3.625   9.980  0.0450 -0.0315 -0.2078
20130W        W33544  17.838   2.517  16.125  0.0173 -0.0135  0.3033
20131W        W33545  14.218   6.197   2.299 -0.1301  0.2279  0.1819
20132W        W33546   0.168   0.887   1.301 -0.0724 -0.0669  0.1182
20133W        W33547  11.962  17.172   1.346  0.1154 -0.0060 -0.1239
20134W        W33548   3.240   0.177  14.119  0.1529 -0.1690  0.0711
20135W        W33549  17.055  16.210  12.418 -0.0678  0.1113 -0.0816
20136W        W33550   1.141  15.827   3.388 -0.0081  0.1247  0.0602
20137W        W33551   2.439  13.707   6.349  0.1135 -0.3698  0.1084
20138W        W33552  12.391   4.728   2.243 -0.0104 -0.1497  0.3025
20139W        W33553  16.095  11.681  11.262  0.0350  0.2349  0.4048
20140W        W33554   3.006   3.149  11.062  0.0765 -0.0283 -0.0686
20141W        W33555  16.060   3.165   1.380  0.0495 -0.0073 -0.3540
20142W        W33556   6.596   2.324   2.954 -0.0779 -0.0532 -0.1564
20143W        W33557  16.858   1.979  12.569  0.0376 -0.2096 -0.0250
20144W        W33558  16.299   7.508  15.759  0.1150 -0.1445 -0.3348
20145W        W33559   3.521  15.549  14.980  0.2282 -0.0627 -0.0235
20146W        W33560  15.035  16.625  14.850  0.0042 -0.0834 -0.1216
20147W        W33561   3.942   0.127  13.366 -0.1490  0.0533  0.1999
20148W        W33562  10.866   3.617  11.909  0.4045 -0.0594  0.2023
20149W        W33563  17.892  13.967  13.983  0.3143  0.0057  0.1048
20150W        W33564  12.123  10.391  10.326  0.1174 -0.2503  0.0610
20151W        W33565  14.809   4.534   3.633  0.0612 -0.4936 -0.0988
20152W        W33566  10.664  17.458   1.735  0.2242 -0.3046 -0.1765
20153W        W33567  15.599  10.958  15.796  0.2023  0.2890  0.1850
20154W        W33568   1.780   4.315  11.359 -0.0971  0.0745 -0.2486
20155W        W33569   5.746   4.074  13.030  0.0798 -0.1772 -0.0817
20156W        W33570  14.400  17.069  15.692 -0.0483 -0.2302 -0.0726
20157W        W33571  15.945  14.643   6.394  0.4508 -0.1181  0.1080
20158W        W33572   6.561  16.267   1.801 -0.0990  0.1848 -0.0825
20159W        W33573  10.886  15.366  13.110  0.4798 -0.1888  0.1154
20160W        W33574   1.506   2.266   2.744 -0.2276 -0.2703  0.1290
20161W        W33575  10.104   3.209   3.338  0.1240  0.0655  0.0409
20162W        W33576  13.484  15.890   3.946 -0.0237 -0.0245  0.0711
20163W        W33577  13.152   1.136   5.317  0.1591 -0.0274 -0.1896
20164W        W33578   8.954  13.786   3.548  0.2951 -0.0730  0.0491
20165W        W33579   9.609  14.601   5.416 -0.0936  0.0905 -0.2183
20166W        W33580   8.721   6.157  13.197  0.0363  0.0925  0.2714
20167W        W33581  17.389  11.840   5.555  0.2796  0.1534 -0.2510
20168W        W33582   6.937   1.220   0.390 -0.1081  0.4205  0.1793
20169W        W33583  13.910  12.342  14.727  0.2887  0.2313  0.0636
20170W        W33584  11.954  17.930  10.658  0.2012 -0.0913 -0.2015
20171W        W33585  18.051  13.914  12.637  0.1590 -0.0194 -0.2362
20172W        W33586  10.896  10.529   4.471  0.1633  0.0739  0.0261
20173W        W33587   7.529   6.341  11.472  0.0793  0.2831  0.0384
20174W        W33588   2.696  15.268  13.593  0.2362 -0.0892 -0.0069
20175W        W33589   1.932   6.883  13.220  0.0423 -0.1060  0.1603
20176W        W33590  13.803   8.261  15.341  0.2710  0.0175 -0.1031
20177W        W33591   3.003   4.706   1.999 -0.2368 -0.1280  0.2167
20178W        W33592  10.187   6.742  13.446 -0.3159  0.3091  0.1468
20179W        W33593  10.894   3.738  15.137  0.2164  0.0775 -0.1662
20180W        W33594   1.225  14.902   4.826 -0.1346 -0.4965 -0.0385
20181W        W33595  14.103   3.933  15.505  0.1313  0.1461  0.0324
20182W        W33596   4.624   4.370  11.644  0.1286  0.0561 -0.2162
20183W        W33597  17.497   8.160  15.248  0.1399 -0.0373 -0.2670
20184W        W33598   5.163   0.083   2.415 -0.0578  0.0364  0.0756
20185W        W33599   2.041  14.989  12.161 -0.1329 -0.1689 -0.0572
20186W        W33600  12.972   1.795  12.227  0.0932  0.3001  0.0399
20187W        W33601   8.236  14.161   4.144  0.1390 -0.0092 -0.2072
20188W        W33602  17.900   0.307   4.635 -0.1434  0.2713  0.4015
20189W        W33603   7.978   3.290   2.205  0.2150  0.0424  0.1437
20190W        W33604   4.291   6.515   1.299  0.0760 -0.1786  0.1813
20191W        W33605  13.649   4.060   4.012  0.3608 -0.3405  0.0178
20192W        W33606   6.089   8.884  11.106 -0.0144  0.0063 -0.0155
20193W        W33607   1.301   2.755  13.013  0.1752 -0.2201  0.2886
20194W        W33608   6.413  16.043   2.226 -0.3080  0.4575 -0.2859
20195W        W33609  10.371   2.938  12.996  0.3975  0.2449 -0.1048
20196W        W33610  11.667  16.107  11.798 -0.1121  0.0571 -0.0871
20197W        W33611   0.677   0.864  10.531 -0.1166  0.1370  0.2273
20198W        W33612   4.528  17.820   6.911 -0.1719  0.1213  0.0105
20199W        W33613   7.621   4.615  16.246  0.3218  0.3132 -0.0867
20200W        W33614  15.571   2.524  11.056 -0.3334 -0.3522  0.0254
20201W        W33615   3.682  12.656  14.641  0.0866 -0.4556 -0.0983
20202W        W33616   6.916   8.911  11.324  0.0097  0.1685 -0.0154
20203W        W33617   8.352  11.575   2.251  0.3077  0.0792  0.2845
20204W        W33618  11.093   9.878  10.752  0.2353 -0.1458 -0.0200
20205W        W33619   8.741   6.287   4.387 -0.2315  0.0606 -0.1145
20206W        W33620   8.872  11.559   0.772 -0.0615  0.0914 -0.1798
20207W        W33621  10.260   3.645   5.706  0.0155  0.1184 -0.1912
20208W        W33622  10.155   1.484  11.142  0.2872 -0.4030 -0.0607
20209W        W33623  12.228  13.467  16.144  0.0978  0.0795 -0.1218
20210W        W33624   3.267  16.421   4.733 -0.1863  0.2900  0.3309
20211W        W33625  17.737  11.427  14.608  0.1260 -0.3068 -0.0718
20212W        W33626   4.807   2.583   0.303  0.0422 -0.0957 -0.0233
20213W        W33627   8.957  15.110   0.859 -0.1758 -0.0247  0.1663
20214W        W33628  12.005   8.992  14.539 -0.1014  0.0421  0.1135
20215W        W33629   5.803  13.248  13.723 -0.0016  0.1921 -0.2363
20216W        W33630   5.702   0.049   6.148 -0.0031 -0.1891  0.1590
20217W        W33631  15.951  14.894   4.926 -0.1076 -0.1565 -0.0023
20218W        W33632  17.484  16.794   2.254 -0.1757  0.1780  0.2367
20219W        W33633  13.682  10.317   2.778  0.1489 -0.2646 -0.0989
20220W        W33634   8.018   6.077  15.073 -0.0636  0.1404 -0.0974
20221W        W33635  14.535   1.416  14.561 -0.1096 -0.1681 -0.1281
20222W        W33636   9.804  10.257   0.145  0.0651  0.0818  0.1281
20223W        W33637   8.629   7.117  12.587 -0.0234  0.0109  0.4057
20224W        W33638  11.836   9.987   3.198  0.3217  0.2466 -0.1266
20225W        W33639   8.226  11.523  13.833 -0.0169 -0.1784  0.3478
20226W        W33640   1.039  18.029  14.682 -0.1345  0.0042 -0.0265
20227W        W33641  17.802   0.229  13.841 -0.0828 -0.0463 -0.2772
20228W        W33642   5.207   0.682   3.623  0.3501  0.0070  0.0397
20229W        W33643  18.325   8.804  15.037 -0.1960  0.0362 -0.0505
20230W        W33644  16.457  11.686  15.701  0.0919  0.2390  0.1990
20231W        W33645   6.753  13.117  14.741  0.1653  0.1852  0.0625
20232W        W33646  10.312   3.623   3.175  0.0205  0.0969  0.2431
20233W        W33647  15.405   7.607   5.274 -0.2466 -0.2743 -0.1713
20234W        W33648   8.824   7.502  15.374  0.0580 -0.1957 -0.1296
20235W        W33649  16.527   5.544  13.175  0.0473 -0.0763 -0.4030
20236W        W33650  16.983  12.689   1.457  0.1989  0.1793 -0.0533
20237W        W33651   3.900   0.495  14.673 -0.0946  0.0135  0.0221
20238W        W33652   7.462   0.869   1.084 -0.0272  0.1253 -0.1792
20239W        W33653  11.031   9.059   1.172 -0.0761 -0.0204 -0.1654
20240W        W33654  15.601   7.227  11.159 -0.0062  0.1891 -0.0146
20241W        W33655   2.383   0.786   3.498 -0.2870  0.1095 -0.0812
20242W        W33656   7.889  16.121   2.532  0.1363 -0.0852 -0.2324
20243W        W33657  12.426   1.047   1.025 -0.1383  0.2646  0.1626
20244W        W33658   9.247   6.403   5.493  0.0748 -0.0244 -0.1179
20245W        W33659  14.726   1.224   5.835  0.0873  0.1105 -0.2840
20246W        W33660   9.549   1.999   2.912 -0.1559  0.0189  0.4456
20247W        W33661  10.130   3.898  12.195 -0.2904  0.0315 -0.0290
20248W        W33662   4.085   5.373  15.494  0.4060  0.3707 -0.0101
20249W        W33663   9.150   6.616   4.126 -0.0648  0.1481  0.1159
20250W        W33664   8.339   5.182   5.522 -0.1881  0.1904  0.1565
20251W        W33665   1.617   3.083  12.112  0.0130 -0.4546 -0.0540
20252W        W33666   5.091  12.861   5.742  0.0016 -0.6270 -0.0805
20253W        W33667   4.417  15.159  13.057  0.1356  0.2241 -0.5285
20254W        W33668  11.404   5.534   2.577 -0.1017 -0.1262 -0.0705
20255W        W33669  13.911   6.668  12.901  0.1331  0.0455  0.0768
20256W        W33670  14.699  16.003   1.541 -0.2349  0.0183  0.2247
20257W        W33671  12.800   2.427  15.022  0.0206 -0.0793  0.1483
20258W        W33672  13.190   2.905  14.428  0.1536  0.1395  0.1561
20259W        W33673  16.589   0.893   6.305 -0.2338 -0.1230 -0.2003
20260W        W33674   4.550  10.247   4.260  0.0807  0.3580 -0.0919
20261W        W33675  10.967  14.415   4.729  0.1014 -0.2801  0.2549
20262W        W33676   0.236   5.736   5.321  0.3160 -0.0734 -0.2083
20263W        W33677   0.274  10.998   5.230  0.0003 -0.0940 -0.3543
20264W        W33678  10.957  12.716  12.263 -0.1082 -0.1368  0.1440
20265W        W33679  17.193  15.629   4.548 -0.0412 -0.0300  0.0812
20266W        W33680   7.367  17.904  15.584 -0.1701  0.2767 -0.2502
20267W        W33681   7.641  17.156   5.422 -0.1345 -0.1110 -0.1289
20268W        W33682  14.318  13.280   5.591 -0.2212  0.1232 -0.3815
20269W        W33683  17.785   6.240   4.678  0.3071  0.1916  0.0421
20270W        W33684   6.411  12.149  12.639  0.3668 -0.1045  0.2354
20271W        W33685  15.706   8.455   3.898 -0.0394  0.0638 -0.0483
20272W        W33686  15.964   4.320   3.489 -0.1064  0.0264  0.0449
20273W        W33687   8.722  16.473   5.317 -0.1145 -0.0229 -0.0568
20274W        W33688   6.355  15.495  15.536 -0.2504  0.0078  0.0445
20275W        W33689  10.737  18.050  11.013 -0.1581  0.2286 -0.3985
20276W        W33690   7.840  15.210  15.942 -0.1686 -0.0831  0.2732
20277W        W33691  13.478   9.019  12.113  0.0625  0.3843 -0.1667
20278W        W33692  12.140  11.749  13.314  0.1443 -0.3208 -0.0070
20279W        W33693   9.702  11.370   0.246  0.2215 -0.1064 -0.2704
20280W        W33694  12.739  12.597   6.101  0.0762  0.0256  0.1440
20281W        W33695   6.483   8.434   4.131  0.1767  0.1447 -0.2515
20282W        W33696   8.937  17.666   0.179  0.0279 -0.0715  0.4395
20283W        W33697  13.387   6.157  16.134  0.3190 -0.3000  0.0038
20284W        W33698   8.622  16.780  16.306 -0.2235 -0.1545  0.1557
20285W        W33699  17.013   4.364   4.407 -0.0941  0.1166  0.1802
20286W        W33700  15.233  10.387   1.250 -0.2026 -0.4005  0.2994
20287W        W33701  12.061   0.074  12.238 -0.3144  0.0280  0.0038
20288W        W33702  12.148   7.552   2.032 -0.0016  0.0436 -0.0039
20289W        W33703   4.171   0.152   0.177  0.2008 -0.3116 -0.1047
20290W        W33704   7.787  13.777   1.520 -0.4482 -0.0030  0.3082
20291W        W33705   2.736   2.292  11.724 -0.1156  0.0279  0.3463
20292W        W33706   6.111   4.362  11.093  0.3823 -0.2276  0.2551
20293W        W33707   6.156   2.868  13.827 -0.1153  0.1803 -0.2774
20294W        W33708  14.797   4.864   2.483 -0.1186  0.1581 -0.0123
20295W        W33709   4.799  14.984  15.113 -0.0320  0.2116 -0.2027
20296W        W33710  15.028  12.787  11.623 -0.1870  0.1373  0.2168
20297W        W33711   8.377   2.490   5.710 -0.1252 -0.0702 -0.3129
20298W        W33712   3.628   4.179   5.470 -0.3248  0.1217  0.0883
20299W        W33713  16.728   6.277  11.042  0.2107  0.0283 -0.1858
20300W        W33714  14.593   9.317   1.662 -0.0076 -0.0606 -0.2311
20301W        W33715  12.209   0.800   6.111  0.1215  0.1427  0.0938
20302W        W33716   9.115   9.970   4.613 -0.2865  0.0335 -0.0793
20303W        W33717   1.378  12.158  12.971  0.2292  0.0821  0.1443
20304W        W33718  12.032   2.228   1.217  0.2050  0.0543  0.1370
20305W        W33719  17.342   1.750  13.380  0.1810 -0.0367 -0.1248
20306W        W33720  17.317  12.222   0.881  0.0777 -0.1789  0.2137
20307W        W33721  15.669  10.103  16.388  0.3729 -0.0771  0.0204
20308W        W33722   1.339  16.340   2.681  0.1854  0.1921 -0.1392
20309W        W33723   6.641  10.899  14.017 -0.0449  0.0780  0.2768
20310W        W33724   7.837  17.820   0.290  0.0063  0.2001 -0.0195
20311W        W33725   0.559   9.656  10.478 -0.2421  0.2308 -0.2484
20312W        W33726   1.868  16.167  11.719 -0.2240 -0.1357  0.0636
20313W        W33727   7.871   6.349   5.905  0.1874  0.3173  0.4529
20314W        W33728  16.657   0.181  12.972  0.1908  0.0305  0.2181
20315W        W33729   4.023  14.602   0.020  0.1192  0.2059  0.3215
20316W        W33730   4.983  17.745  12.485  0.0437 -0.1396 -0.1272
20317W        W33731   8.132   6.286  12.487 -0.0572 -0.2652  0.3840
20318W        W33732  16.237  18.181   6.202  0.0884 -0.2132  0.2119
20319W        W33733   4.847  12.314   1.189  0.1890 -0.1640 -0.0249
20320W        W33734  12.976   1.190   6.134  0.2404 -0.1628 -0.0350
20321W        W33735  13.143  12.263   4.245 -0.1470 -0.2388 -0.2248
20322W        W33736   5.849  12.469   5.072  0.2311  0.3060  0.2111
20323W        W33737   2.177   7.064  11.811  0.2016  0.0042  0.0636
20324W        W33738  15.104  13.398   2.267 -0.2113  0.2240 -0.1769
20325W        W33739   2.954   5.532  10.956  0.0457 -0.4121 -0.1871
20326W        W33740   5.139  15.155  13.535  0.0726 -0.0828 -0.2797
20327W        W33741   2.206  17.468   3.597  0.0467 -0.2359 -0.0318
20328W        W33742  16.093  17.293   4.667 -0.2880 -0.1817  0.1155
20329W        W33743  11.651  11.671  12.125 -0.0013  0.2057 -0.6550
20330W        W33744  13.936  14.914  15.946 -0.0249 -0.1496 -0.0526
20331W        W33745   0.969   5.229   3.681 -0.1440 -0.0819  0.2124
20332W        W33746  13.262  16.782   4.336 -0.0214 -0.2240 -0.0273
20333W        W33747  11.914   6.885  12.551 -0.2156 -0.0116 -0.2992
20334W        W33748  16.849   5.325   3.821  0.0754 -0.2325  0.0558
20335W        W33749  14.340   6.271  15.064  0.0150  0.0951 -0.2281
20336W        W33750   5.334  17.868  12.037 -0.0647 -0.1955  0.1314
20337W        W33751   8.797  17.840   5.114  0.1292 -0.0855 -0.0289
20338W        W33752  14.184   9.330  12.985 -0.3852 -0.1596  0.1963
20339W        W33753   1.623  12.497  13.352  0.0308 -0.1085  0.1591
20340W        W33754  11.116   7.368   2.487 -0.4288  0.3816  0.1937
20341W        W33755  15.189   7.495  13.022 -0.1954  0.0194  0.1440
20342W        W33756  16.729   9.108  10.206  0.1722 -0.0370 -0.0234
20343W        W33757   7.733  17.338   1.760  0.1327 -0.1070  0.0458
20344W        W33758  17.990   8.672  12.374 -0.0309 -0.3688 -0.2762
20345W        W33759  16.736  11.830  12.144  0.0912  0.0159 -0.0543
20346W        W33760   1.240   9.279   0.009  0.3715 -0.0209 -0.3870
20347W        W33761  11.949   3.174   5.155 -0.0155  0.1392 -0.6818
20348W        W33762   8.785  11.764  16.256 -0.1142 -0.3598 -0.0095
20349W        W33763   6.001   8.591  13.195 -0.0297 -0.0455  0.1150
20350W        W33764   6.716  17.089   0.605 -0.0452 -0.0139 -0.1913
20351W        W33765   1.470   7.340  12.828 -0.1439 -0.0702 -0.0067
20352W        W33766   7.163  16.785   2.296 -0.1196  0.1026 -0.2559
20353W        W33767   2.071  11.879   1.910 -0.0228 -0.3679  0.4777
20354W        W33768  12.799   5.785   4.684  0.1377 -0.0218  0.3115
20355W        W33769   4.264   7.483   6.180 -0.1845 -0.0973 -0.0531
20356W        W33770  18.395   6.608  12.532 -0.1567 -0.1042  0.0386
20357W        W33771   9.197  14.081   1.550 -0.2213 -0.0011  0.2321
20358W        W33772  13.457   6.212  11.491 -0.0299  0.1696 -0.2962
20359W        W33773  10.504   5.222   5.535  0.2630  0.1292 -0.1470
20360W        W33774   2.096   9.712  13.539 -0.1059  0.1723 -0.4331
20361W        W33775  12.663  10.719  15.785  0.0989 -0.1857  0.0646
20362W        W33776   0.702  16.008   2.027  0.1213 -0.0692  0.0226
20363W        W33777  16.983   0.538   6.760 -0.3306 -0.3090 -0.2421
20364W        W33778  10.558  13.146   3.666 -0.0994  0.1669  0.1683
20365W        W33779   1.631  15.918   4.839 -0.1902  0.1773 -0.0790
20366W        W33780  18.292  17.741  14.025 -0.0571 -0.0839  0.2098
20367W        W33781   5.038  10.507   0.989 -0.1797 -0.1467 -0.1319
20368W        W33782   3.101   6.881  10.717 -0.1350 -0.1727 -0.0114
20369W        W33783   1.445  17.248   2.995  0.0504  0.0225 -0.2476
20370W        W33784  10.285   4.057   2.109  0.0522 -0.0226 -0.1630
20371W        W33785   4.285  13.316   3.982 -0.1539 -0.0332 -0.3498
20372W        W33786  18.069  14.953  15.490  0.1960 -0.0477 -0.1637
20373W        W33787  16.499   4.731   2.823 -0.1692 -0.1798  0.0839
20374W        W33788   3.784   8.603  15.434  0.3282 -0.1733  0.0995
20375W        W33789   3.260   1.808  12.841 -0.3424  0.1934  0.1319
20376W        W33790  10.660   2.467  11.101 -0.1525 -0.1497 -0.1220
20377W        W33791  16.618  16.931   2.619 -0.2273 -0.0414  0.0247
20378W        W33792  14.343  16.446   3.327 -0.0905  0.0916 -0.1776
20379W        W33793   2.807  10.544  12.261  0.3508 -0.0466  0.0235
20380W        W33794   8.863   1.981  14.630 -0.4358 -0.1502 -0.4214
20381W        W33795  13.053  11.557  13.087  0.1199 -0.1755 -0.0026
20382W        W33796  16.317   7.150   1.539  0.0333 -0.0933  0.1302
20383W        W33797  13.602   9.806  15.684  0.0276  0.0138 -0.0736
20384W        W33798   5.974   3.294   5.280 -0.0858 -0.0762  0.1889
20385W        W33799  10.974   5.441  13.580  0.2950  0.0279  0.2052
20386W        W33800  11.658   7.319  12.439  0.1602 -0.0811 -0.1270
20387W        W33801   5.829   8.899   2.941 -0.1790 -0.0049 -0.3719
20388W        W33802   0.954  18.353  12.867  0.2016 -0.1738 -0.2489
20389W        W33803   0.498  10.811  14.014  0.5842 -0.2691 -0.1655
20390W        W33804   3.568  11.868   1.187  0.0196 -0.3370  0.0087
20391W        W33805  12.350  14.196   2.540  0.1973  0.0894  0.2561
20392W        W33806   5.009   6.171  15.072 -0.0712 -0.0442  0.1461
20393W        W33807  10.727   6.100  10.981  0.0566 -0.1178 -0.2591
20394W        W33808  16.834  14.224   2.232 -0.0432 -0.0657 -0.0270
20395W        W33809   8.801   4.300  14.143  0.1050  0.2703  0.0637
20396W        W33810  16.774   5.436  13.619  0.2540 -0.4052 -0.0651
20397W        W33811  16.368   3.448   2.109  0.0025  0.0762  0.2358
20398W        W33812  10.697   0.248  11.317  0.1149 -0.0956  0.1391
20399W        W33813   5.405  11.886   1.377  0.0994 -0.2221  0.2770
20400W        W33814  13.627  12.235  13.525  0.0010 -0.0067  0.2087
20401W        W33815  17.286   3.990   1.743 -0.0955 -0.0829  0.1991
20402W        W33816  13.349   2.674  12.728 -0.0403  0.4302  0.1452
20403W        W33817  16.128   6.987  10.604  0.3570  0.0026  0.1499
20404W        W33818  12.354   8.980   3.810  0.0877  0.2360 -0.2066
20405W        W33819   8.984   6.104   9.773  0.0959 -0.1180  0.0680
20406W        W33820  17.512  15.244   5.748  0.0364 -0.1170 -0.0028
20407W        W33821  10.607  11.612  14.531  0.0775 -0.3442  0.1873
20408W        W33822  10.439   6.977  16.237 -0.0668 -0.0565 -0.2878
20409W        W33823   3.111   4.286  15.979 -0.1994  0.0759  0.3339
20410W        W33824  13.444   5.449  11.310 -0.2967  0.1445  0.2008
20411W        W33825  16.605   2.683  11.251  0.2040  0.1901  0.0877
20412W        W33826  16.307   9.689  12.694  0.1223 -0.2968  0.2698
20413W        W33827   0.701   0.836   1.560 -0.0680  0.3184 -0.2110
20414W        W33828  17.869  17.877  12.722 -0.1654 -0.4286 -0.2209
20415W        W33829   9.339   6.425  12.172  0.2379  0.2103  0.3445
20416W        W33830   7.118  15.244  11.459  0.2527 -0.0618  0.4841
20417W        W33831   3.324   0.262   2.201 -0.1488 -0.0260  0.0061
20418W        W33832  16.761   3.730  15.604 -0.0747 -0.0609 -0.0675
20419W        W33833  11.438  13.404  13.437  0.1231  0.2563  0.0355
20420W        W33834   7.265   1.767  11.826 -0.3145  0.0547  0.1090
20421W        W33835   4.442   8.714   1.649 -0.0769  0.0909 -0.0010
20422W        W33836   8.662  15.455   0.480 -0.0319 -0.2664  0.1814
20423W        W33837  10.466   3.770   3.656 -0.0278  0.0872 -0.1303
20424W        W33838   3.582  12.378  10.874  0.3930  0.1633 -0.2100
20425W        W33839  10.948   3.624  14.603 -0.0706  0.2986  0.1149
20426W        W33840   9.107  16.740   4.085  0.1696 -0.0100  0.2861
20427W        W33841  10.182   0.060   4.005 -0.4066  0.0115 -0.0648
20428W        W33842   6.984   1.613   9.821  0.0162  0.1018  0.3595
20429W        W33843  13.098   8.075  13.871  0.0118  0.1113 -0.2715
20430W        W33844  15.018   9.091  15.084  0.0487  0.1856  0.2369
20431W        W33845  10.136   5.501  14.135 -0.1401  0.1156  0.1525
20432W        W33846  17.596  12.651   5.594  0.0208 -0.1116 -0.0712
20433W        W33847   4.926  16.951   0.979  0.0269  0.1045 -0.3047
20434W        W33848  13.916  14.999   5.840 -0.3572  0.3957 -0.0029
20435W        W33849   1.075  13.382  13.817 -0.3495 -0.1771  0.2422
20436W        W33850  14.875  13.022  14.999 -0.1030 -0.0166 -0.1167
20437W        W33851   5.762   3.645  15.630 -0.1626 -0.0228 -0.3568
20438W        W33852   0.339   6.190  10.113 -0.2056 -0.0392  0.2589
20439W        W33853  18.085   2.875  12.125 -0.5044  0.1751 -0.2799
20440W        W33854   7.035   3.875  13.856 -0.0735  0.2608  0.0625
20441W        W33855   1.970   2.268   2.398  0.0157  0.1318  0.1425
20442W        W33856  15.918   7.862   3.998 -0.1084 -0.1087  0.1719
20443W        W33857  16.336   8.519  13.116  0.0915  0.3906 -0.3568
20444W        W33858   4.401   1.203   1.978 -0.1610  0.2490 -0.0530
20445W        W33859  10.682  16.252  11.914 -0.0362  0.0872  0.0410
20446W        W33860   9.840   2.115   3.599  0.1681  0.4011  0.1520
20447W        W33861  18.256   9.295  11.117 -0.1789 -0.1188 -0.2994
20448W        W33862  10.041  15.904   1.526  0.2986  0.1296  0.0469
20449W        W33863   7.101  18.253  11.807 -0.1077  0.0150  0.1419
20450W        W33864  14.813  16.422   6.961  0.1519  0.0793  0.1850
20451W        W33865  16.832   8.605   4.107  0.2353 -0.2203  0.1869
20452W        W33866   5.424  16.800  15.386  0.0738  0.3218 -0.1284
20453W        W33867  17.378   8.412  16.063  0.0315 -0.1167  0.2401
20454W        W33868  11.533  11.474  11.675  0.2720  0.0068  0.3153
20455W        W33869  18.031  12.381  16.327 -0.2627 -0.0409 -0.1998
20456W        W33870  15.491  10.492   4.195 -0.2601  0.2005  0.2818
20457W        W33871   0.851   2.822  13.248 -0.1818  0.0187  0.1595
20458W        W33872  17.027   1.889   3.325  0.1166 -0.1064  0.1103
20459W        W33873   0.980  10.169  14.645  0.1650  0.4564  0.0875
20460W        W33874   5.791  14.047  14.159  0.3005 -0.0931  0.1049
20461W        W33875   8.276  16.591   1.489  0.0584 -0.0645  0.1465
20462W        W33876   0.650   1.498  12.766 -0.0135 -0.3005 -0.1216
20463W        W33877   2.534  16.506  11.631  0.1836  0.0277  0.0915
20464W        W33878   9.468   5.510   4.562 -0.0680  0.0341  0.0388
20465W        W33879   4.598   5.447  11.271 -0.1343  0.1140 -0.0556
20466W        W33880  12.511   7.825   4.438  0.2226 -0.2546  0.1356
20467W        W33881  12.444  16.147   1.625 -0.3243  0.0293 -0.0093
20468W        W33882  10.066   3.199  16.200  0.4103 -0.0414 -0.1657
20469W        W33883  17.163  10.993   9.819  0.1720 -0.0372 -0.1647
20470W        W33884   4.935  14.943  11.844 -0.2044  0.2051  0.1930
20471W        W33885  17.510   8.860  11.618 -0.1815  0.0186 -0.2088
20472W        W33886   4.028  13.399  12.435  0.2300  0.0389  0.0255
20473W        W33887   9.949  11.257  16.220  0.0348 -0.1555 -0.1203
20474W        W33888   6.069   5.745   1.325 -0.0558  0.3051 -0.0632
20475W        W33889   0.003   9.525  12.604 -0.0292  0.1572 -0.0009
20476W        W33890   4.884  10.937   0.724 -0.1560  0.1622  0.1513
20477W        W33891   9.186  16.430   3.744  0.2047  0.4547 -0.0584
20478W        W33892  12.676  12.791  14.961 -0.2419  0.0998 -0.3094
20479W        W33893  16.280   4.083   3.941  0.1660  0.0881  0.0871
20480W        W33894   4.793  14.532  14.193 -0.0069  0.1660 -0.1144
20481W        W33895   8.989  13.481  14.688 -0.2300  0.1017  0.0510
20482W        W33896   0.111  11.615   1.065 -0.1239 -0.1310 -0.1313
20483W        W33897   2.129   4.885  15.520 -0.1242 -0.0302  0.0405
20484W        W33898  15.292  13.614   0.231  0.1081  0.0351  0.0177
20485W        W33899   2.751   4.333   1.331 -0.0794  0.0332  0.0846
20486W        W33900   8.808  10.979  11.010 -0.0928 -0.1831  0.0811
20487W        W33901  13.362   3.860   0.686  0.2464  0.1288  0.1503
20488W        W33902  14.564  16.695   4.239 -0.0199 -0.2100  0.0897
20489W        W33903  12.464   1.246  16.276 -0.1064  0.1661 -0.2173
20490W        W33904  10.164  15.738  12.952 -0.1586 -0.1266 -0.1914
20491W        W33905  17.942   6.958   3.040  0.4220 -0.1265 -0.2264
20492W        W33906  17.882   2.388   4.361  0.1047 -0.0922  0.0011
20493W        W33907   7.969   9.348   5.291  0.2218  0.1410  0.2248
20494W        W33908   0.022   6.015  14.511  0.0530 -0.1756  0.0636
20495W        W33909  14.509   8.877  13.720  0.0141 -0.1444 -0.1340
20496W        W33910  17.340  17.724   5.979 -0.3385  0.1721 -0.0384
20497W        W33911  13.743  12.344   0.373 -0.1746  0.0220 -0.1485
20498W        W33912   6.156   9.031   2.279 -0.0874  0.1127 -0.3522
20499W        W33913   9.644  13.163  11.136 -0.2040  0.1320 -0.1936
20500W        W33914  12.781  16.131  11.332 -0.1746  0.1877 -0.1243
20501W        W33915   7.957  12.112  16.025 -0.0397  0.1546 -0.1381
20502W        W33916  14.059   8.662  13.923 -0.2915 -0.0823  0.2825
20503W        W33917  15.175   3.150  15.415 -0.0285 -0.0721  0.0942
20504W        W33918  17.036  16.691   2.501  0.3868 -0.0334 -0.2033
20505W        W33919  10.354  17.964   1.543  0.2755  0.4796  0.2190
20506W        W33920   9.580   9.892   4.516 -0.2982  0.0570 -0.0494
20507W        W33921  17.594  10.031  15.757  0.2914  0.0572  0.2303
20508W        W33922   1.664   0.558  14.844  0.0525 -0.1561 -0.0265
20509W        W33923   2.044   3.446   6.066  0.0523 -0.1995  0.0119
20510W        W33924  18.272   9.061   5.464  0.0726  0.0437 -0.1295
20511W        W33925  12.160  12.747   4.932 -0.0144 -0.3783 -0.0636
20512W        W33926   6.477   8.758  10.765 -0.1739 -0.0106 -0.1507
20513W        W33927   2.577   1.845   5.109 -0.0278  0.2050 -0.2346
20514W        W33928   3.190  12.065   3.308 -0.2236  0.2181 -0.1260
20515W        W33929   2.408  16.110   1.788 -0.0722 -0.0514  0.2109
20516W        W33930   0.531   7.162  12.986 -0.0742  0.1716  0.3967
20517W        W33931   0.709  11.643  12.470 -0.1393  0.5247 -0.1572
20518W        W33932  13.815  12.630  12.837 -0.0409 -0.1157 -0.2541
20519W        W33933  10.569  11.146  14.408 -0.0247 -0.3595 -0.1021
20520W        W33934  18.031  14.255  13.529  0.3662 -0.3116  0.0527
20521W        W33935   0.462  16.255  14.643  0.2004  0.3560  0.0744
20522W        W33936   8.349   6.073   0.720 -0.3541 -0.4266  0.0236
20523W        W33937   6.799   7.554  14.158  0.1271 -0.1729  0.0540
20524W        W33938   5.523  10.149   3.007  0.0873  0.1352 -0.1785
20525W        W33939   0.792  17.894  12.120  0.2206  0.0089 -0.2285
20526W        W33940  10.423   7.420  15.995 -0.1820 -0.0136  0.2518
20527W        W33941  11.321   2.317   5.145 -0.3682  0.0455 -0.3385
20528W        W33942   4.210  14.903   6.332  0.1016 -0.0515 -0.2264
20529W        W33943   9.276  12.944   0.005 -0.1985  0.1626  0.1797
20530W        W33944  14.970  11.887  16.472 -0.2534  0.0294  0.1720
20531W        W33945  13.675   8.412  12.532  0.1870  0.0721  0.1498
20532W        W33946   8.213   6.190   1.761 -0.0137 -0.2228  0.0193
20533W        W33947  11.413  12.409   6.069 -0.2595  0.1014  0.0061
20534W        W33948  10.987  15.329   4.424 -0.0558  0.2106 -0.0449
20535W        W33949  10.611   2.713  13.700 -0.1152 -0.1642  0.1484
20536W        W33950   8.008  16.922  14.766  0.0019  0.0160 -0.2147
20537W        W33951   3.519   9.086   4.571 -0.1127  0.0871  0.2329
20538W        W33952   1.824  17.049  12.081 -0.1073  0.0387  0.2610
20539W        W33953  17.696   0.904  11.632  0.0275  0.3208  0.0378
20540W        W33954  16.634  10.652   0.987 -0.1270  0.4777 -0.0586
20541W        W33955  16.818  17.245   0.826 -0.2555  0.2970 -0.1170
20542W        W33956  12.845  10.136   4.902  0.0049  0.1849 -0.1276
20543W        W33957   7.811  13.436  13.719 -0.1519 -0.2264 -0.1521
20544W        W33958   1.965   1.507   1.898  0.0812  0.2123 -0.2454
20545W        W33959   9.123   3.962  12.211 -0.0869  0.0162  0.1460
20546W        W33960  14.906   0.635   5.870  0.0841 -0.1424  0.4100
20547W        W33961   9.860   2.083  12.199 -0.2644  0.1508  0.1883
20548W        W33962   5.752  11.377  14.003  0.1633  0.1336  0.1549
20549W        W33963   2.102   3.735   3.681  0.0915  0.1367  0.2618
20550W        W33964  14.928   0.435  14.794 -0.1267 -0.2548 -0.0954
20551W        W33965  13.591  16.843   0.345  0.3135 -0.1477 -0.0064
20552W        W33966  13.597   3.477   9.771  0.0707 -0.1959  0.2255
20553W        W33967   5.864   7.338  14.514 -0.3314 -0.1995  0.2557
20554W        W33968  11.533   2.836  10.623 -0.1729  0.1531  0.1575
20555W        W33969   6.298   7.794  15.830  0.3138 -0.3757 -0.1302
20556W        W33970   6.721   6.137  12.964 -0.0502  0.1620 -0.3540
20557W        W33971  14.598   7.133   0.873  0.1825  0.3497  0.4413
20558W        W33972   7.376  10.350   5.883  0.3302  0.1472  0.0929
20559W        W33973  16.570  17.433  13.326  0.0991 -0.0329  0.0413
20560W        W33974  14.110  15.837  15.144 -0.0400  0.0307  0.1845
20561W        W33975   7.045   4.399  10.558  0.3403 -0.2437 -0.0072
20562W        W33976   1.499  16.120  12.652 -0.4312  0.0378  0.0441
20563W        W33977   4.418   2.012  11.139  0.0454 -0.3640 -0.0125
20564W        W33978   7.448  17.203  11.119 -0.0031  0.1812  0.3438
20565W        W33979  17.862   8.480  11.530  0.3495 -0.1274 -0.1596
20566W        W33980   6.638   2.813   3.239  0.0815 -0.1609  0.1342
20567W        W33981   0.219  15.246  12.263 -0.1497 -0.3176  0.0694
20568W        W33982   1.046   5.382  12.312  0.1454  0.1845  0.2186
20569W        W33983  14.605  17.832  16.501 -0.1189  0.1931  0.1719
20570W        W33984   9.377  17.493  12.521  0.0516  0.3438  0.2633
20571W        W33985   1.902   2.262  10.403 -0.1415  0.2750 -0.1480
20572W        W33986   9.482   1.331  13.363 -0.3355  0.1960  0.1313
20573W        W33987   5.773   7.521   3.269 -0.1015 -0.1608 -0.2889
20574W        W33988  18.050   8.067   2.078  0.0999 -0.1361  0.0491
20575W        W33989   2.583   7.290   4.526  0.3757 -0.3054  0.1500
20576W        W33990   6.804   3.031   0.536  0.0676  0.1661  0.0808
20577W        W33991  13.053  11.640  11.685  0.0453 -0.2200  0.0037
20578W        W33992  13.585  11.686  13.939  0.2601 -0.1163 -0.0642
20579W        W33993  18.333   7.313   4.367 -0.1851 -0.4946  0.1708
20580W        W33994  17.112  11.456  16.460  0.0790 -0.0894 -0.1217
20581W        W33995  16.310  17.289  15.534  0.2262 -0.0705 -0.1098
20582W        W33996  18.013   0.699  11.330  0.0657  0.1516 -0.2116
20583W        W33997   9.387   5.313  12.805  0.0657  0.2160 -0.3232
20584W        W33998  11.444  17.272   3.995 -0.1383  0.0745 -0.1626
20585W        W33999  10.736   8.730   4.140  0.2629 -0.3154  0.0424
20586W        W34000  18.226  11.816   4.136 -0.0546  0.0819 -0.2921
20587W        W34001   6.584   0.288   0.128  0.0603 -0.1473 -0.0089
20588W        W34002   9.318   4.382   2.193 -0.0925 -0.0860  0.0276
20589W        W34003   8.806   7.582  16.279  0.2462 -0.2824  0.0374
20590W        W34004  15.900   1.638  11.392 -0.1660 -0.1978 -0.2372
20591W        W34005  18.132   6.766  15.398  0.1636  0.2777  0.0002
20592W        W34006   6.353  13.215  12.705 -0.3059  0.5432  0.0179
20593W        W34007  14.260  16.560  14.356  0.0019  0.1174 -0.3999
20594W        W34008  12.801   0.166  11.907 -0.2525 -0.1168 -0.0100
20595W        W34009  12.114  14.296   0.872  0.1447 -0.1798 -0.1177
20596W        W34010   0.606   2.150   4.662 -0.0541  0.2799  0.0946
20597W        W34011  11.519  11.084  10.616 -0.2913  0.3034 -0.0012
20598W        W34012  12.303   5.455   1.257  0.0306  0.1060  0.1558
20599W        W34013  13.782  17.219   2.789 -0.1043 -0.2682  0.0115
20600W        W34014  11.800  12.171   5.691 -0.0036  0.0820  0.0649
20601W        W34015  15.471   0.623  11.385 -0.1630  0.1876 -0.1353
20602W        W34016  16.339   5.133  13.416 -0.3304 -0.1072  0.2284
20603W        W34017   1.334  13.260  10.715 -0.0206 -0.5197 -0.2690
20604W        W34018   6.185  11.936  13.135  0.0711 -0.0636  0.2464
20605W        W34019  11.235   7.234   1.943  0.0907 -0.1080  0.0940
20606W        W34020  11.222   0.455  13.442 -0.0019 -0.0823  0.0427
20607W        W34021  15.414   2.185  12.874  0.0196 -0.0186  0.0078
20608W        W34022   7.067  11.387  13.570 -0.3788  0.0187  0.1116
20609W        W34023  13.285   1.036   1.946 -0.2023  0.1714  0.2238
20610W        W34024  11.157   4.838   1.317  0.3955 -0.0067 -0.2696
20611W        W34025  13.351  12.764  10.861 -0.2611  0.0475  0.2414
20612W        W34026   8.756   4.159  10.846 -0.2936  0.3105  0.0338
20613W        W34027   2.044   0.519   0.363  0.0439  0.0808 -0.0457
20614W        W34028   5.097   2.496  16.049 -0.0897 -0.0270 -0.1877
20615W        W34029   1.714   7.387  12.379 -0.1398 -0.0451  0.0181
20616W        W34030   5.325  14.955   0.027 -0.1600 -0.3991  0.0912
20617W        W34031   6.539  16.607  14.787 -0.4618 -0.0227  0.0047
20618W        W34032  11.570  13.085  14.413 -0.0989 -0.0130 -0.3704
20619W        W34033   3.331  13.563   4.227  0.6249 -0.0838 -0.3761
20620W        W34034  17.739  13.995   5.757 -0.2995 -0.0905 -0.0174
20621W        W34035  16.860  13.666   3.771  0.2199  0.2339 -0.2555
20622W        W34036   1.137  14.204  16.413 -0.0091 -0.1925  0.2715
20623W        W34037  13.312   5.561   1.415  0.0807 -0.0203  0.1637
20624W        W34038  14.098   6.241  12.118  0.3424 -0.1761  0.1328
20625W        W34039   8.777   9.210  13.707 -0.1397  0.0896  0.2116
20626W        W34040  12.862   8.023   3.464  0.3968  0.2544  0.1037
20627W        W34041   9.439   2.901  15.708  0.1433 -0.1563 -0.2928
20628W        W34042   6.779  14.422   6.157  0.0156 -0.2605  0.0014
20629W        W34043   8.046   6.054   2.670  0.0296 -0.0562 -0.0461
20630W        W34044   6.262   9.411  13.041  0.2747 -0.3954  0.0572
20631W        W34045  12.984   4.689  14.156  0.0140  0.1229 -0.1209
20632W        W34046   2.839   9.946   2.965 -0.2417  0.0853  0.4150
20633W        W34047   1.459   1.798  13.054  0.1372 -0.0701  0.2369
20634W        W34048   2.833   0.133  16.341  0.2975  0.2369  0.2566
20635W        W34049  15.326   0.271   3.825 -0.0342  0.5174 -0.2162
20636W        W34050  14.143  13.290  15.111  0.0604  0.0188  0.3068
20637W        W34051   7.392  10.128   3.114  0.0745  0.1797 -0.0416
20638W        W34052  17.407   4.479  10.534 -0.2052  0.3619 -0.1901
20639W        W34053  10.518  12.772   1.062  0.1650  0.0248 -0.0520
20640W        W34054  11.159  16.212  14.262  0.2858  0.0186 -0.1097
20641W        W34055  13.474  16.973  15.555 -0.3288  0.1766  0.3317
20642W        W34056   3.205  16.708  12.100  0.1393  0.3241  0.1956
20643W        W34057  15.927   8.443  14.772  0.0339 -0.2855 -0.1918
20644W        W34058   3.295   8.722   1.752 -0.1027  0.3411 -0.0525
20645W        W34059   6.775   3.834   0.634  0.0422 -0.1020 -0.1485
20646W        W34060   5.394  15.142  12.435  0.2772 -0.3615 -0.3192
20647W        W34061  13.936   4.213   3.595  0.0988 -0.0245  0.1621
20648W        W34062   0.416  12.980  12.095  0.0395 -0.1140 -0.0979
20649W        W34063   8.442  17.126  11.329  0.2373 -0.1882  0.0317
20650W        W34064  10.844  15.794  11.842  0.3144 -0.2977 -0.1125
20651W        W34065   8.208   1.793   1.953  0.1454  0.0910 -0.2731
20652W        W34066  17.415   8.296   4.911  0.1304 -0.1574  0.1745
20653W        W34067   8.177  17.628  12.456 -0.1704 -0.1950 -0.1078
20654W        W34068  11.747  14.647  12.701 -0.2773 -0.3463 -0.0417
20655W        W34069   9.260   3.593  13.291 -0.0719 -0.1438  0.1179
20656W        W34070  12.414  14.923  14.708 -0.2592 -0.1024 -0.1177
20657W        W34071   1.366  16.614   0.771 -0.0250 -0.3262 -0.1806
20658W        W34072   3.209  13.305  15.919 -0.0655 -0.1972 -0.0218
20659W        W34073  10.601   2.739   2.627 -0.0252  0.0706  0.0788
20660W        W34074   4.300   2.807   5.405  0.1458 -0.0177 -0.0050
20661W        W34075   4.219   7.483   4.787  0.2477  0.1365 -0.0005
20662W        W34076   1.096   2.212  10.980  0.0296  0.1208  0.2454
20663W        W34077  17.575  14.988  14.592 -0.2806 -0.1609 -0.0115
20664W        W34078   8.472   8.626   1.972  0.1950  0.2065 -0.0764
20665W        W34079   5.110   7.388   5.731  0.1395  0.0536 -0.1253
20666W        W34080   9.045   6.355   0.166  0.1819 -0.0955  0.0409
20667W        W34081   1.430   3.843   5.115  0.0827  0.2896 -0.0569
20668W        W34082  13.013  10.850   6.227  0.1372 -0.3053  0.1904
20669W        W34083  12.358   2.499   5.311 -0.1179 -0.1120 -0.4219
20670W        W34084  12.300  10.598   5.631 -0.0338 -0.1210  0.0064
20671W        W34085   6.232  12.570   5.962 -0.0707  0.2578 -0.2251
20672W        W34086  17.541  17.769   2.163  0.1942  0.1130 -0.0200
20673W        W34087  14.190  14.743  16.351 -0.1377 -0.0460  0.3199
20674W        W34088  10.601  15.351   3.136 -0.3213 -0.0550 -0.0810
20675W        W34089  16.917  13.243   4.006  0.0399 -0.2566 -0.0451
20676W        W34090  10.864  13.291  11.950  0.1577 -0.4006 -0.0332
20677W        W34091  16.736  10.065   3.222 -0.1435 -0.1663 -0.1837
20678W        W34092  13.715  11.685  10.970 -0.0325  0.2367  0.2547
20679W        W34093   4.745   5.608   0.752  0.0435  0.1352  0.0972
20680W        W34094  13.157   2.215  10.814  0.0442 -0.0420 -0.0112
20681W        W34095  17.653  15.930  15.067  0.1372  0.1363  0.1143
20682W        W34096   4.805  14.015  12.239 -0.2164  0.4515 -0.3531
20683W        W34097   7.178   5.624   4.253  0.1789 -0.0274  0.0704
20684W        W34098  14.279  11.344  15.249  0.2426 -0.2458  0.1187
20685W        W34099   1.150  17.618  12.901  0.1853  0.1245  0.1319
20686W        W34100   6.046   8.390  14.496  0.0927 -0.3272  0.0381
20687W        W34101   0.625   2.595   0.730 -0.0898 -0.0224  0.1899
20688W        W34102  11.708  12.522  16.269 -0.2123 -0.0434  0.0233
20689W        W34103   8.787  11.620   3.178 -0.0286 -0.1136 -0.0638
20690W        W34104   3.210  14.660   4.500 -0.1842  0.0998  0.1765
20691W        W34105   2.326  13.240   3.931  0.0201 -0.3353  0.2175
20692W        W34106   1.717   4.414  11.867  0.1615  0.1233  0.3987
20693W        W34107  15.526   2.982   0.067  0.2058 -0.1236 -0.0332
20694W        W34108   4.218   1.100   5.212  0.0054  0.1725  0.2154
20695W        W34109   4.980   6.881  11.114  0.4739 -0.0801  0.0429
20696W        W34110   7.606  14.822  14.816 -0.1388 -0.1056  0.1644
20697W        W34111   6.698  18.128  11.049  0.0608  0.2077  0.2510
20698W        W34112  11.483   9.219   3.589 -0.1986  0.0010 -0.0370
20699W        W34113  17.039  10.540  15.621 -0.0142  0.1642  0.0280
20700W        W34114   6.125   3.997   0.354 -0.0635 -0.0125  0.0583
20701W        W34115   1.215   3.672  15.865  0.0881 -0.2608  0.0127
20702W        W34116  15.368  15.517   6.029  0.0713  0.0881 -0.3616
20703W        W34117   9.021  15.361  11.732  0.1392 -0.0765 -0.3272
20704W        W34118   1.238   3.196  13.245  0.1412  0.2778  0.0852
20705W        W34119  10.921  10.896   1.762 -0.2733 -0.0721  0.1943
20706W        W34120   9.898   7.807  11.105 -0.2172 -0.0147 -0.0128
20707W        W34121   7.252  15.737  13.294  0.0557  0.2003 -0.1655
20708W        W34122  11.808   2.357   0.223 -0.1732 -0.0738 -0.2671
20709W        W34123   1.666   5.447  15.386  0.2204 -0.0853  0.2379
20710W        W34124   8.672  12.240  12.804 -0.0131  0.0623 -0.2796
20711W        W34125   3.544   1.070  16.487  0.0479  0.1243  0.1094
20712W        W34126   1.616   9.264   2.978  0.1012 -0.0061 -0.0802
20713W        W34127  14.981  14.285  12.265 -0.0458  0.3628 -0.0244
20714W        W34128  10.010   2.374   1.927 -0.3052 -0.0361  0.1344
20715W        W34129   9.376   7.374  10.544  0.2203  0.0532  0.3196
20716W        W34130  12.908   1.938   2.663 -0.2875  0.4524 -0.0360
20717W        W34131   8.585   6.112  12.655  0.2601 -0.2794 -0.2146
20718W        W34132  12.420  14.947   1.084  0.1768  0.0249 -0.1245
20719W        W34133   0.805  16.541   7.529  0.2012  0.1295  0.1496
20720W        W34134  17.510  18.295  14.123 -0.0547 -0.2177 -0.1127
20721W        W34135  16.739  14.428  15.744  0.1875  0.0827  0.4324
20722W        W34136  13.577   1.820  10.614  0.0897  0.1849 -0.0404
20723W        W34137  11.216   6.507  11.338 -0.3751 -0.2924 -0.2539
20724W        W34138   7.642  13.049   3.124 -0.0201 -0.0744 -0.2899
20725W        W34139  17.332  10.670   3.127  0.0272 -0.0517  0.1292
20726W        W34140   6.348  15.291  10.279  0.1931 -0.0922  0.0504
20727W        W34141   5.418   8.743  13.929  0.0163 -0.1498  0.1069
20728W        W34142   5.564  10.488   0.728 -0.1212 -0.1832 -0.0075
20729W        W34143  17.898   1.991  13.926  0.1018 -0.1132 -0.0047
20730W        W34144   7.262  14.938   5.551 -0.0224 -0.2276 -0.4199
20731W        W34145   4.004   6.801  14.754 -0.2482  0.1013 -0.2221
20732W        W34146   5.661   4.422  12.464  0.0913  0.1875  0.0149
20733W        W34147  13.456  17.964   5.172  0.2986  0.1158 -0.1090
20734W        W34148  13.090  17.644  14.054  0.0985 -0.1991 -0.0808
20735W        W34149   0.995  17.428   0.510 -0.2866 -0.1571  0.2207
20736W        W34150  16.612   1.818   0.482 -0.2610  0.0055  0.5862
20737W        W34151   8.067   9.910  12.090  0.2150 -0.2387 -0.3140
20738W        W34152   8.734  14.809   3.619 -0.1004  0.0942  0.2943
20739W        W34153  12.334   1.384   3.947 -0.1116  0.1092 -0.1927
20740W        W34154   8.159   5.244   3.316 -0.0730  0.0609  0.0307
20741W        W34155   1.845   2.296   5.247 -0.1146  0.0682 -0.1456
20742W        W34156   8.250  17.891  13.906  0.0461  0.0366  0.0305
20743W        W34157  12.355   2.981   9.873  0.3126  0.0679 -0.2555
20744W        W34158   9.690  11.179   3.212  0.1387  0.1637  0.0643
20745W        W34159   8.584  17.916  10.871  0.1003 -0.0305  0.1717
20746W        W34160   8.425   0.799   4.134 -0.2137 -0.0196  0.0686
20747W        W34161  15.491  11.699   3.238 -0.0127  0.1084  0.0187
20748W        W34162   7.646   0.471   5.039  0.2245  0.0861  0.2708
20749W        W34163  10.058   2.118  14.820 -0.1927  0.0241  0.0586
20750W        W34164  13.261  11.358   1.406  0.0981  0.0694  0.0651
20751W        W34165  10.968   0.175  13.050 -0.2404 -0.0915  0.1852
20752W        W34166  15.007   7.422  12.406 -0.2857 -0.0502 -0.0109
20753W        W34167  12.161  14.594  12.395 -0.0039  0.0023 -0.1198
20754W        W34168  15.042  10.058  12.856 -0.1880 -0.1707 -0.1616
20755W        W34169  16.365   9.964   0.222 -0.1458 -0.0735  0.1671
20756W        W34170   2.629   7.871  15.803 -0.0366 -0.0649 -0.2078
20757W        W34171  18.039   9.286   4.381 -0.0869  0.0438 -0.2611
20758W        W34172  18.382   2.637   1.523 -0.1058 -0.2635 -0.1949
20759W        W34173  13.503   3.335  12.762 -0.0985  0.0833  0.0737
20760W        W34174   9.768  12.564   2.343 -0.1955 -0.0951  0.2039
20761W        W34175  10.119   5.908   1.566 -0.0827 -0.4339 -0.1602
20762W        W34176  13.583   6.823  11.474 -0.0673 -0.0233 -0.1280
20763W        W34177  10.284   0.420  12.783 -0.2076  0.0523  0.1156
20764W        W34178   9.522  11.926  13.619 -0.1984 -0.2833 -0.1461
20765W        W34179   1.091   1.790  13.497 -0.0524  0.0183  0.0123
20766W        W34180  14.631   0.015   1.244  0.2110  0.1823  0.0475
20767W        W34181  15.011  11.176  13.253 -0.1026 -0.1484 -0.0607
20768W        W34182   8.898   0.334  16.238 -0.2475 -0.3573  0.0304
20769W        W34183   3.673  11.748   5.508  0.3288 -0.1529 -0.1828
20770W        W34184  15.066  18.128   0.871 -0.3241 -0.0199 -0.0417
20771W        W34185   3.372   5.869   0.979 -0.0401  0.1988  0.2092
20772W        W34186  14.233   1.610  12.325 -0.1176  0.0498  0.1136
20773W        W34187   4.214   7.747   0.023  0.0636  0.1082  0.1027
20774W        W34188  16.219  14.223   4.258  0.0227  0.2188 -0.0127
20775W        W34189  11.382  12.538  15.898  0.1807 -0.0447 -0.3736
20776W        W34190  15.496   3.720  12.641 -0.3272 -0.2465  0.2023
20777W        W34191  16.119  17.612  12.048 -0.2056 -0.2860  0.1286
20778W        W34192   3.309  17.102  15.297  0.0051  0.1184  0.2881
20779W        W34193   7.323   2.705   5.000 -0.1885 -0.0337 -0.0904
20780W        W34194   8.187   9.102   3.113  0.3820 -0.0674 -0.2298
20781W        W34195   7.700  17.546   0.724  0.1501 -0.0091  0.2412
20782W        W34196   1.750  13.008  12.601 -0.1341  0.1251 -0.1236
20783W        W34197   2.391  17.417   1.427 -0.1310  0.2368 -0.3469
20784W        W34198  17.193  10.130   3.956  0.0229  0.1330  0.0385
20785W        W34199   5.318   3.114   2.393  0.1786  0.0230 -0.3496
20786W        W34200  17.561  18.049   1.215 -0.1062 -0.0583  0.1108
20787W        W34201  11.643  15.289   4.335 -0.1604 -0.1367  0.0024
20788W        W34202  15.067   7.191   4.298  0.1951  0.3378 -0.1780
20789W        W34203  11.600  13.072   0.739 -0.1015 -0.0878 -0.0237
20790W        W34204   9.787  14.514  10.549  0.0698 -0.2023  0.1850
20791W        W34205   8.632   7.993   9.757  0.0624  0.1163 -0.0833
20792W        W34206  12.663   1.382  12.194  0.2066  0.3394  0.3843
20793W        W34207  12.333   7.745  10.775 -0.3330  0.2146  0.3004
20794W        W34208   5.112   4.762   5.570 -0.1491  0.1286  0.1212
20795W        W34209  14.454  11.764  12.101  0.0256  0.3969  0.2429
20796W        W34210   8.936   9.404   5.711 -0.0243 -0.0441  0.1475
20797W        W34211  13.819   7.005  12.464  0.2547 -0.2678  0.0983
20798W        W34212   8.103  10.192  14.927  0.0286  0.1889  0.0383
20799W        W34213  15.197  12.433  12.540  0.0182  0.1370 -0.1008
20800W        W34214   4.111   0.999  14.606  0.1560 -0.1049  0.2511
20801W        W34215  12.293   7.631  14.931  0.0914  0.0922  0.0457
20802W        W34216   0.118  10.168  14.665  0.2304 -0.0032  0.0069
20803W        W34217  10.354  13.343  11.994  0.1308  0.1274  0.4422
20804W        W34218   2.781  15.732  13.632  0.0265 -0.0377 -0.1288
20805W        W34219  13.073  15.997   4.162  0.1906  0.2591 -0.3797
20806W        W34220  11.697  14.934   2.960  0.0040  0.0861  0.2813
20807W        W34221  16.681   5.545   4.869  0.2431 -0.2619 -0.1096
20808W        W34222   8.929  14.518  15.347  0.3288 -0.0303 -0.0898
20809W        W34223  17.707   7.336  13.667 -0.3623  0.2937  0.1240
20810W        W34224  15.473  15.051   4.984  0.1577  0.1195  0.0693
20811W        W34225  11.572   7.317   3.340 -0.0896 -0.0831 -0.3476
20812W        W34226  12.876  14.845  15.748  0.3088 -0.1481  0.0253
20813W        W34227   9.182   1.361  16.342  0.1389  0.0945  0.0710
20814W        W34228   6.146  13.444   4.153 -0.1233  0.4655  0.0862
20815W        W34229   6.913   1.042   1.938 -0.1575  0.0427  0.1565
20816W        W34230   2.660  16.486  13.174  0.2096  0.2961  0.3991
20817W        W34231   3.532   3.691   0.649  0.2051  0.0863  0.1106
20818W        W34232  16.043   6.527  11.780  0.1575  0.3734 -0.0036
20819W        W34233  13.876  17.122   3.451 -0.1017  0.1639 -0.0375
20820W        W34234  17.052   8.016  13.334  0.1360 -0.2182  0.0675
20821W        W34235  16.964   6.732   9.748 -0.0980 -0.0091  0.2314
20822W        W34236  16.787  17.523  14.773  0.0485 -0.1604 -0.0469
20823W        W34237  16.597  14.657  14.169 -0.3090 -0.0618  0.2767
20824W        W34238  15.324  14.271  11.810 -0.0235  0.2032  0.1198
20825W        W34239   0.142   9.071   2.088  0.1358  0.1224 -0.1033
20826W        W34240   2.843  15.799   3.729  0.1612 -0.1068 -0.0131
20827W        W34241  16.232   6.485   3.152 -0.0219  0.0525  0.1027
20828W        W34242   0.376   1.362   5.247  0.2519  0.0135  0.1167
20829W        W34243   3.754  10.619   2.348 -0.0904 -0.1655  0.1093
20830W        W34244   2.851  12.240  16.451 -0.0890  0.0455 -0.2368
20831W        W34245   3.376   4.509  12.126 -0.0282 -0.1160 -0.0047
20832W        W34246   3.481  10.977  11.749  0.0083  0.0052  0.0357
20833W        W34247   7.720   6.602   3.297 -0.0664  0.1685 -0.1302
20834W        W34248   4.516  16.369   6.434 -0.4785  0.0980 -0.0658
20835W        W34249  11.494   8.823   1.317 -0.1665  0.4215 -0.1132
20836W        W34250  16.727   3.815   2.643 -0.2794  0.3686  0.0786
20837W        W34251   4.907   7.067   3.631  0.1171  0.1008 -0.0616
20838W        W34252  14.543   4.803  12.038  0.0187 -0.0839  0.2542
20839W        W34253   0.137  11.288  12.208  0.1562  0.1572 -0.1601
20840W        W34254  17.570   8.617  14.344  0.2084 -0.1389 -0.3494
20841W        W34255  18.245   7.630   1.797  0.0855  0.0438  0.0569
20842W        W34256   5.448   2.467  10.800  0.1193 -0.0462  0.2183
20843W        W34257   1.723   4.764  13.789 -0.0666 -0.1756 -0.1232
20844W        W34258  13.912   3.233   4.320 -0.3895 -0.1146  0.0745
20845W        W34259   6.855   4.997  16.389  0.1066  0.1739  0.0151
20846W        W34260  13.195   5.205   0.110  0.2344  0.3950 -0.1399
20847W        W34261  16.677   6.283   0.040 -0.2990 -0.2317  0.3824
20848W        W34262   9.960  16.087   1.058  0.0913 -0.0485  0.2023
20849W        W34263   4.714  17.549  16.135 -0.0747  0.1096 -0.2260
20850W        W34264  16.665   7.885   2.198  0.0959 -0.2571  0.0506
20851W        W34265  17.892  12.651   4.239 -0.0210 -0.2483  0.0924
20852W        W34266  17.821  16.676   6.372 -0.3197  0.2962  0.0988
20853W        W34267   4.484   4.256   2.662  0.2628  0.2223 -0.2262
20854W        W34268   4.214  15.463   2.496 -0.3637 -0.1152  0.1497
20855W        W34269   1.129   3.080  15.112  0.0968 -0.1881 -0.2561
20856W        W34270   4.379  11.166  12.993 -0.3492  0.1034 -0.3734
20857W        W34271   5.656   3.507   0.796 -0.2430 -0.2597  0.2656
20858W        W34272  10.154   6.199  13.162 -0.1442  0.1872 -0.0027
20859W        W34273  18.349   9.838   1.403 -0.3521  0.2670 -0.0590
20860W        W34274   6.455   3.084  14.171  0.2987  0.2391 -0.0691
20861W        W34275   1.914   3.872   1.445  0.0342 -0.2347  0.0345
20862W        W34276  10.308   7.741   3.729 -0.1157  0.3891 -0.0820
20863W        W34277  14.217  13.911   6.351  0.0885 -0.4134  0.0859
20864W        W34278  17.038  16.039   5.470  0.3519  0.0051  0.0004
20865W        W34279  13.300  13.449  13.775  0.3484 -0.1293  0.0811
20866W        W34280   4.660   1.117  11.985 -0.0310 -0.0586  0.0442
20867W        W34281  18.247  18.157  12.750 -0.1569  0.1144 -0.1501
20868W        W34282   6.706   3.740   2.542  0.0764 -0.4504  0.1362
20869W        W34283  16.295  10.787   0.452  0.0940  0.0673  0.1344
20870W        W34284   9.348   8.225  14.108 -0.0097 -0.3201  0.1389
20871W        W34285   6.544   4.823  12.464 -0.1319 -0.0412  0.2932
20872W        W34286  13.328  11.544  11.251 -0.0346  0.1059 -0.1320
20873W        W34287   3.549   3.151  10.242 -0.2512 -0.0135 -0.0936
20874W        W34288   3.421   3.438   3.322  0.1466  0.0259  0.2773
20875W        W34289  11.527  13.956   3.126  0.1290  0.2097 -0.1655
20876W        W34290  11.170  14.484   6.095  0.2304 -0.2914  0.0933
20877W        W34291   6.884   1.091  13.113 -0.2624 -0.3037 -0.0165
20878W        W34292   9.895  12.287   1.552 -0.2493  0.2879  0.0931
20879W        W34293  12.536  14.400  12.664 -0.3475  0.0516 -0.1985
20880W        W34294  18.118  15.208  14.659  0.0023  0.1105  0.2599
20881W        W34295  11.292   8.991   3.151  0.1197 -0.1860  0.1000
20882W        W34296   8.079   5.865  15.709 -0.0171  0.0073  0.0756
20883W        W34297   0.569   3.584   5.494 -0.0876  0.1970  0.1810
20884W        W34298   6.288   6.729  11.381  0.2758 -0.0345 -0.0647
20885W        W34299  16.834  18.287   0.062 -0.0855 -0.3318  0.1658
20886W        W34300  11.922   7.499  15.253 -0.1122  0.3566  0.1059
20887W        W34301   6.657  16.583   0.599 -0.1827  0.1548 -0.3693
20888W        W34302   5.978   9.687   2.290  0.4028  0.1486  0.5034
20889W        W34303  10.583  13.819  15.241  0.4176  0.0000  0.1289
20890W        W34304   6.355   7.765   3.891 -0.1153 -0.0656  0.2033
20891W        W34305  14.552   4.497   2.168  0.2737  0.4377  0.0742
20892W        W34306  14.297   4.884   5.284 -0.1030 -0.2475  0.0408
20893W        W34307  10.299   4.265   1.655  0.0584 -0.1598  0.3286
20894W        W34308   2.007   9.657   4.933  0.1740 -0.1982  0.2871
20895W        W34309  11.700  16.046  13.331  0.0115  0.1536 -0.1761
20896W        W34310  10.703  17.028   4.955 -0.0553 -0.0390  0.2144
20897W        W34311   8.735  11.117   2.774  0.2229 -0.1006 -0.0911
20898W        W34312   9.605  15.035  14.373  0.3010  0.2787 -0.0060
20899W        W34313  14.487   2.452   0.668 -0.0058  0.0798 -0.3333
20900W        W34314   8.005  14.827   5.474 -0.1656  0.0293  0.2998
20901W        W34315   3.580  10.126   2.516 -0.0305 -0.0075  0.1318
20902W        W34316  10.264  10.073  14.330  0.1017  0.1285 -0.0921
20903W        W34317  10.913   6.050   3.962  0.0114 -0.3274  0.2624
20904W        W34318   9.521   5.644   2.112  0.0859  0.1091  0.0239
20905W        W34319   5.859  15.289   4.922  0.2611 -0.0491 -0.1172
20906W        W34320  12.953  16.409   0.395  0.0026 -0.2523  0.3987
20907W        W34321   1.969   1.071  11.077  0.1070  0.4508  0.0940
20908W        W34322   3.122   8.252   4.945 -0.1021 -0.0157  0.6309
20909W        W34323   4.315  11.469   0.620 -0.0360 -0.0611  0.0233
20910W        W34324   9.322  17.498  11.085  0.0107 -0.0394  0.3159
20911W        W34325  13.086   4.815   0.401  0.2340 -0.0300  0.2207
20912W        W34326  14.135  14.461  13.138 -0.1854  0.2759  0.0033
20913W        W34327   4.044   3.890   2.654  0.2274  0.0703 -0.2405
20914W        W34328   1.962   9.562   4.174 -0.1134  0.1609 -0.1931
20915W        W34329   9.170  10.603  12.764  0.3164 -0.0530 -0.0187
20916W        W34330  12.743   3.782   4.291 -0.1470 -0.1127  0.1739
20917W        W34331  14.444   6.638   1.961  0.1803 -0.1321 -0.0085
20918W        W34332  13.775  16.178   2.913 -0.0975 -0.0426  0.1687
20919W        W34333   7.279  14.808   2.540  0.1568  0.0068 -0.0996
20920W        W34334  11.808  16.348  15.763  0.0181 -0.1214  0.0889
20921W        W34335  15.112   0.676   4.034  0.1064  0.0524  0.3025
20922W        W34336   5.966  13.587  14.050  0.2586 -0.0804  0.0261
20923W        W34337  14.640  12.002  15.428 -0.0056  0.2215 -0.1212
20924W        W34338   2.878   2.305   4.464  0.2605 -0.0055 -0.2307
20925W        W34339   7.032  10.717  12.410  0.2081 -0.0805  0.1279
20926W        W34340   3.293  11.482   1.445 -0.0283  0.0085  0.4446
20927W        W34341   8.426   1.711  10.418 -0.0487 -0.3470 -0.1669
20928W        W34342   0.272   0.124   0.493  0.1110  0.1122  0.1363
20929W        W34343   3.417   9.786  14.379  0.0749  0.0578 -0.2245
20930W        W34344   9.806   1.088  12.931 -0.1505  0.1117  0.2364
20931W        W34345  13.297  13.495   5.122 -0.1500  0.1203 -0.0301
20932W        W34346   8.925   4.895  11.542  0.3126  0.2213 -0.0126
20933W        W34347  14.898   5.810  16.329 -0.0893 -0.1113 -0.1703
20934W        W34348   0.271   1.183  11.179  0.0843  0.2308 -0.2623
20935W        W34349   1.227  17.756  11.893  0.0071  0.2865 -0.0974
20936W        W34350   6.675   5.782   1.334 -0.2400 -0.2864  0.1794
20937W        W34351  15.568   5.363   1.351 -0.2028 -0.1771  0.1685
20938W        W34352  11.400  12.511  13.210 -0.4446  0.2171  0.2766
20939W        W34353  10.320  14.593  14.607 -0.0405  0.0127  0.1000
20940W        W34354   5.828   2.802  12.616  0.0298 -0.1434  0.3379
20941W        W34355   4.793  12.404  16.225  0.5736  0.1932  0.0786
20942W        W34356   1.591   1.868  13.564  0.0087 -0.3567 -0.0344
20943W        W34357  10.074   4.410   6.211 -0.3986 -0.2155  0.2349
20944W        W34358  15.011  16.501   2.360 -0.2169  0.2089  0.0645
20945W        W34359  15.209   1.773  11.403 -0.1886 -0.2201  0.0591
20946W        W34360   4.401   1.997   5.190 -0.2319 -0.0015 -0.4457
20947W        W34361  13.348   3.999   0.195 -0.3931  0.0274  0.0935
20948W        W34362   9.547   5.616   0.826 -0.3014 -0.0075  0.3872
20949W        W34363  10.121  13.685  15.367 -0.0542  0.0081 -0.2458
20950W        W34364   1.057   5.969  14.924 -0.0703  0.0978 -0.0066
20951W        W34365   2.718   9.226   1.338  0.1819  0.1441  0.2199
20952W        W34366  10.279  15.249  15.278 -0.1943 -0.0640 -0.0996
20953W        W34367   9.850  11.331  12.523  0.4526 -0.1045 -0.2433
20954W        W34368  10.931  15.419  10.488  0.2295  0.1754 -0.2811
20955W        W34369   4.422   9.676   4.923 -0.1513 -0.4029 -0.3520
20956W        W34370   5.263   7.898  10.973  0.1502 -0.1960 -0.4008
20957W        W34371   7.008  15.805  12.846 -0.0296 -0.2656  0.0610
20958W        W34372   8.520  14.865  13.615  0.2472  0.3075 -0.1280
20959W        W34373  17.731  15.222  15.810 -0.0735  0.0818  0.1395
20960W        W34374   3.920  14.290  15.700 -0.1360 -0.0401  0.0002
20961W        W34375  13.200   7.389   1.016 -0.4076 -0.0399 -0.3428
20962W        W34376   2.744   1.098   3.693 -0.0743 -0.0334 -0.0083
20963W        W34377  16.260  11.304   4.562  0.0912 -0.3337  0.1261
20964W        W34378  17.963  17.521   2.267 -0.0069  0.1081  0.0090
20965W        W34379  14.385   4.046   5.085 -0.1835  0.0626 -0.4519
20966W        W34380   8.593  17.094   1.868  0.2288 -0.0818 -0.2948
20967W        W34381   4.955   4.773  14.290  0.1104 -0.1866  0.0562
20968W        W34382   2.802   8.824  12.857  0.1625  0.2861 -0.2811
20969W        W34383   4.717   0.194   4.047  0.0115 -0.1618 -0.1021
20970W        W34384  10.774  14.200  14.952  0.0319  0.3251  0.0143
20971W        W34385   1.858   7.159   1.655 -0.0073 -0.3579 -0.2928
20972W        W34386   7.844   4.868  12.339 -0.1445  0.1054 -0.1062
20973W        W34387   2.590  16.152   5.285  0.5757 -0.0361  0.1653
20974W        W34388   7.848   6.314   0.539 -0.1550  0.0453 -0.2349
20975W        W34389   7.252  10.839   1.296 -0.0505 -0.0482 -0.0377
20976W        W34390   4.663   6.431   0.957  0.0781 -0.2776 -0.0720
20977W        W34391  12.977   4.446  15.944  0.1932 -0.0753 -0.1351
20978W        W34392   7.513  11.151   0.936 -0.1163 -0.0036 -0.1946
20979W        W34393  17.490  16.305   0.737 -0.0079  0.1556  0.1774
20980W        W34394  10.217  13.974   1.202 -0.0372 -0.2688 -0.3114
20981W        W34395  16.532   9.232  14.558 -0.1041  0.2256 -0.3179
20982W        W34396  10.365   9.139   0.655  0.1403  0.3635  0.1065
20983W        W34397   3.771   4.768   0.368 -0.0549 -0.0023 -0.3583
20984W        W34398  16.908   9.265  15.834 -0.2907  0.0182 -0.1739
20985W        W34399   6.312  12.462  13.185  0.1470 -0.0893 -0.1038
20986W        W34400   6.827  16.725  11.014 -0.1234 -0.0603  0.1076
20987W        W34401   6.158  17.824  15.222  0.0032  0.1391  0.1672
20988W        W34402   7.630  11.486  11.083 -0.0034  0.1270 -0.0511
20989W        W34403  12.356  17.926  11.484 -0.1106 -0.1118  0.0329
20990W        W34404  14.037  11.648  11.536  0.3136 -0.0390 -0.0748
20991W        W34405  15.761   8.327   0.300 -0.1838 -0.0978 -0.1801
20992W        W34406   6.922   0.625   2.276  0.0791 -0.0269 -0.2007
20993W        W34407  16.133  11.110   2.722 -0.1007  0.2267  0.2091
20994W        W34408   0.785   1.390   2.264  0.0151 -0.0783  0.3043
20995W        W34409  12.612  13.661   1.076  0.0945 -0.1870 -0.2044
20996W        W34410   0.739  18.204   3.726 -0.0822  0.0682  0.1900
20997W        W34411  17.145  10.731   2.085 -0.4190 -0.2225  0.3344
20998W        W34412   2.068  16.299   2.283 -0.0789 -0.3546 -0.0237
20999W        W34413  12.264  17.618   4.331  0.0685 -0.4654  0.3883
21000W        W34414   7.207  15.686   2.753 -0.1666 -0.0905  0.0618
21001W        W34415  12.562   3.883  10.482  0.0837  0.0100  0.3294
21002W        W34416   8.593  13.144  13.670  0.1254 -0.2484 -0.2547
21003W        W34417   7.841  12.510   5.277  0.0830  0.1356  0.1530
21004W        W34418   8.364   4.188  14.428 -0.2233 -0.0179  0.2931
21005W        W34419   5.602   7.697   1.180 -0.2953 -0.0655  0.1053
21006W        W34420   2.392   4.230   5.537  0.3191  0.2637 -0.2995
21007W        W34421  16.887  12.927  13.015  0.1460  0.1057  0.2173
21008W        W34422   0.753   6.344  10.339  0.0857 -0.2492  0.0125
21009W        W34423   1.504   8.334   3.756 -0.1440  0.1501 -0.0198
21010W        W34424  13.586   5.388   1.009  0.2683 -0.0352 -0.4344
21011W        W34425  15.381   4.861  13.571  0.0363  0.2408 -0.3244
21012W        W34426   1.650   6.947   2.924 -0.2221  0.2171  0.1428
21013W        W34427   6.551  16.531  12.946  0.0719 -0.0622  0.0459
21014W        W34428   1.002   0.289  11.610  0.1887 -0.0592 -0.0133
21015W        W34429  14.008   8.251   3.351 -0.3703 -0.1923 -0.2052
21016W        W34430   8.586   2.394  11.506  0.1127  0.1302  0.1117
21017W        W34431  10.120   0.336  12.282  0.1579 -0.3741 -0.1967
21018W        W34432  13.008  14.324   4.923  0.1466  0.2389 -0.0887
21019W        W34433  15.172   6.957   1.712 -0.0685 -0.1061  0.0703
21020W        W34434   8.240   6.423   4.498 -0.4981  0.0755  0.0172
21021W        W34435   0.085   9.279   3.941 -0.0853 -0.1996  0.4940
21022W        W34436  14.846   9.982  14.949 -0.0333  0.2751 -0.0063
21023W        W34437  13.901   8.651   3.724  0.2195  0.2199  0.0519
21024W        W34438   4.748   3.409   0.066  0.1651 -0.2128  0.0888
21025W        W34439  11.900   0.455  14.804  0.3257 -0.2289  0.1359
21026W        W34440   8.816   5.503   2.889  0.0061  0.1106 -0.2494
21027W        W34441  13.251   2.655   6.139 -0.0065 -0.3293 -0.2290
21028W        W34442   5.875  11.287  11.559 -0.0279  0.2147  0.0634
21029W        W34443   7.290   5.383  12.850  0.0025  0.0147 -0.1841
21030W        W34444  17.359  13.439   4.312 -0.0500 -0.3667 -0.2255
21031W        W34445  17.912   9.504  14.447  0.5367 -0.0334 -0.1255
21032W        W34446  12.025   1.870   4.813 -0.4369  0.0220  0.1905
21033W        W34447  10.373   6.273   2.849 -0.2088 -0.2959 -0.1809
21034W        W34448   5.342  12.262  14.647  0.2122 -0.3989  0.4525
21035W        W34449  17.914  10.627   0.353  0.4942  0.3040  0.3142
21036W        W34450  12.158   5.840   2.159 -0.2541  0.0274  0.1424
21037W        W34451   9.176   2.610   1.296 -0.2032 -0.0632  0.0486
21038W        W34452  14.837  10.461  12.594 -0.1374 -0.1577 -0.0557
21039W        W34453  10.420   4.730   2.626 -0.3422  0.3536  0.1790
21040W        W34454   6.746  13.483  15.132  0.1156  0.3301 -0.0430
21041W        W34455   5.748   3.986  15.031  0.1171 -0.1768 -0.1335
21042W        W34456   2.845   4.324   5.748 -0.1959  0.2275 -0.3747
21043W        W34457  14.692  12.016   1.947 -0.2292  0.0452  0.1105
21044W        W34458  12.145   1.761   1.005  0.2998 -0.2256 -0.0598
21045W        W34459  15.783  12.624  15.025 -0.2614  0.1611  0.0796
21046W        W34460   6.372   2.891   2.823  0.0456  0.3476  0.0217
21047W        W34461   8.693   4.509  15.344  0.2295 -0.0842 -0.0607
21048W        W34462  16.405   3.605   4.921  0.1948  0.1318 -0.2853
21049W        W34463   1.077  15.947  12.317 -0.1439 -0.1346  0.1385
21050W        W34464  15.233   4.454   4.940  0.0290  0.2785  0.1311
21051W        W34465  15.454  13.584  15.927  0.1117 -0.0329 -0.3675
21052W        W34466   5.712  14.189  12.109 -0.1660  0.1035  0.0978
21053W        W34467  15.557  15.198  15.016 -0.0501 -0.0102  0.1425
21054W        W34468  16.007   0.071  12.078  0.2177  0.0374 -0.1638
21055W        W34469  16.779  10.162   0.866 -0.1676  0.4201 -0.3272
21056W        W34470   9.322  10.184   5.806  0.1005 -0.1257 -0.2864
21057W        W34471   2.166   2.238  13.539  0.0055  0.0967  0.0243
21058W        W34472  16.839   3.589  10.693 -0.0317 -0.3281  0.0731
21059W        W34473   4.415   8.726  15.074 -0.2372 -0.0396 -0.0037
21060W        W34474   9.350  13.194  14.902  0.0620 -0.1302 -0.0108
21061W        W34475   4.991   4.298   2.624 -0.1880  0.0364 -0.1159
21062W        W34476  13.013   9.886  11.001  0.0230  0.0429  0.0065
21063W        W34477  10.275  13.461  14.968  0.1634  0.2836  0.2558
21064W        W34478   4.436   7.040   4.962  0.0777  0.0176 -0.1185
21065W        W34479  11.004   2.910   3.352  0.0167 -0.0490 -0.1749
21066W        W34480   4.426   0.775  11.691 -0.1664 -0.2086  0.0040
21067W        W34481  11.063   6.753   1.955 -0.3149  0.0784 -0.2657
21068W        W34482  16.034   6.121  15.736 -0.0226  0.0277 -0.2856
21069W        W34483   1.357   9.027   1.305 -0.0649 -0.2776  0.1232
21070W        W34484  11.940   2.180   2.524  0.1972  0.1932 -0.0643
21071W        W34485  12.577  12.504  13.488  0.0179  0.0947  0.1491
21072W        W34486   4.259  17.727   3.552  0.2380 -0.1869  0.0077
21073W        W34487   4.007   7.647   2.784  0.0177  0.2484 -0.2172
21074W        W34488  17.960  10.791  12.873 -0.1383 -0.0493  0.0667
21075W        W34489  14.432   0.720  12.251  0.1257  0.0955  0.2359
21076W        W34490   0.557   9.495   0.621 -0.0255 -0.0854 -0.0392
21077W        W34491   9.918  15.143  13.810 -0.0413 -0.0339  0.1334
21078W        W34492  10.992  16.645   3.414 -0.1922  0.1478  0.1042
21079W        W34493   9.420   9.031  14.766  0.0771  0.0570 -0.1441
21080W        W34494  16.997   3.668  11.488 -0.0615 -0.0392 -0.1359
21081W        W34495   6.823   4.045  16.270  0.2555 -0.0743  0.4213
21082W        W34496   4.108  11.848   0.332 -0.0240 -0.0795  0.0490
21083W        W34497   7.201  18.234   0.688 -0.3043 -0.1086 -0.4551
21084W        W34498  11.682  14.305   0.007 -0.0562 -0.0473  0.0368
21085W        W34499   3.809   9.283   2.027 -0.2386  0.3585 -0.1489
21086W        W34500   0.525  11.505   4.959 -0.1052 -0.0401 -0.1895
21087W        W34501   6.161   0.879  11.629  0.2274  0.1118  0.0727
21088W        W34502   3.171   5.830  16.269 -0.0485 -0.0650 -0.0769
21089W        W34503  11.822   6.986   0.285  0.0837 -0.1656  0.3026
21090W        W34504  15.691   2.061   4.078  0.1482  0.1730  0.1482
21091W        W34505   7.179  17.649  12.459  0.1344  0.0877  0.0594
21092W        W34506  17.881   2.616   3.821 -0.1008  0.1690  0.2075
21093W        W34507   7.380   7.601  15.720  0.2056  0.2114 -0.1354
21094W        W34508  12.215  16.949  11.354 -0.1953  0.0582 -0.3224
21095W        W34509  14.163  17.956   3.073  0.0935  0.0494  0.0645
21096W        W34510  10.937   2.853  15.697  0.1179 -0.0555 -0.1786
21097W        W34511   1.048   2.878  12.388  0.2628 -0.0908 -0.0296
21098W        W34512   6.592  14.300   2.040  0.1233 -0.2719 -0.0696
21099W        W34513  16.620  15.860  16.169 -0.1849  0.0149  0.2780
21100W        W34514   7.026  18.216   2.725  0.1851 -0.0885  0.1420
21101W        W34515  18.095   5.424   3.987 -0.3455  0.0439 -0.2863
21102W        W34516  13.194  15.235   3.128 -0.1135  0.0324 -0.2152
21103W        W34517  10.508   5.978   5.337 -0.0640 -0.0379  0.0967
21104W        W34518   2.307  13.564   5.496  0.0144  0.1104  0.0189
21105W        W34519  17.051   5.982   0.887 -0.1404  0.0150 -0.1862
21106W        W34520   1.899   7.388   3.617 -0.0593 -0.0775  0.3109
21107W        W34521   9.890   7.269  11.285 -0.4162  0.0806  0.2331
21108W        W34522  12.004   6.905   1.250 -0.1899  0.2261 -0.1364
21109W        W34523  13.852   9.860  16.082  0.2243 -0.3442 -0.1273
21110W        W34524   0.222   2.437   1.024 -0.1029  0.0431  0.2799
21111W        W34525  17.281   6.310   4.010  0.0256 -0.2808 -0.2804
21112W        W34526  12.393  17.678  15.767 -0.0395  0.2314 -0.1694
21113W        W34527   8.888  13.287  12.488 -0.0221 -0.1343 -0.3651
21114W        W34528  18.299  11.318  10.769 -0.0861 -0.2588 -0.2916
21115W        W34529   5.870  15.499   1.713  0.0512  0.1388  0.2725
21116W        W34530  12.559  16.626  11.709  0.1432 -0.1261 -0.3353
21117W        W34531  14.778  15.027  14.879 -0.2216 -0.2266  0.2009
21118W        W34532   3.315   7.584   0.361  0.2370 -0.1800 -0.1967
21119W        W34533   3.289   0.791   1.449  0.3355  0.0383 -0.1118
21120W        W34534  16.749  14.314  14.524 -0.1015 -0.2815  0.2481
21121W        W34535   6.505   1.503   0.263 -0.0941 -0.2465  0.0606
21122W        W34536  15.639   2.031  11.198  0.0534 -0.1814 -0.0263
21123W        W34537   1.865  11.792  11.773  0.2099  0.5883  0.1913
21124W        W34538   7.748  12.248   2.681 -0.2100 -0.1866 -0.0030
21125W        W34539  17.371   0.378   4.654 -0.1158 -0.0042 -0.1210
21126W        W34540  15.008  12.371  16.292  0.5578 -0.1843 -0.3475
21127W        W34541  11.541   1.372   5.310  0.1943  0.1141 -0.1956
21128W        W34542   7.030  16.776  16.334  0.1549 -0.0060 -0.0840
21129W        W34543   0.967   8.399   1.456  0.2124 -0.2711  0.0467
21130W        W34544   5.760  10.040  13.505 -0.0459 -0.0063 -0.0048
21131W        W34545  16.266  12.007   4.798 -0.0725  0.0785  0.0043
21132W        W34546   6.853   9.218  14.755 -0.0585  0.3325 -0.0727
21133W        W34547   9.430   5.031   3.465  0.2460 -0.0479  0.0798
21134W        W34548  12.568   0.889  11.242  0.1090 -0.0414 -0.3703
21135W        W34549   7.200  16.275  16.115  0.0895 -0.2437  0.4042
21136W        W34550   0.940  11.118  12.736  0.2447  0.1586 -0.1576
21137W        W34551   2.066   3.968   2.757 -0.3937  0.1773 -0.1333
21138W        W34552  17.721   9.460  14.982 -0.2275 -0.2098  0.1064
21139W        W34553  13.742  17.910   1.094  0.3331 -0.2913  0.3296
21140W        W34554   1.162   9.391   4.313 -0.1952 -0.1863  0.1157
21141W        W34555   0.741  12.420   4.532 -0.5953 -0.0720 -0.4091
21142W        W34556   9.055  13.226   0.392  0.2099  0.3343  0.2671
21143W        W34557   1.951   5.624   1.610  0.1812  0.0209  0.0238
21144W        W34558   9.141  15.991  15.707  0.0792 -0.0573 -0.2803
21145W        W34559   9.663  17.172   2.116 -0.2545 -0.0668 -0.0438
21146W        W34560   9.701   9.035  12.029 -0.0960  0.0104 -0.0798
21147W        W34561  11.172   2.135   3.114 -0.1996  0.1621 -0.1106
21148W        W34562  16.803   9.670  12.820  0.0250 -0.1299 -0.1435
21149W        W34563   8.002  18.073   4.505  0.1706  0.0734 -0.2360
21150W        W34564   2.318  15.453   5.159 -0.3391 -0.0796 -0.1114
21151W        W34565  12.626   4.294  11.346  0.0817  0.1514  0.0743
21152W        W34566  12.026   0.209   2.015 -0.3120  0.2995  0.0254
21153W        W34567  14.536   4.817   0.575  0.0603  0.1605 -0.0173
21154W        W34568   5.375   5.033  11.670  0.4118 -0.0982  0.0009
21155W        W34569   0.829   2.986   6.297  0.0525 -0.2258  0.0226
21156W        W34570   3.809  12.943  12.490 -0.2603  0.0036  0.5398
21157W        W34571  12.488  18.328   1.326 -0.3224  0.0062 -0.1216
21158W        W34572  12.058  14.429   1.997  0.0245 -0.1218 -0.0149
21159W        W34573   9.568   0.281   2.363 -0.1224  0.2936 -0.2149
21160W        W34574   6.551  11.283   1.932  0.0155  0.0680 -0.0391
21161W        W34575  16.407  12.405   4.117  0.0032  0.0488  0.2376
21162W        W34576  13.635  15.243  16.118  0.0484 -0.3262 -0.0379
21163W        W34577   7.233  16.943   2.793 -0.4912  0.4489  0.3726
21164W        W34578   9.277   8.373   5.738  0.0941  0.3374  0.0760
21165W        W34579  17.281   5.525  13.914  0.0303 -0.1988 -0.1031
21166W        W34580  11.507   5.636  12.127 -0.2075  0.3484  0.0156
21167W        W34581  13.311  10.528   4.049 -0.0166  0.1107  0.1882
21168W        W34582  12.036  16.707   0.344 -0.3856 -0.3814 -0.1674
21169W        W34583   6.422   2.967  13.322 -0.1085  0.0506 -0.2138
21170W        W34584   1.057   9.718   0.716  0.0587 -0.3365  0.0148
21171W        W34585   6.527  11.665   3.250  0.0181 -0.2051  0.1389
21172W        W34586   8.859  16.091  10.580  0.3168 -0.0593 -0.1169
21173W        W34587   5.357   9.610  11.660  0.1836 -0.1742 -0.1751
21174W        W34588   3.323   9.074  11.144  0.2439  0.2157  0.0121
21175W        W34589   7.215   6.359   2.948 -0.4917  0.0240  0.2161
21176W        W34590   2.636   5.748   4.245  0.0985  0.1851 -0.2883
21177W        W34591   5.842   9.114  12.910  0.2435 -0.1583  0.0417
21178W        W34592  12.506  12.713  13.020  0.1117  0.3227 -0.1504
21179W        W34593  13.997  16.681   1.242 -0.0162 -0.2510  0.0770
21180W        W34594   7.270  15.135  11.931 -0.2108  0.0890 -0.1763
21181W        W34595   0.239   3.892  13.208  0.0868 -0.2760  0.0652
21182W        W34596   2.469  10.138  11.428 -0.5785 -0.2308 -0.0816
21183W        W34597   4.892   8.127  11.684  0.2132 -0.1306  0.1562
21184W        W34598  17.263   8.594   0.510 -0.1553  0.0586 -0.2746
21185W        W34599   9.040  10.469  15.127 -0.2248  0.1566  0.0708
21186W        W34600   2.227   1.018   4.006  0.2913  0.1636  0.1872
21187W        W34601  12.098  15.308   6.208  0.1425 -0.1674  0.2613
21188W        W34602   7.307   6.965  15.971 -0.1510 -0.1112  0.1858
21189W        W34603   1.602   4.584   0.488 -0.0974  0.2135  0.0045
21190W        W34604  16.314   6.253  16.181 -0.0638 -0.0261  0.0656
21191W        W34605   9.949   4.819   2.502 -0.0525 -0.1956  0.3241
21192W        W34606  10.875  16.550   5.679  0.1488 -0.1119  0.2267
21193W        W34607  13.224  12.787   1.764 -0.1025 -0.0825  0.0750
21194W        W34608   7.281   6.863  10.977  0.1991  0.4127 -0.2925
21195W        W34609   0.847   6.869   0.790  0.1458  0.2554  0.1722
21196W        W34610   8.145  11.501  11.043  0.2980  0.2527  0.0109
21197W        W34611   6.749  16.496   5.086 -0.2559 -0.0783  0.2927
21198W        W34612  14.102  17.088  13.079  0.0207 -0.2413  0.1722
21199W        W34613  15.933   0.269  14.996 -0.3916 -0.1084 -0.0854
21200W        W34614  17.550  12.326   3.445 -0.1994 -0.2420 -0.1100
21201W        W34615   6.332  17.384  15.488  0.2834  0.1689 -0.3799
21202W        W34616   2.742   8.206  15.173  0.2127 -0.2238 -0.4002
21203W        W34617  16.728  10.110  12.572  0.1699  0.3797  0.0101
21204W        W34618   3.302   1.665   5.783 -0.1912 -0.0283  0.1042
21205W        W34619  17.200  14.665  15.447 -0.0575  0.1750  0.2141
21206W        W34620   7.502  17.932  14.524  0.1114  0.2096  0.3966
21207W        W34621   7.373   7.362   1.573 -0.2523  0.2476 -0.1133
21208W        W34622  16.687  12.291   3.575 -0.0363  0.3725  0.3077
21209W        W34623  11.712   7.336   1.322 -0.1249  0.0490 -0.0512
21210W        W34624  15.319  13.422  12.343 -0.1920 -0.0275  0.1338
21211W        W34625  14.918   6.780   2.156  0.3018 -0.1403  0.2037
21212W        W34626   5.548  13.600   3.055 -0.0331  0.2143  0.1706
21213W        W34627   5.935  18.075  12.603 -0.2283  0.1685 -0.0985
21214W        W34628   3.524  15.715  15.747  0.2442  0.1456  0.0766
21215W        W34629   0.826   9.898   1.213 -0.2314  0.3270  0.0143
21216W        W34630  12.514   5.785   0.409  0.2496  0.3536 -0.0380
21217W        W34631   7.974   3.632   0.309  0.2500  0.1442 -0.0965
21218W        W34632   3.113  15.136   1.546 -0.0491  0.1425  0.0778
21219W        W34633  17.749  14.040   6.509 -0.0296 -0.1502 -0.0236
21220W        W34634   9.654  13.963   4.639 -0.3430 -0.1957  0.4092
21221W        W34635   3.285   3.273   0.502  0.4320  0.1672  0.0090
21222W        W34636   2.588  15.893   0.851 -0.1828 -0.0186  0.1476
21223W        W34637   1.091   4.816  15.474  0.0488  0.0167  0.0354
21224W        W34638   8.603   9.250   0.704  0.3142  0.1121 -0.0217
21225W        W34639   3.090   6.069  14.599 -0.1530 -0.0232  0.1494
21226W        W34640  16.616   8.078  13.107 -0.2515  0.1263  0.1762
21227W        W34641   5.356  14.396   1.413 -0.2171  0.0555 -0.3144
21228W        W34642   4.304  15.021   2.626 -0.0390 -0.0209  0.0324
21229W        W34643   9.304  10.189  14.850  0.1878  0.0404 -0.3646
21230W        W34644   1.277  12.187  15.350  0.0509  0.3594  0.3311
21231W        W34645  16.579   4.925   0.516 -0.0006 -0.2259 -0.2739
21232W        W34646  11.257   5.210  12.685 -0.1543  0.2290  0.2044
21233W        W34647   4.751   5.582   5.190 -0.1433 -0.0760  0.5066
21234W        W34648  15.109  10.223   2.230 -0.0939  0.1464  0.4127
21235W        W34649  14.468   9.400  13.758 -0.1123  0.1526 -0.1179
21236W        W34650  17.292   0.425   4.151 -0.1234  0.1710 -0.3027
21237W        W34651  12.057   0.771   1.339 -0.1408  0.0994  0.1774
21238W        W34652  18.043  17.898   7.194  0.3619  0.1984 -0.1815
21239W        W34653   2.411  15.890   3.440 -0.0651 -0.0424  0.1863
21240W        W34654  11.166   6.193   4.787 -0.2870 -0.1697 -0.3033
21241W        W34655   1.742   4.415  14.451  0.1282  0.1608 -0.0885
21242W        W34656   9.546  14.583   1.796 -0.0892  0.1494  0.1627
21243W        W34657   6.407  15.282   1.674  0.0479  0.2032 -0.2842
21244W        W34658  17.396  14.405   4.230 -0.0160  0.1236  0.1464
21245W        W34659   5.989  13.165  15.455  0.3063 -0.1105  0.6113
21246W        W34660   5.183  12.739  15.442  0.2677  0.4568  0.1809
21247W        W34661  14.312   5.273  12.125  0.1168 -0.2495  0.2668
21248W        W34662   1.754   0.607   1.802  0.1568  0.1846  0.1624
21249W        W34663  12.162   7.344   0.594 -0.1129  0.3786  0.1826
21250W        W34664  12.001   5.618  10.954 -0.0736  0.2558 -0.1100
21251W        W34665  11.441   5.329   4.951  0.3474  0.0081 -0.0516
21252W        W34666   5.828  10.815  12.820  0.0164 -0.3930 -0.0297
21253W        W34667   9.122  13.749  13.144  0.1926 -0.1393 -0.5050
21254W        W34668   1.844   4.974  14.601 -0.2662 -0.0384 -0.0422
21255W        W34669  15.002   8.443  12.690 -0.2796  0.1880 -0.0550
21256W        W34670   2.187  17.537  14.224 -0.0156 -0.0680 -0.2257
21257W        W34671   0.930  14.222   6.546  0.0589  0.2295  0.2422
21258W        W34672   2.804   3.189  12.526  0.1350 -0.1861 -0.3266
21259W        W34673   6.588  11.837  14.457  0.1425  0.3163  0.0136
21260W        W34674   5.615   8.916  10.616 -0.4584 -0.1815 -0.0892
21261W        W34675   6.222   6.124  14.223  0.1877 -0.0274  0.0582
21262W        W34676  12.764   9.884  12.319  0.0868  0.0467  0.3253
21263W        W34677   1.119  10.673   1.860 -0.0495  0.0912 -0.2712
21264W        W34678   3.230   1.088   3.594  0.3310  0.1797  0.0018
21265W        W34679  14.997  12.967   3.535 -0.4434 -0.1503  0.0199
21266W        W34680   9.256  11.908  16.091  0.0487 -0.2018 -0.1593
21267W        W34681  15.519  11.655  12.614  0.1013  0.1507 -0.2802
21268W        W34682  10.996  15.573  12.307  0.1912  0.1800  0.0543
21269W        W34683  10.102   1.243  14.570 -0.3499  0.0501  0.2771
21270W        W34684  12.070  18.141   1.044 -0.0285 -0.1069  0.0953
21271W        W34685  12.954  18.078  14.323  0.0473  0.0233  0.2569
21272W        W34686   6.977  15.265   4.080 -0.0836  0.5566  0.0154
21273W        W34687   0.447   5.222   0.418 -0.1013 -0.2897 -0.1455
21274W        W34688   0.132  13.736   0.941  0.1947 -0.2054 -0.0675
21275W        W34689  10.298   8.777   0.339  0.1102  0.0850  0.0578
21276W        W34690  16.261  17.874   4.509  0.1466  0.0495  0.1451
21277W        W34691   5.934  17.282  13.068 -0.0686 -0.0610  0.1854
21278W        W34692  15.722   6.478   2.967  0.0774 -0.0234  0.1355
21279W        W34693   4.653   4.009  12.104 -0.2614  0.1533  0.2559
21280W        W34694  13.843  13.313   2.957  0.3075 -0.0905 -0.0943
21281W        W34695  10.774   1.538  11.267  0.2275  0.0683 -0.0812
21282W        W34696  17.334   3.412   4.798  0.2945  0.0418 -0.0123
21283W        W34697   3.028   6.794   2.297  0.0275  0.0566  0.2580
21284W        W34698  17.819  10.595   3.679 -0.0211 -0.0322  0.2474
21285W        W34699   9.218   3.404   5.420 -0.2712 -0.3028 -0.2396
21286W        W34700   7.711  10.930  13.102  0.1414  0.0610  0.0311
21287W        W34701   2.301  10.098   1.058  0.0056 -0.0585  0.1809
21288W        W34702   1.000   4.811  14.989 -0.0281 -0.1459 -0.1806
21289W        W34703  12.877   8.520   4.342  0.2796  0.0256 -0.0161
21290W        W34704   9.418   7.706  14.183 -0.0025  0.2500 -0.0543
21291W        W34705  11.703   7.149   0.793 -0.0680  0.1232 -0.2879
21292W        W34706   2.116  15.213   5.711 -0.1100 -0.0533 -0.2383
21293W        W34707   8.770   0.770  15.548  0.0342 -0.0838  0.1022
21294W        W34708  10.303  14.601   3.007  0.0332 -0.0827  0.0982
21295W        W34709   6.137  16.977  16.506 -0.2913 -0.0171 -0.0672
21296W        W34710  15.213   5.101   2.247 -0.1995 -0.0193  0.0465
21297W        W34711   7.915   6.655   4.035 -0.0869 -0.0530  0.0340
21298W        W34712  18.016   4.897  11.530 -0.2822  0.4095  0.0136
21299W        W34713   2.781   5.041   5.494 -0.1165  0.1860  0.1942
21300W        W34714   9.406   3.018   2.100 -0.0163 -0.0103 -0.1885
21301W        W34715   0.113   1.594  11.488 -0.0423 -0.0605 -0.0562
21302W        W34716   2.519   3.354   5.306  0.3064 -0.0563  0.1079
21303W        W34717  14.160   2.140  12.332 -0.2542  0.2707 -0.1131
21304W        W34718  14.256   1.312  16.200  0.2150  0.1545  0.0181
21305W        W34719  15.845   9.683  10.936  0.0653 -0.1051 -0.0323
21306W        W34720   2.085  15.610   4.658  0.0441 -0.5717 -0.0669
21307W        W34721  16.463   6.460  12.797 -0.1912 -0.1737  0.0881
21308W        W34722   2.419  13.073  12.725  0.1858  0.3514  0.3618
21309W        W34723   9.820  18.140   5.503 -0.0078  0.1662  0.1107
21310W        W34724   3.902   1.246  10.499  0.0480 -0.3057 -0.1117
21311W        W34725  12.282   7.763   2.840 -0.1852  0.0277  0.2174
21312W        W34726  17.561  15.052  15.312 -0.2028  0.3464 -0.0908
21313W        W34727  11.951  10.382  10.812 -0.1253 -0.2636  0.0850
21314W        W34728   0.952   2.584  11.926 -0.2931 -0.2004  0.0319
21315W        W34729  13.760  11.971   3.933  0.1664  0.0266  0.0116
21316W        W34730  16.603   9.602   0.657  0.0433  0.1427 -0.0674
21317W        W34731   4.927  13.210   1.511 -0.0149  0.1361  0.3402
21318W        W34732  13.352  16.401  15.112  0.2962 -0.1226  0.0978
21319W        W34733   7.419  16.930   4.189  0.5312  0.1226 -0.0552
21320W        W34734   1.435  16.020  11.500 -0.1068  0.0012  0.2215
21321W        W34735  16.738   0.922  11.616  0.1475 -0.1233  0.0827
21322W        W34736  11.824   4.780  14.906  0.0554 -0.0088  0.0296
21323W        W34737  13.431  10.581   6.357  0.0265 -0.4031 -0.0604
21324W        W34738   6.723  13.622  14.535 -0.1843  0.1919  0.3640
21325W        W34739   4.544   0.029  15.611  0.3492 -0.0560 -0.1747
21326W        W34740   5.885   7.784   4.187 -0.0323  0.4425  0.4050
21327W        W34741   0.534   4.613   6.148 -0.1699 -0.0087 -0.1609
21328W        W34742   1.378   5.097   0.531 -0.1012  0.1820  0.0287
21329W        W34743  17.016  17.579  10.895 -0.2214  0.0612  0.1411
21330W        W34744   8.271  15.309  13.575 -0.0016  0.1554  0.0744
21331W        W34745   6.686   8.112  13.625  0.0022  0.2276  0.2580
21332W        W34746   4.154   2.095   2.301 -0.0967  0.2922  0.2472
21333W        W34747  15.553   8.641   1.832  0.1688 -0.0578 -0.2891
21334W        W34748  10.279   2.105  15.707 -0.0397  0.2830  0.3190
21335W        W34749   4.651  14.216   2.313  0.0166 -0.0920  0.2498
21336W        W34750  10.202  16.233   5.357 -0.0324  0.2610 -0.1425
21337W        W34751   0.171  13.232  14.460  0.2351  0.0259 -0.0092
21338W        W34752   7.050   0.172   6.707 -0.2104  0.1457  0.0724
21339W        W34753   5.270  12.985   2.218 -0.0898  0.2436  0.2611
21340W        W34754  14.787  16.149   6.427 -0.0755 -0.0901 -0.0248
21341W        W34755   6.852   7.626  14.982 -0.0643 -0.0835 -0.0420
21342W        W34756  10.679  17.577   3.804 -0.1033 -0.0013  0.0776
21343W        W34757  13.547  12.520   3.995  0.2530 -0.3080  0.3082
21344W        W34758  17.134  12.828   5.730  0.1059  0.1938 -0.2385
21345W        W34759   4.121   3.842  12.676  0.1793 -0.3672  0.1851
21346W        W34760   6.188  12.761  12.070 -0.0877 -0.0097 -0.0132
21347W        W34761  18.387   8.393   2.861 -0.0529  0.0986  0.2296
21348W        W34762  17.668   8.614   3.948  0.1291 -0.2268  0.1858
21349W        W34763   2.816  10.680  10.786 -0.1031  0.1931  0.2338
21350W        W34764   5.825   9.500  13.311 -0.0240  0.0965 -0.1506
21351W        W34765  13.248   8.479  12.724 -0.0709 -0.0059 -0.1182
21352W        W34766   8.813   1.248   1.269  0.2221 -0.3872 -0.0118
21353W        W34767   9.047   9.110  15.214  0.0485  0.1027  0.1824
21354W        W34768   8.064  16.932   2.400  0.1298 -0.0174  0.1433
21355W        W34769  13.268   9.825   1.078  0.1461 -0.1563  0.4890
21356W        W34770  17.434  12.399  15.523 -0.0931 -0.1764  0.0848
21357W        W34771  16.919   4.833   6.432 -0.0386 -0.1473  0.1835
21358W        W34772  11.874  15.918   5.188  0.1011  0.0550  0.0723
21359W        W34773  13.467   2.364  16.104  0.2038 -0.0351  0.2286
21360W        W34774  17.515  13.682   1.169  0.2434 -0.0712 -0.1849
21361W        W34775   1.854  12.210  14.771  0.0898  0.1164  0.0432
21362W        W34776   5.468   1.263   1.367  0.1167  0.2815 -0.1146
21363W        W34777  15.178   5.320  11.412  0.0960  0.0245  0.0697
21364W        W34778  11.459  15.946   3.988 -0.0056 -0.0913  0.2611
21365W        W34779   9.443  10.142  10.464  0.1551 -0.0169 -0.1189
21366W        W34780   8.123  12.299   3.470  0.0730 -0.3447  0.0248
21367W        W34781   9.388   4.037   4.080 -0.1051 -0.0176  0.2482
21368W        W34782   9.644   2.675  14.340  0.1621 -0.0747 -0.2747
21369W        W34783  17.194  13.970   5.156 -0.4104  0.0033  0.0085
21370W        W34784  11.934   7.433   4.231  0.1788 -0.0187 -0.0760
21371W        W34785  17.635  11.928  15.393  0.4257 -0.1260 -0.0089
21372W        W34786   8.698   9.383   5.237 -0.3678 -0.2704  0.0969
21373W        W34787  15.016  12.093   5.117 -0.2839  0.1256 -0.2973
21374W        W34788   5.769   9.299  10.167 -0.5039  0.0177 -0.0769
21375W        W34789   4.763   0.910   1.247  0.2996  0.1752 -0.3013
21376W        W34790  15.406   6.743  14.756 -0.1186  0.2392  0.5555
21377W        W34791  11.444   8.235   1.117  0.2340  0.0545 -0.0058
21378W        W34792  14.008   5.911   0.254  0.1056 -0.1828 -0.2377
21379W        W34793  16.045   4.536  14.121 -0.1755  0.1101  0.0180
21380W        W34794   1.792   0.578  14.249  0.0046  0.3468 -0.1522
21381W        W34795  17.407   8.741   4.715  0.1843  0.0060 -0.0526
21382W        W34796   8.566  15.548  11.951  0.0289 -0.1203  0.0155
21383W        W34797   3.362   8.954   0.894 -0.1178  0.1719 -0.0709
21384W        W34798   7.563   5.302   4.004  0.1394  0.2250 -0.3325
21385W        W34799  11.600  14.249   1.912 -0.2706  0.1468  0.3022
21386W        W34800   3.851  12.593   3.880 -0.2419  0.1060  0.1083
21387W        W34801   1.602  16.105   3.110 -0.0273 -0.1281 -0.1479
21388W        W34802   5.330   7.509  12.237  0.2475  0.3017  0.1339
21389W        W34803  15.465  11.265   6.173  0.0041 -0.1153 -0.0017
21390W        W34804   9.176  12.349  15.912  0.3671 -0.0327  0.0672
21391W        W34805   3.351  12.879   5.426 -0.0190 -0.2739  0.1028
21392W        W34806   0.475   1.733  16.267 -0.0173 -0.1922 -0.0873
21393W        W34807  15.160  11.928   2.145 -0.1565  0.0621  0.4680
21394W        W34808  11.654  11.541   0.870  0.0823 -0.0930  0.0228
21395W        W34809   9.290   1.165  15.702 -0.0377 -0.0996  0.0670
21396W        W34810  16.809   6.768   0.797  0.0871  0.0048 -0.4656
21397W        W34811  13.090   6.581  16.172 -0.0470 -0.0587 -0.0788
21398W        W34812  11.794   1.547   3.335 -0.1410 -0.1446 -0.1684
21399W        W34813  15.957   8.696   3.557 -0.0299  0.1730  0.1854
21400W        W34814   8.068  10.596   4.626  0.6948  0.0995  0.0488
21401W        W34815   9.769  16.888  15.511  0.1765 -0.2866 -0.2625
21402W        W34816  10.384  12.650   5.972 -0.0305  0.0201 -0.0530
21403W        W34817   6.429   6.406  13.285  0.1450 -0.1120 -0.0957
21404W        W34818   7.349  13.768  14.619 -0.1698 -0.5951  0.2209
21405W        W34819  14.276  11.436   3.304 -0.1401  0.1675 -0.1403
21406W        W34820  11.274   0.415  11.254  0.0599  0.0213 -0.3519
21407W        W34821   3.754  18.030  15.070  0.1234  0.1441 -0.1677
21408W        W34822  13.160   9.435  15.739  0.0209 -0.0983  0.0128
21409W        W34823  17.568  10.913   5.828 -0.1122  0.1131 -0.1126
21410W        W34824   4.055   4.230  15.642 -0.1218  0.0839 -0.1310
21411W        W34825  10.444   5.175  11.601  0.4656  0.1299  0.0563
21412W        W34826   0.068  17.348   0.308  0.1101 -0.1121  0.0208
21413W        W34827   6.466  15.566   0.011 -0.1936 -0.0152 -0.0262
21414W        W34828  16.966   8.027  15.179  0.0152 -0.0031 -0.2056
21415W        W34829   6.310   9.017   2.764  0.1158 -0.2538  0.1176
21416W        W34830   5.084   7.750  13.941  0.0686 -0.2339  0.0867
21417W        W34831   2.569   4.540  11.938 -0.1573 -0.3791 -0.3771
21418W        W34832   2.652  12.682  10.459  0.2145 -0.0428 -0.2015
21419W        W34833  10.662   2.891  11.422  0.1181 -0.0216  0.0710
21420W        W34834   1.571  11.292   5.730 -0.0901 -0.1417 -0.0063
21421W        W34835   3.690   8.836   3.380 -0.2558 -0.2153 -0.0870
21422W        W34836  10.902   2.618   0.463  0.1828  0.1114 -0.0730
21423W        W34837   8.711   7.482   4.922  0.2849 -0.1243 -0.2682
21424W        W34838  14.161   2.352  12.991 -0.4432 -0.1576  0.1918
21425W        W34839  11.459   0.338  10.790 -0.1027  0.1519  0.1517
21426W        W34840   8.859  15.884  12.971  0.1456  0.3691 -0.2848
21427W        W34841  15.764   1.989  16.335 -0.2748  0.0895 -0.2166
21428W        W34842   6.852   6.399   4.827 -0.0451  0.0629 -0.1650
21429W        W34843  17.583   3.567  12.315 -0.4555 -0.1833  0.0617
21430W        W34844   8.085   8.566  13.839 -0.1035 -0.0163 -0.0667
21431W        W34845   4.535   2.924   4.941  0.1631 -0.4404 -0.0343
21432W        W34846  14.159  14.783  15.102  0.1971 -0.2608 -0.1948
21433W        W34847  14.237  14.744   6.182  0.0168  0.0562  0.0204
21434W        W34848   4.460  17.959   4.530  0.2733  0.0900  0.0452
21435W        W34849  17.006  15.855  13.073  0.0847  0.2173  0.1911
21436W        W34850  12.050  14.429   4.108 -0.0555  0.1362  0.0398
21437W        W34851   8.468   8.952   3.981  0.1038  0.0854 -0.3056
21438W        W34852  18.047  16.144   5.556 -0.1578  0.0491  0.2615
21439W        W34853  15.636   0.716  15.139  0.0462 -0.1836  0.0980
21440W        W34854   9.583  11.562   0.791  0.1530  0.2871  0.0968
21441W        W34855   7.694   4.421   9.537 -0.2956  0.0607  0.1060
21442W        W34856   3.798   5.779   3.300  0.1356 -0.1089 -0.2965
21443W        W34857  14.928   3.846  11.353 -0.1940 -0.0650 -0.0324
21444W        W34858   6.526  17.427   3.104  0.1519 -0.2390  0.4731
21445W        W34859  16.840   1.117  13.123 -0.0861 -0.0074 -0.0109
21446W        W34860   8.220  14.502   0.962  0.0723  0.0907  0.3311
21447W        W34861  11.850   1.862  15.504  0.1692  0.0366 -0.1095
21448W        W34862   5.848   0.566   5.525 -0.0944  0.0802 -0.0633
21449W        W34863   6.034  16.957  16.003  0.1096 -0.0440  0.1115
21450W        W34864  16.359   7.733  12.109  0.3861  0.2382  0.2597
21451W        W34865   9.737  18.172  14.949  0.0880  0.2573 -0.0217
21452W        W34866  15.612  17.320   3.739  0.0988 -0.1671 -0.1072
21453W        W34867  10.878  17.113   3.764 -0.0057  0.1744 -0.0206
21454W        W34868  18.182   8.241  12.501  0.1659  0.1436  0.0759
21455W        W34869  14.990  13.176   5.858  0.5263  0.4319 -0.0426
21456W        W34870  13.300  14.021   1.547 -0.4643 -0.4158 -0.0977
21457W        W34871  17.985   5.967  14.868  0.1718 -0.2000  0.1625
21458W        W34872   5.109  14.797   4.872 -0.1111 -0.1922 -0.2083
21459W        W34873  18.000  14.917  14.202  0.1127 -0.5178 -0.0015
21460W        W34874   1.180  17.895   0.430 -0.2931 -0.0560 -0.0921
21461W        W34875   5.125   1.779  13.106 -0.1017 -0.0986  0.0744
21462W        W34876   5.059   5.755  13.220  0.0244  0.1120  0.0724
21463W        W34877   8.438   9.356   5.693  0.0067 -0.2295  0.0910
21464W        W34878  15.690   9.066   4.778  0.1070 -0.1955  0.2190
21465W        W34879  13.767  16.934   4.089  0.1994 -0.0340 -0.0791
21466W        W34880  18.140   1.329  16.157  0.2885 -0.1675  0.0440
21467W        W34881   6.941   8.436  15.729 -0.1700 -0.1558 -0.1928
21468W        W34882   4.027   3.761  14.016 -0.0673  0.3241  0.1539
21469W        W34883  11.445   2.565   5.556 -0.1065 -0.0685  0.1727
21470W        W34884   7.862   3.504   1.739 -0.1316  0.1725  0.0280
21471W        W34885  11.652   6.913  11.105 -0.1174  0.2466  0.1256
21472W        W34886  17.729  15.958   3.480  0.0369  0.0755 -0.0104
21473W        W34887  13.214  10.271   5.581 -0.1558  0.0416 -0.0963
21474W        W34888  17.462  16.468   6.763  0.0901 -0.0666 -0.1275
21475W        W34889   4.598  13.772   4.706  0.0374  0.3050 -0.1475
21476W        W34890  15.741  15.672   4.422 -0.0235  0.1279  0.0317
21477W        W34891  12.098  14.085  14.948  0.0434 -0.0258 -0.0360
21478W        W34892   2.690   5.459   5.869 -0.0379 -0.0732 -0.0582
21479W        W34893   7.525   3.568  11.102  0.1531  0.4983 -0.1251
21480W        W34894   5.411   0.227  15.318  0.0671  0.2214 -0.0986
21481W        W34895  10.470  10.170   3.203  0.1089  0.1293  0.1312
21482W        W34896   4.197   7.291   3.525 -0.0947 -0.0912 -0.1035
21483W        W34897  10.336   1.232  10.302  0.2344  0.4513  0.3603
21484W        W34898  18.138   9.065  14.348 -0.2333  0.1636 -0.2593
21485W        W34899   6.620  14.801   1.937  0.3880  0.1870  0.0829
21486W        W34900   8.749  10.921  15.239 -0.0355  0.0607  0.1314
21487W        W34901   4.274   9.538   2.093  0.2603 -0.1067  0.0610
21488W        W34902   0.133  17.732   3.165 -0.1010 -0.0071 -0.0700
21489W        W34903  14.740  15.289  14.018  0.0465  0.1990  0.0416
21490W        W34904  10.329  10.826  11.083 -0.0263 -0.0967  0.1794
21491W        W34905   3.854  17.421   5.186  0.0637  0.1094 -0.0477
21492W        W34906  14.211  13.631   4.770  0.2259 -0.1367  0.0961
21493W        W34907  10.055   8.386   1.436 -0.0624 -0.1308 -0.0231
21494W        W34908   0.989   1.284  14.875 -0.0357  0.1363 -0.2830
21495W        W34909  14.078  14.430  14.270  0.0980  0.0733  0.0812
21496W        W34910  14.629   5.557   1.138  0.3802 -0.2880 -0.0569
21497W        W34911  10.565   5.958  12.354  0.0766  0.0883  0.1261
21498W        W34912   0.998  17.555  16.476  0.0998  0.0275 -0.0051
21499W        W34913  10.162  18.290   0.381  0.2221  0.5027 -0.2363
21500W        W34914   2.414  16.997   1.829  0.0198  0.1127  0.5196
21501W        W34915   9.287   7.880  12.511 -0.1950  0.0476  0.0202
21502W        W34916   9.718   2.196   2.427 -0.0496 -0.2289 -0.1450
21503W        W34917   2.225   4.008   4.155  0.3521  0.1249 -0.1158
21504W        W34918  17.810  14.483  15.268 -0.2746  0.0173  0.2588
21505W        W34919  16.055  15.263   3.628  0.1235 -0.2400 -0.1517
21506W        W34920  12.079   7.909  14.542  0.0755 -0.1618  0.0277
21507W        W34921   0.029   2.842  15.873 -0.2142 -0.1654 -0.0997
21508W        W34922   8.710   7.768   2.158  0.0682 -0.2749  0.3259
21509W        W34923  12.211   8.091   0.158  0.0362  0.0786 -0.0151
21510W        W34924   8.557   1.626   1.568 -0.0621  0.0202 -0.1307
21511W        W34925   5.088   3.246  12.186  0.0179 -0.0347  0.0816
21512W        W34926   2.887   2.837  13.555  0.1595 -0.0737  0.2214
21513W        W34927   0.734  14.435   1.183  0.1023 -0.2018  0.2262
21514W        W34928  13.913   0.515   0.346 -0.2461 -0.0060  0.1877
21515W        W34929  11.015  15.066   5.560 -0.0172  0.1843  0.0474
21516W        W34930  12.854   6.404   1.062 -0.2150  0.0421  0.1727
21517W        W34931  17.075   7.875   4.337  0.0662 -0.1364 -0.2791
21518W        W34932  13.440   5.059  13.095 -0.1225 -0.0980  0.5990
21519W        W34933   7.279   7.826  11.758 -0.0501 -0.4359 -0.0104
21520W        W34934   4.511  15.301   2.985  0.3686  0.2965 -0.1055
21521W        W34935   0.449  11.238  12.712  0.1816 -0.2447  0.4638
21522W        W34936   7.483   6.626  12.981  0.3214  0.0658  0.2270
21523W        W34937  18.092   7.073  13.388  0.0379 -0.1661  0.2777
21524W        W34938  14.968   4.197  13.263  0.2927  0.1953 -0.1438
21525W        W34939   4.036  12.435  15.089  0.0696  0.0206 -0.3791
21526W        W34940  13.123   7.734  11.388  0.0372 -0.0139  0.0263
21527W        W34941   4.402  14.359  13.186 -0.0002  0.1065  0.1687
21528W        W34942   3.925   4.211  13.672  0.5711 -0.0007 -0.1958
21529W        W34943   0.973  16.100   4.201  0.3125 -0.0801  0.1127
21530W        W34944  11.867   2.097  13.575  0.0114 -0.1339  0.1158
21531W        W34945   4.579  14.777  13.334  0.1122 -0.4238 -0.1502
21532W        W34946  15.935  10.674  10.576 -0.1961  0.0925 -0.0382
21533W        W34947   9.667  17.346  13.173  0.0208 -0.0986  0.0864
21534W        W34948   8.736   2.327  12.960  0.1402  0.2371  0.1370
21535W        W34949  17.622   4.124   4.147 -0.0349  0.1253 -0.0095
21536W        W34950   0.524  13.374  10.677 -0.4169 -0.0188 -0.0507
21537W        W34951   3.278  14.924   2.108 -0.0617 -0.0862 -0.1660
21538W        W34952  14.910  14.363  11.292 -0.1604  0.2259 -0.4296
21539W        W34953   5.886   3.308   3.671 -0.4078 -0.0486 -0.1161
21540W        W34954  14.511   4.534   1.102  0.1104  0.2180  0.5598
21541W        W34955   6.400   7.699   9.960  0.0762  0.0774  0.1054
21542W        W34956  16.213  11.074   4.077 -0.3098 -0.2001  0.1381
21543W        W34957  17.724   0.735  14.640 -0.1384  0.0704  0.0294
21544W        W34958  16.938   3.997  11.046 -0.2074 -0.3316 -0.2838
21545W        W34959   8.244   6.801   0.004  0.2264 -0.0859  0.1050
21546W        W34960  18.006  12.959  11.928 -0.0448 -0.1604 -0.0285
21547W        W34961   3.287   8.033   5.463 -0.1916  0.1100 -0.1751
21548W        W34962   3.689  11.194  14.360 -0.2592  0.0604  0.3630
21549W        W34963  14.325  16.868  15.226  0.3274  0.0566 -0.1725
21550W        W34964  12.576  15.729  15.102  0.1532 -0.1986  0.1191
21551W        W34965   1.902  14.325   6.081 -0.0788 -0.1782 -0.1616
21552W        W34966  17.945   8.761  14.792 -0.0650 -0.2428 -0.4108
21553W        W34967  15.286  10.085   0.468 -0.2772  0.1276  0.0868
21554W        W34968   0.164  11.641  12.571 -0.1167 -0.2200 -0.1217
21555W        W34969  17.342   0.160   2.439 -0.0550 -0.1576 -0.0728
21556W        W34970   0.926  17.126   4.448  0.3412  0.0591  0.0542
21557W        W34971   9.104  11.167   1.782 -0.3164 -0.3653 -0.1337
21558W        W34972  11.248  15.062   2.255 -0.0946 -0.2428  0.2674
21559W        W34973  10.265  16.320   1.357  0.2616  0.0028 -0.4218
21560W        W34974   5.820   2.382  14.427 -0.1064  0.2275 -0.0413
21561W        W34975   1.050   2.302  13.132 -0.0452  0.0079  0.1432
21562W        W34976   1.842   8.358   5.355 -0.0561 -0.1974  0.0181
21563W        W34977   9.502  15.426  10.742 -0.1518  0.0521  0.4061
21564W        W34978  14.498   8.175  10.266 -0.0563  0.0060  0.2260
21565W        W34979  10.557  16.633  15.882 -0.1110  0.1044  0.1996
21566W        W34980   5.556   6.966   0.128 -0.0093  0.1952 -0.1014
21567W        W34981   5.960   2.696   5.344 -0.2818  0.2253 -0.0144
21568W        W34982   4.968  16.238   4.281 -0.0841  0.3140 -0.1561
21569W        W34983   9.642  12.752   1.850  0.0005 -0.0519  0.1736
21570W        W34984   7.037  12.863  11.382 -0.0576 -0.0379 -0.3955
21571W        W34985  10.717   8.659  11.345 -0.0873 -0.3009  0.0171
21572W        W34986   5.949  11.586  10.339  0.1216 -0.0948 -0.1892
21573W        W34987   7.808   1.555   2.764 -0.1663 -0.0261 -0.0712
21574W        W34988  12.142   1.768  14.365  0.1277 -0.0770 -0.0245
21575W        W34989   0.618  13.435   0.403  0.0776 -0.0025 -0.0745
21576W        W34990  17.690  13.120   2.086  0.2320  0.2076 -0.0372
21577W        W34991   8.052  16.088  14.159  0.0335 -0.2284 -0.1856
21578W        W34992  10.415   2.468  12.236 -0.3255  0.0498  0.2166
21579W        W34993  11.374  16.375  11.403 -0.0949 -0.2753  0.1050
21580W        W34994   6.529  16.492  15.292 -0.0648 -0.0922 -0.1904
21581W        W34995  12.274  11.923   0.457  0.4377  0.0685 -0.2884
21582W        W34996   6.633  16.167   6.044 -0.3540  0.0868 -0.2500
21583W        W34997   7.665   2.788  10.526 -0.1564 -0.0408  0.0355
21584W        W34998   8.312  15.571  15.832  0.0202  0.0211 -0.2084
21585W        W34999  14.069  11.208   2.015  0.1036 -0.0497  0.3372
21586W        W35000   3.895   3.851  13.282 -0.3029 -0.2115 -0.2520
21587W        W35001   5.338  11.339  14.497  0.0448  0.2364 -0.1972
21588W        W35002  10.922  17.988   0.307 -0.1951  0.1208 -0.0566
21589W        W35003  12.711  16.684   2.668  0.1628  0.2425 -0.3191
21590W        W35004   2.669   7.100   0.981  0.1310  0.2742 -0.1051
21591W        W35005  12.805  12.648   5.067  0.0644  0.0675 -0.1935
21592W        W35006  14.334   5.644  15.025  0.1259 -0.1397  0.1006
21593W        W35007  10.986  16.955  12.487 -0.0580  0.0163 -0.0891
21594W        W35008   1.952   1.834   3.418  0.1247  0.1615  0.0377
21595W        W35009  16.365   6.846  11.050  0.0379  0.0211  0.1327
21596W        W35010  13.066  12.168   0.981  0.1161  0.1233 -0.0419
21597W        W35011  13.920  10.823   0.450  0.0406 -0.1145 -0.3933
21598W        W35012   0.082  17.835   4.324  0.1417  0.0563  0.1158
21599W        W35013  12.590   1.347  14.385  0.6368 -0.0985 -0.1885
21600W        W35014  11.233   7.407  15.373  0.0486  0.2972 -0.4501
21601W        W35015   1.332   9.498   6.324 -0.1286  0.0805 -0.0154
21602W        W35016   7.259  10.677  11.238 -0.1261 -0.0807 -0.3003
21603W        W35017   8.327   1.410  12.956 -0.2594  0.2040 -0.1288
21604W        W35018   1.042   9.696  14.954  0.0962 -0.4312  0.0523
21605W        W35019   3.611  17.399   0.921 -0.0208  0.0273 -0.0039
21606W        W35020  16.289   2.800   0.704 -0.0256  0.0710  0.3139
21607W        W35021  15.663  15.131   4.537 -0.0119  0.3992  0.2042
21608W        W35022   4.537   8.744  13.678  0.3125 -0.2372 -0.2192
21609W        W35023  17.561  16.334   2.092 -0.3944 -0.0581 -0.2855
21610W        W35024   4.752   8.459   2.819 -0.4365  0.1105  0.0997
21611W        W35025  15.642   4.505  11.147 -0.0642  0.0636 -0.1665
21612W        W35026   7.964   0.672   4.647  0.0038  0.1633 -0.0969
21613W        W35027  16.061  10.670  14.955 -0.1266 -0.2283 -0.0325
21614W        W35028   8.267   0.004   1.348  0.1100 -0.1856  0.1220
21615W        W35029  12.864   7.624  10.552 -0.0209 -0.0869 -0.1579
21616W        W35030   5.681   0.571  12.464  0.1364 -0.1615 -0.1650
21617W        W35031   4.583   8.322   4.102 -0.1067  0.2581  0.0986
21618W        W35032  16.078  16.382  12.697  0.0059 -0.1502  0.1353
21619W        W35033   7.346   2.739   2.079  0.1587 -0.0493 -0.1393
21620W        W35034   2.323   6.505  12.284 -0.0893  0.1784  0.1071
21621W        W35035  17.281   8.518  13.619  0.1164 -0.0650 -0.3116
21622W        W35036   6.098   4.138  14.254 -0.2515  0.0541  0.1718
21623W        W35037   8.180   2.519  14.952  0.0566 -0.0739 -0.0123
21624W        W35038   4.372   3.921   0.915  0.4279 -0.0042  0.2120
21625W        W35039   7.866   6.932   0.454 -0.0784 -0.1442 -0.1219
21626W        W35040   8.576   0.613  10.935 -0.1492 -0.3926 -0.0898
21627W        W35041   1.864  16.080  13.065 -0.1839 -0.1905 -0.3571
21628W        W35042  12.675  14.004   5.763 -0.0979  0.0058  0.0411
21629W        W35043   9.940  12.522   4.172  0.0721 -0.5384 -0.1235
21630W        W35044  11.764   9.092   1.831 -0.0776 -0.1896  0.1411
21631W        W35045   1.530   6.017  15.634 -0.3092  0.0493  0.0002
21632W        W35046   7.116   3.598  14.802 -0.4372 -0.2184 -0.2529
21633W        W35047  15.745  12.235  14.126 -0.0010  0.1791  0.2018
21634W        W35048  16.987  13.211  10.981 -0.2583 -0.2696  0.1503
21635W        W35049   7.433   7.497  10.249  0.0390 -0.1869 -0.3250
21636W        W35050  12.600   2.106  12.522  0.0836  0.1946 -0.1924
21637W        W35051  10.444  10.688   1.407  0.1335  0.0154 -0.0481
21638W        W35052  10.765   7.732  15.204 -0.2266  0.1284  0.3164
21639W        W35053   0.766   8.768  10.924 -0.4554  0.1491  0.2824
21640W        W35054   8.651   4.953  12.386 -0.1866 -0.0468 -0.1131
21641W        W35055   2.322  15.990   4.446 -0.1669 -0.1040  0.1469
21642W        W35056  10.973   9.494  15.344 -0.0091 -0.1703  0.2245
21643W        W35057  11.630   7.114  10.585  0.0243  0.0196 -0.0797
21644W        W35058   7.643  13.695   0.818 -0.0428 -0.2226  0.2382
21645W        W35059   9.688  14.972   4.638 -0.0580  0.6236 -0.0781
21646W        W35060  15.936  12.298   4.951 -0.1350  0.1201 -0.0606
21647W        W35061   9.113  11.519  11.800 -0.0862 -0.0432 -0.2491
21648W        W35062   4.023   4.080  16.246  0.3254  0.0588  0.0426
21649W        W35063  10.995   9.830  12.063 -0.2786  0.1606 -0.2323
21650W        W35064  10.493   0.033   5.472 -0.2816  0.1953  0.2685
21651W        W35065  17.715   7.944   2.669 -0.0246 -0.3500 -0.0408
21652W        W35066   5.216  13.285   4.854 -0.1257  0.1250 -0.0087
21653W        W35067   5.578   2.645   4.247  0.1575  0.0717  0.1897
21654W        W35068  13.329   3.147   0.575  0.0800  0.1515 -0.2857
21655W        W35069  12.169   6.614  13.387  0.0023  0.2668 -0.0983
21656W        W35070  11.560  18.126   5.412 -0.0131  0.1654  0.3654
21657W        W35071  17.443   5.673   3.882 -0.0246  0.0381 -0.1572
21658W        W35072  17.811   1.815   4.293  0.0308 -0.0693  0.2223
21659W        W35073   0.414  14.484   0.033 -0.2782  0.2859 -0.0632
21660W        W35074   6.116   9.761   1.397 -0.1921  0.0709  0.1699
21661W        W35075   7.029  13.096   5.635  0.1964 -0.0581 -0.0096
21662W        W35076  12.975   5.730   4.202 -0.2995  0.1460 -0.0084
21663W        W35077  17.757   2.540   5.729  0.2717  0.2361  0.4328
21664W        W35078  16.222   8.212   0.559 -0.2758  0.0579  0.5121
21665W        W35079   2.120  11.416   0.462 -0.2416  0.4956  0.0319
21666W        W35080   2.093  15.029   6.276 -0.3334 -0.0186 -0.2891
21667W        W35081  14.320  14.430  13.814  0.3073 -0.0520 -0.1725
21668W        W35082   0.195  15.691  11.873  0.1493 -0.2032  0.4816
21669W        W35083   9.421   8.986   3.349 -0.2452  0.1524 -0.1758
21670W        W35084   8.222  12.717  11.963  0.2066  0.4516 -0.1481
21671W        W35085   7.086   5.360   1.597  0.0940  0.1323 -0.1403
21672W        W35086   8.097  13.286   3.345  0.0691 -0.0588 -0.2558
21673W        W35087   3.547  15.333   0.793 -0.1408  0.1504  0.2031
21674W        W35088  17.321   9.128   5.053 -0.0451 -0.2400 -0.0879
21675W        W35089  17.888   6.278  12.389  0.1688  0.1005 -0.1146
21676W        W35090  10.813   9.908   3.656 -0.4593  0.0777  0.1176
21677W        W35091   2.314   6.237   3.193 -0.0307  0.3722 -0.0349
21678W        W35092  15.142   0.944  12.662 -0.2160 -0.0073 -0.0514
21679W        W35093   0.956  17.978   5.652 -0.1424  0.0106 -0.3521
21680W        W35094   6.873   4.233  11.251 -0.0297 -0.0515  0.3716
21681W        W35095   8.429  11.020  14.861 -0.1437 -0.2305 -0.1683
21682W        W35096   6.301   8.152   3.361 -0.0076  0.0976 -0.2299
21683W        W35097  16.791   4.883  13.473 -0.1214 -0.2457 -0.2765
21684W        W35098   2.412   1.760   1.858  0.1260 -0.1591 -0.0468
21685W        W35099  16.442   4.125  11.033  0.0085  0.4772  0.0571
21686W        W35100   6.062  15.186   2.846 -0.1020  0.0793  0.2181
21687W        W35101  18.091   4.881   3.194  0.3810 -0.1651  0.0951
21688W        W35102   9.698   9.333  15.761 -0.1237 -0.3345  0.1418
21689W        W35103   6.982   4.647  15.458  0.0643  0.0200  0.0157
21690W        W35104  13.897   0.893   6.420 -0.3371  0.0037 -0.2426
21691W        W35105   6.285  12.048   5.627  0.3757 -0.0623  0.0781
21692W        W35106   6.911  18.290  16.353  0.1876 -0.3767  0.0808
21693W        W35107   3.535   6.686  14.679 -0.3861 -0.0455  0.2331
21694W        W35108   8.777  12.733  15.671 -0.1559  0.0283  0.0721
21695W        W35109   9.726   8.559  12.161  0.1199 -0.0176 -0.0501
21696W        W35110   5.703   0.931   2.686  0.1865 -0.0601 -0.1330
21697W        W35111  12.838   6.754  11.515 -0.0117  0.0731 -0.3451
21698W        W35112  17.813  12.166  13.672 -0.0371  0.0348  0.1129
21699W        W35113   3.168  13.697   1.682 -0.2290 -0.3452  0.0266
21700W        W35114  17.849  13.803  10.994  0.2638 -0.0075 -0.0303
21701W        W35115  15.521  15.127   3.635 -0.2724 -0.5361  0.1176
21702W        W35116   9.394  11.603   3.131  0.0669 -0.0708  0.2110
21703W        W35117   7.063   4.586  14.194  0.0461  0.0640 -0.1442
21704W        W35118  15.315   9.444   1.098 -0.1440 -0.2100  0.0441
21705W        W35119   0.954   3.974   4.232 -0.0086 -0.0894 -0.2269
21706W        W35120   3.575   2.343   5.425 -0.3486 -0.1379 -0.0292
21707W        W35121   8.055   3.692  12.918  0.2086  0.1621  0.0931
21708W        W35122   8.668  14.042   1.674  0.1560 -0.0683 -0.1167
21709W        W35123   9.951   6.411  11.693 -0.1355 -0.1000  0.0182
21710W        W35124  16.361  16.609   1.945 -0.0455 -0.0759  0.2288
21711W        W35125   4.185  12.616  12.466  0.0946  0.1844  0.1988
21712W        W35126   0.747   4.671  15.841 -0.2085  0.0617 -0.2229
21713W        W35127   7.965  11.900   1.322  0.4077  0.2567 -0.0256
21714W        W35128  15.472  17.997  13.739  0.0500 -0.1271  0.0107
21715W        W35129   9.000   7.525  14.450 -0.3546  0.0378 -0.1764
21716W        W35130  17.549  16.009   5.705  0.0763 -0.0828 -0.0046
21717W        W35131   4.565  15.897  14.985  0.0465 -0.0072 -0.0568
21718W        W35132   2.085   1.197   4.429 -0.0540 -0.0123 -0.1074
21719W        W35133   9.689   7.592   5.182 -0.2118 -0.2308  0.1644
21720W        W35134  12.430   9.362  11.225  0.2931  0.3123  0.0698
21721W        W35135   0.935  12.551  15.431  0.0269 -0.2999 -0.0431
21722W        W35136  15.600   3.000   2.739  0.2448  0.3956  0.1412
21723W        W35137   9.534   4.927   2.318 -0.0145  0.0776  0.0809
21724W        W35138  10.160   8.542  14.215  0.1471 -0.0954 -0.0293
21725W        W35139  13.419   8.118   4.104  0.1206 -0.0027 -0.1728
21726W        W35140   9.820  15.743   5.575  0.2575 -0.1393  0.1209
21727W        W35141   0.297  15.744  11.042  0.0120  0.0383 -0.0227
21728W        W35142   8.076  14.457   5.051  0.0460  0.0213  0.2334
21729W        W35143   1.990   0.562   0.932 -0.2316 -0.0991  0.2761
21730W        W35144   5.029  11.646   1.132  0.3095  0.3953 -0.2713
21731W        W35145   9.407  11.297  12.274  0.1684  0.1049 -0.1354
21732W        W35146   8.209   1.287   1.829  0.0650  0.0998  0.2970
21733W        W35147  17.408  14.300   6.056 -0.2815 -0.1850 -0.2559
21734W        W35148   2.207   6.752  14.448 -0.0258 -0.3423  0.3567
21735W        W35149  13.351  15.995   4.970 -0.0251 -0.0123  0.2590
21736W        W35150  16.194  14.340  12.238  0.2240 -0.1116  0.0891
21737W        W35151  14.410  10.162  15.114 -0.0656  0.1448  0.1746
21738W        W35152  16.693  10.474  11.729  0.0175 -0.1353  0.0367
21739W        W35153  15.313  12.971  12.547 -0.1726 -0.5918  0.2428
21740W        W35154   3.296  18.371   1.093 -0.0792 -0.2266 -0.0482
21741W        W35155   1.506  10.672   1.538  0.0128 -0.1668 -0.2472
21742W        W35156   4.419   9.245  10.760 -0.0038  0.2179 -0.0677
21743W        W35157   4.550  11.957  16.306  0.1328  0.0255 -0.0865
21744W        W35158   7.267  14.254   2.730 -0.0165 -0.1011 -0.0162
21745W        W35159  15.891  15.924   4.827 -0.2295 -0.2571 -0.1355
21746W        W35160   0.341  11.932   4.186  0.0058  0.1079  0.0207
21747W        W35161  13.244  13.598   1.988  0.0535 -0.1001  0.0803
21748W        W35162   0.769   0.022   3.288  0.2050 -0.1033 -0.2293
21749W        W35163   1.583  12.978   1.165  0.2866 -0.3822  0.1106
21750W        W35164  15.164   1.389   5.590  0.2222  0.0048 -0.0883
21751W        W35165  12.878   0.900   4.916 -0.0690  0.2026  0.0999
21752W        W35166  14.132   2.615   5.111  0.4613 -0.1563  0.2340
21753W        W35167  14.846   2.019   0.420 -0.1029  0.0055 -0.3793
21754W        W35168   5.453  15.422   5.910 -0.3524  0.1843 -0.4817
21755W        W35169  12.978   0.623  15.305  0.2232 -0.0358  0.0293
21756W        W35170   0.963   6.434   1.509  0.2212 -0.4654 -0.2280
21757W        W35171   5.834  15.586   0.685 -0.1609  0.2257 -0.0093
21758W        W35172  16.084   2.909  14.803 -0.0108 -0.0203  0.0277
21759W        W35173  16.260   4.553   1.505  0.0768  0.2260  0.1850
21760W        W35174  13.830  16.922  11.595  0.0859 -0.0586 -0.0029
21761W        W35175  10.255  17.736   2.097  0.0575 -0.1505 -0.1673
21762W        W35176  13.287   9.069   0.031  0.5117  0.3329 -0.0141
21763W        W35177  13.525  10.664  11.728 -0.0317 -0.1181  0.0413
21764W        W35178   8.928   9.750  13.247  0.2163 -0.1677 -0.2718
21765W        W35179  10.130   3.656   5.099 -0.1954  0.0406  0.2004
21766W        W35180   8.772   6.582   0.691  0.2078 -0.1963 -0.0772
21767W        W35181   5.062   4.606  11.614  0.3870 -0.0048 -0.2251
21768W        W35182   2.280   9.398  11.185  0.0325 -0.0028  0.1118
21769W        W35183   5.792  18.179  13.897  0.0822 -0.1327  0.1289
21770W        W35184   3.950  10.843   1.894  0.3918  0.0053  0.2066
21771W        W35185  11.055   2.063   2.627 -0.0444 -0.1426 -0.2669
21772W        W35186  11.303   5.354   0.484 -0.0005 -0.0660  0.0991
21773W        W35187  13.484   1.426  13.305 -0.1535  0.0766  0.1300
21774W        W35188   0.904   8.539  14.520  0.1635  0.0495 -0.2440
21775W        W35189  16.050   9.863   0.721  0.2680 -0.1344  0.1880
21776W        W35190   4.504   6.808  13.391 -0.0345  0.3742 -0.2248
21777W        W35191   2.056  16.080  12.425 -0.1603  0.3154 -0.2642
21778W        W35192  12.969  18.195  12.216  0.3018  0.2610  0.4026
21779W        W35193  16.146   1.194   1.983  0.1859 -0.0911  0.0930
21780W        W35194  11.151   5.346  14.410  0.1712 -0.0248 -0.2196
21781W        W35195   0.993  10.872  13.414  0.0554 -0.3029  0.2114
21782W        W35196  13.432  12.879  12.506  0.1173  0.0423  0.0008
21783W        W35197  10.477   3.422  11.162  0.3647  0.1097  0.0780
21784W        W35198   2.355  10.162   5.631 -0.0381  0.2838  0.0285
21785W        W35199   8.946   4.430  11.840  0.3204 -0.1138  0.0605
21786W        W35200  11.570   7.505   0.371 -0.0980  0.5465  0.1470
21787W        W35201  12.374   5.861  12.824  0.1498 -0.1422  0.0087
21788W        W35202  16.513  13.489  13.248 -0.2308 -0.1225  0.0134
21789W        W35203  14.396  12.885  12.184 -0.3893  0.0329 -0.1593
21790W        W35204  17.334  17.987  15.623  0.0293 -0.0582  0.0714
21791W        W35205   1.579  11.770  14.289  0.0346 -0.2306  0.1192
21792W        W35206  17.383  12.181   2.222 -0.0603 -0.0570  0.1039
21793W        W35207  17.766   6.835  13.680 -0.0839 -0.1039 -0.2167
21794W        W35208   3.724   0.297  10.823  0.1178  0.0029  0.0634
21795W        W35209   6.552   5.903  15.331  0.0625 -0.4666 -0.1188
21796W        W35210   5.395  10.319   1.839  0.0466  0.0352 -0.1196
21797W        W35211  16.752   3.292   2.496  0.3708  0.0470 -0.3121
21798W        W35212  13.252  10.907   2.706 -0.1002  0.0016  0.1439
21799W        W35213   2.916  11.315  16.176  0.0598 -0.3523  0.2557
21800W        W35214   6.889   6.479  12.183  0.3282 -0.2013  0.0217
21801W        W35215  13.706   2.176  15.064  0.0066 -0.0859  0.1974
21802W        W35216   5.784   9.803  11.117 -0.0645  0.1520  0.0507
21803W        W35217   6.666   9.278   3.009 -0.0902  0.0828  0.2511
21804W        W35218   5.923   9.001   3.668 -0.0021 -0.1224 -0.3312
21805W        W35219   7.771   3.937  11.304 -0.0055  0.1848  0.5778
21806W        W35220   9.885  10.395  13.451  0.2117  0.2265  0.1112
21807W        W35221  16.377  17.426   4.117 -0.0466  0.1690 -0.0340
21808W        W35222  12.808   4.971   3.550  0.1607  0.0294 -0.0161
21809W        W35223  12.658  14.162   0.892  0.2702  0.4944  0.3304
21810W        W35224   5.412   5.364   2.994 -0.3712  0.2802 -0.0792
21811W        W35225  18.120  17.107   0.607 -0.2543 -0.1567  0.0714
21812W        W35226  11.434   3.682  14.734 -0.0934  0.1733  0.0815
21813W        W35227  13.341   8.908  13.956  0.0764 -0.0138 -0.0759
21814W        W35228   0.315   7.793  14.875 -0.1473  0.0691 -0.1521
21815W        W35229  13.987   1.544  14.606 -0.1094 -0.1064  0.0023
21816W        W35230  13.228   3.973   5.287  0.0486 -0.2489  0.0479
21817W        W35231  17.228   8.296   0.103 -0.0568  0.2150 -0.2382
21818W        W35232   0.601   0.698   3.166  0.5370  0.0725 -0.0220
21819W        W35233   5.482   3.212   5.027  0.0191  0.0764 -0.0646
21820W        W35234  16.165   9.020  16.439 -0.0423  0.0710 -0.0463
21821W        W35235   6.772  10.780   4.851 -0.1461  0.2459 -0.1728
21822W        W35236   8.078   4.773  13.893 -0.2700 -0.2878 -0.1016
21823W        W35237   3.623   3.626  12.790 -0.0008  0.3585 -0.2108
21824W        W35238   3.653   1.426  15.254  0.1486  0.2953 -0.0645
21825W        W35239   9.810   4.305   2.043 -0.0365  0.2419  0.3401
21826W        W35240  12.897   6.124  16.110 -0.1761 -0.0085  0.1838
21827W        W35241   3.285   0.014  12.601  0.2132  0.1519  0.1923
21828W        W35242   5.109   6.207  11.527 -0.3775 -0.0499 -0.0453
21829W        W35243  16.976   1.087   0.970 -0.0993 -0.1582 -0.2207
21830W        W35244   4.276   1.888  12.547 -0.0069  0.3651 -0.1228
21831W        W35245   7.952   4.582  10.625 -0.2051 -0.1631 -0.1221
21832W        W35246  16.558  17.628  15.806  0.2161 -0.0739 -0.1515
21833W        W35247   7.467   5.926   2.902  0.0943 -0.0495 -0.0559
21834W        W35248  17.408  11.863  13.721 -0.1227 -0.0717  0.0266
21835W        W35249  17.004   6.656   3.230  0.1941  0.0138 -0.1478
21836W        W35250  15.466   2.462   1.021 -0.3103 -0.1110  0.1524
21837W        W35251   9.543   1.986  16.211  0.0984 -0.0421 -0.0636
21838W        W35252   7.726  13.188  16.417  0.2215  0.0055  0.1980
21839W        W35253  15.396  16.704   5.862 -0.3710  0.1229 -0.1546
21840W        W35254   2.916   1.346  15.944  0.0088 -0.1485 -0.1445
21841W        W35255   9.111   6.248  13.479 -0.0770 -0.0423  0.0063
21842W        W35256   3.006   3.498   4.224 -0.0663  0.0674 -0.1341
21843W        W35257   9.290  14.739  11.992  0.1597  0.1192 -0.1263
21844W        W35258  12.927   4.047  16.296  0.3622 -0.0716 -0.0578
21845W        W35259   6.853   4.498   9.866  0.3547 -0.2545  0.0612
21846W        W35260   0.270  13.283  13.598 -0.1087  0.1750 -0.2654
21847W        W35261   3.701  17.268  12.217  0.1031 -0.1046 -0.0166
21848W        W35262   0.918  14.220   2.389  0.1120 -0.0632 -0.1559
21849W        W35263  10.180   7.309   2.833  0.0594  0.2381  0.0810
21850W        W35264   4.181  12.790   0.263 -0.1145 -0.1554  0.2816
21851W        W35265  16.498  17.283  13.850  0.2497  0.1402 -0.0333
21852W        W35266  15.975   1.303   1.534 -0.1425  0.2548 -0.1417
21853W        W35267  16.997   7.998   3.346  0.0174 -0.0241  0.5166
21854W        W35268   2.037  13.017   3.566 -0.0595 -0.3099 -0.1728
21855W        W35269  11.702  13.284   4.119 -0.2252 -0.0433  0.1755
21856W        W35270  10.532   5.573  13.830 -0.0399 -0.0172  0.0090
21857W        W35271   3.715  16.772  12.043 -0.0194 -0.0330  0.0184
21858W        W35272   3.005  17.210   3.266  0.1291  0.0614  0.1196
21859W        W35273   6.329  16.077  16.342  0.1724 -0.0206  0.1685
21860W        W35274  10.309  13.203   1.386 -0.0953  0.0336  0.1716
21861W        W35275   5.596  14.969   2.625  0.1841 -0.0320 -0.2145
21862W        W35276  15.124  15.367   5.169  0.0288 -0.3229 -0.1055
21863W        W35277  14.397  13.651   0.417  0.1728  0.1698  0.0713
21864W        W35278  14.023  17.255  10.387 -0.0917  0.0305  0.2076
21865W        W35279  15.680  10.806   1.830  0.0362  0.2107 -0.0589
21866W        W35280   7.819   2.993  11.950  0.3320  0.0391  0.1110
21867W        W35281  15.915   7.204   2.559  0.0424 -0.2278  0.1968
21868W        W35282   3.051   5.026  14.476  0.2906 -0.1565 -0.0842
21869W        W35283  11.186   6.503  12.265  0.2777 -0.0869 -0.0634
21870W        W35284   1.554  16.820  12.385 -0.0801  0.0470  0.0635
21871W        W35285   3.600   4.356   6.048  0.0839 -0.1170 -0.2066
21872W        W35286  13.628  17.220   6.650  0.1099  0.2033 -0.0621
21873W        W35287  14.414  17.246   5.672  0.3861 -0.2169  0.0310
21874W        W35288   2.001   5.755  15.648 -0.0311  0.0972  0.0310
21875W        W35289  17.884   0.529   5.799  0.1858 -0.0471  0.0860
21876W        W35290   5.710   8.908   9.784  0.2383  0.0747 -0.0122
21877W        W35291   9.467  14.623  10.080 -0.3907  0.1311  0.0305
21878W        W35292  13.324  14.339   2.995  0.0443 -0.0595  0.0327
21879W        W35293   3.555  15.996  16.169 -0.1226 -0.0985  0.3138
21880W        W35294  17.686   0.600   5.227 -0.2232 -0.1166 -0.0633
21881W        W35295  10.639  10.243  14.651 -0.0663 -0.1142  0.1165
21882W        W35296   1.669  16.728  11.222 -0.1782  0.0930 -0.0123
21883W        W35297   8.768  17.397  14.689 -0.1552  0.0119 -0.0518
21884W        W35298  13.318  14.978  14.231 -0.0172  0.0342 -0.1758
21885W        W35299  14.342  16.251  12.904  0.2743 -0.0945  0.2015
21886W        W35300   7.342  17.641   1.826  0.0015  0.0861  0.3048
21887W        W35301  11.724  11.536  13.030  0.0772  0.2840 -0.3246
21888W        W35302  10.672  10.464  15.089 -0.0761 -0.1216  0.0991
21889W        W35303  13.882   5.446  11.653 -0.0534 -0.1263 -0.0915
21890W        W35304  14.661   8.209  13.063 -0.0730  0.0384  0.2679
21891W        W35305  14.532  12.259   4.401 -0.0779 -0.1866 -0.2085
21892W        W35306   0.085  15.420   1.589  0.0512  0.1739 -0.2225
21893W        W35307   0.845   4.247  13.714 -0.0124 -0.0896 -0.5083
21894W        W35308   3.877   5.885  16.146 -0.0957 -0.1277 -0.2022
21895W        W35309   0.236   5.416   3.167 -0.3979  0.1302  0.0927
21896W        W35310  16.953   8.297   2.456  0.0001 -0.0910 -0.0098
21897W        W35311   5.026  16.122   2.332  0.2488 -0.0160 -0.0224
21898W        W35312  15.622  14.125  14.119  0.5378 -0.0899 -0.2748
21899W        W35313   7.930   3.974  13.862  0.0481  0.1028  0.0138
21900W        W35314  16.953  14.962  11.698  0.1213 -0.0630 -0.0555
21901W        W35315  15.160  13.094   3.991  0.0289  0.0726  0.1053
21902W        W35316  13.958  12.899   4.728  0.0164 -0.2625 -0.0592
21903W        W35317   1.326  17.103  11.284 -0.2421  0.0253 -0.0362
21904W        W35318   0.631   9.585  14.647  0.0728  0.0410  0.3384
21905W        W35319  10.242   3.918  12.778 -0.2852 -0.0169 -0.2413
21906W        W35320  17.995  14.463  13.967 -0.0861  0.2339 -0.0584
21907W        W35321  13.227   1.737  16.290  0.1892 -0.1022 -0.1878
21908W        W35322  15.594   6.970   0.509  0.0069 -0.0366 -0.0710
21909W        W35323   2.237  10.426  14.132  0.1608  0.0520  0.2357
21910W        W35324   4.888  14.405  13.260 -0.3717 -0.0991 -0.0240
21911W        W35325  16.485  13.385   4.604  0.3574 -0.1255 -0.3689
21912W        W35326  12.896  12.997   3.548 -0.1453 -0.0738  0.1486
21913W        W35327   2.711   5.538  16.281  0.0164 -0.1024  0.3508
21914W        W35328  11.854   7.836   4.554 -0.1451  0.2783 -0.2363
21915W        W35329   6.066   8.937  14.597 -0.0217 -0.0889  0.3005
21916W        W35330   1.773  14.865  13.107  0.0938  0.2111  0.1997
21917W        W35331  11.887   1.362  13.099 -0.4002  0.5353 -0.0203
21918W        W35332  10.410  17.971  10.084 -0.0869 -0.0550 -0.2148
21919W        W35333   3.417  18.315   2.902  0.0790  0.0061 -0.1613
21920W        W35334   1.070   3.474   1.388 -0.3142 -0.0263  0.1079
21921W        W35335  11.545  13.266  12.723 -0.2109 -0.0205  0.4636
21922W        W35336   1.222  14.244  12.254 -0.1325  0.1104 -0.3611
21923W        W35337   0.677   9.868  13.738  0.0335 -0.0436 -0.0273
21924W        W35338  12.081  13.277   6.784 -0.2341 -0.3835 -0.2013
21925W        W35339   9.631  14.707  13.947  0.1840 -0.0638 -0.1796
21926W        W35340   4.051  13.345  11.716  0.0274  0.0734  0.2468
21927W        W35341  11.393   1.567  15.675  0.1764  0.0741  0.0261
21928W        W35342  11.982   4.568   3.788  0.2012 -0.7890  0.0599
21929W        W35343   4.390  12.227   2.154 -0.1119  0.1044  0.2336
21930W        W35344  17.679   0.175  12.894 -0.0995 -0.1188 -0.1262
21931W        W35345   8.235  13.219   1.506  0.1634  0.1361 -0.1864
21932W        W35346   2.150   7.174   0.290 -0.2423 -0.0721 -0.1236
21933W        W35347   8.965  15.046   2.551  0.2738  0.3477 -0.1789
21934W        W35348   5.675   7.262   4.192  0.1156 -0.0388 -0.2672
21935W        W35349   6.620  14.777   5.222  0.0808 -0.0214 -0.1441
21936W        W35350  13.365   5.771  10.872 -0.0900 -0.0148 -0.1766
21937W        W35351  14.450   3.565  10.843 -0.1621  0.1651 -0.2603
21938W        W35352   4.066  13.805  15.898  0.6832  0.1387 -0.1915
21939W        W35353   6.602  12.694  11.215 -0.1500 -0.2271 -0.1655
21940W        W35354  16.836  16.606  13.733 -0.1541 -0.2948  0.1174
21941W        W35355   9.425   9.035  10.486  0.2953 -0.3295  0.5388
21942W        W35356  11.290  12.257   1.082 -0.0183 -0.1973 -0.0841
21943W        W35357  15.669   1.937   6.783  0.2077  0.3560 -0.2021
21944W        W35358   0.856  10.172   5.294 -0.0049  0.0734  0.0332
21945W        W35359   8.336  10.370  13.067  0.0114 -0.0085  0.1825
21946W        W35360   7.014   6.333   6.246 -0.2029 -0.1226  0.0329
21947W        W35361   8.117  14.281   2.343  0.2074 -0.0685 -0.1442
21948W        W35362  10.724   2.105   1.339 -0.3209  0.4180 -0.2145
21949W        W35363   8.879   4.435   0.922  0.0013 -0.2540 -0.0895
21950W        W35364   0.608  10.927  14.997 -0.1075 -0.4365 -0.2124
21951W        W35365   7.468   8.490  14.727  0.1375 -0.2932  0.1356
21952W        W35366  12.025  16.242   0.023  0.0478  0.0418  0.3085
21953W        W35367  18.090  13.113   3.181  0.0392  0.2300 -0.0102
21954W        W35368   3.327   0.040   0.560 -0.0007 -0.2053  0.1854
21955W        W35369  17.524   0.288  15.878 -0.2223  0.1455  0.1224
21956W        W35370   3.464  12.778   2.588 -0.0527 -0.0456 -0.1329
21957W        W35371  14.986   7.594  13.783 -0.1405  0.2231  0.0592
21958W        W35372  12.431   0.760   3.373 -0.0717  0.3335  0.0728
21959W        W35373  17.087   5.753   5.200 -0.0451 -0.0645  0.1026
21960W        W35374   1.771  16.228  16.040 -0.0568 -0.1940 -0.3186
21961W        W35375  10.539  13.022  15.172  0.1964 -0.1498 -0.0547
21962W        W35376  18.380  17.386  12.133  0.1297 -0.1290  0.0516
21963W        W35377  15.246  11.269  15.637  0.0808  0.0695 -0.1483
21964W        W35378  17.449  10.079   4.845 -0.0999  0.0323 -0.0066
21965W        W35379   2.591   8.606  13.329 -0.0614  0.1953  0.0698
21966W        W35380  10.162   6.669  12.197  0.0017  0.0150 -0.0560
21967W        W35381  10.709  17.537  10.998  0.1500  0.0513  0.1863
21968W        W35382   8.705  16.711   0.272 -0.0968 -0.0367  0.2373
21969W        W35383   2.015   7.577   1.992 -0.1964 -0.1954  0.2593
21970W        W35384  17.229   1.119   4.660  0.2143 -0.0532 -0.2836
21971W        W35385   0.678   2.232   1.164 -0.1962 -0.1137 -0.0451
21972W        W35386  16.489   8.439   2.286 -0.0436  0.0778  0.0843
21973W        W35387   4.885  10.196  10.679 -0.1713 -0.1195  0.2961
21974W        W35388   1.423   8.557  12.187 -0.1369  0.0735 -0.2291
21975W        W35389   8.213   2.277   2.064 -0.0673 -0.0947  0.2232
21976W        W35390   4.357  17.867  15.504 -0.0075 -0.0217  0.0070
21977W        W35391   5.967  15.199  11.996  0.1261 -0.0857  0.2135
21978W        W35392  10.538   2.680   2.129  0.2303  0.2295 -0.3186
21979W        W35393  14.634  18.003   6.444  0.0014  0.0285  0.0500
21980W        W35394   7.437  11.417  13.214 -0.1726 -0.0001  0.0220
21981W        W35395  18.338   9.929   2.192 -0.0245  0.3489  0.0252
21982W        W35396   2.798  10.094   1.298 -0.0958  0.0777  0.1367
21983W        W35397   2.663   7.537  11.248 -0.3709  0.1839 -0.1154
21984W        W35398  12.806  17.227   1.997  0.3678 -0.0859 -0.2725
21985W        W35399   1.223  14.191   1.051 -0.0066  0.1261 -0.1539
21986W        W35400   2.462  17.217   5.263  0.2348 -0.1133  0.1925
21987W        W35401  16.172   3.135   2.758 -0.1480 -0.1461 -0.0994
21988W        W35402  12.535  11.112  10.680  0.0187  0.5918  0.1126
21989W        W35403   7.572   9.466  11.870  0.2268  0.2960 -0.1803
21990W        W35404   3.734   3.194  12.352  0.0822 -0.0001 -0.0814
21991W        W35405  14.096   3.609   5.946 -0.0103  0.0546  0.1831
21992W        W35406  12.567  12.930   2.177  0.0887  0.1623  0.2619
21993W        W35407   6.974   0.072   1.091  0.1360 -0.1860  0.1068
21994W        W35408   0.057   3.544  11.253  0.0956 -0.1264  0.5032
21995W        W35409  11.874  10.079   0.049  0.1398  0.0885  0.2705
21996W        W35410   4.248   0.282  12.910 -0.1612  0.1641  0.0503
21997W        W35411   5.849  16.433   3.538 -0.0082  0.1644 -0.1285
21998W        W35412   5.711  13.701   4.023  0.2379 -0.2147 -0.1278
21999W        W35413  11.573  15.014  11.757 -0.1751  0.1238 -0.1955
22000W        W35414   1.034  14.067  14.219  0.2906  0.0777 -0.0155
22001W        W35415  12.848   6.988  14.979 -0.0246 -0.2835  0.1227
22002W        W35416  15.467   7.427   2.437 -0.0677  0.0290 -0.0686
22003W        W35417  10.289  16.677  13.849 -0.2001 -0.1726  0.1316
22004W        W35418  15.612   0.381  15.497 -0.0145 -0.1107  0.2013
22005W        W35419  16.848   5.889  13.829 -0.1805 -0.0141  0.0207
22006W        W35420   2.911   0.950  12.723 -0.2805 -0.1775 -0.2607
22007W        W35421  14.616   0.665  15.731  0.0778 -0.1467  0.2383
22008W        W35422   0.160   4.303   5.906  0.2780 -0.2517 -0.1615
22009W        W35423  11.989   0.615  12.139  0.2226  0.4932  0.2859
22010W        W35424   2.654   5.874   2.273  0.2377 -0.0114  0.2036
22011W        W35425  17.359  12.422  11.867 -0.0713  0.1377 -0.0136
22012W        W35426  10.399  13.811  13.349 -0.0327  0.1550  0.0831
22013W        W35427  16.259   8.181   3.966 -0.2227  0.1556 -0.0164
22014W        W35428  10.032  16.154  12.113 -0.0996 -0.0222  0.1826
22015W        W35429   4.216   0.342   2.064 -0.1281 -0.3862  0.1731
22016W        W35430   0.733  13.807  13.892  0.0963  0.0110 -0.1758
22017W        W35431  17.965   1.053   1.393 -0.5587  0.2998 -0.2094
22018W        W35432   7.828  10.079  14.079  0.5197 -0.0204  0.2012
22019W        W35433  11.691  15.632   1.528 -0.0286 -0.0909 -0.1667
22020W        W35434  11.129  16.612  13.442 -0.0649 -0.3917 -0.4263
22021W        W35435  17.277   4.762   4.615 -0.0983  0.0916 -0.0154
22022W        W35436   4.141  10.260   5.477 -0.3244 -0.0440  0.0494
22023W        W35437   0.120  15.130  15.703  0.2313  0.2857  0.0592
22024W        W35438   3.351   7.404  14.299  0.0201 -0.1538 -0.1937
22025W        W35439  11.293  15.800  14.743 -0.2226  0.2271 -0.5176
22026W        W35440  11.275   7.668  16.464  0.2894  0.0870 -0.1280
22027W        W35441  11.603   9.491   5.148 -0.2115  0.3717  0.0294
22028W        W35442   3.533   0.628   4.469 -0.1599 -0.3632  0.0878
22029W        W35443  16.695   0.607  16.250  0.3004  0.2802  0.1583
22030W        W35444   1.809  18.348   4.932 -0.0990 -0.1237 -0.2393
22031W        W35445  17.689  16.674   4.921 -0.1484  0.4052 -0.1611
22032W        W35446   4.425   4.422  11.133 -0.1870  0.2742 -0.0153
22033W        W35447   6.120  13.044   0.986 -0.0015  0.1613  0.0360
22034W        W35448   6.706   3.629   4.524 -0.0353 -0.1855  0.2423
22035W        W35449  10.860   8.540   1.136  0.1068  0.2199 -0.0362
22036W        W35450   3.905   7.137  13.379  0.2875  0.0207 -0.1592
22037W        W35451   9.608  13.076   4.992  0.2275 -0.2528  0.1807
22038W        W35452  14.906   0.353  13.479 -0.0972  0.1756 -0.1013
22039W        W35453   1.015   3.667  12.997  0.0796  0.2464 -0.3135
22040W        W35454  16.904   1.521   2.641 -0.1661  0.1797 -0.2043
22041W        W35455  16.373  13.654   3.575 -0.1460  0.0904  0.0029
22042W        W35456  12.867   5.469  14.260 -0.1227 -0.1634 -0.0534
22043W        W35457  10.175   9.383  12.103  0.0350 -0.0859 -0.0209
22044W        W35458   1.069   6.905   0.321 -0.0782 -0.0712  0.2378
22045W        W35459   1.215  16.498   6.359  0.0775 -0.1517  0.0185
22046W        W35460  10.004  14.865   5.658  0.3389  0.0494 -0.5405
22047W        W35461   6.478   6.555  14.123 -0.0736  0.0590 -0.2492
22048W        W35462  10.649   0.125   4.185 -0.0621  0.3347 -0.1226
22049W        W35463  15.254   5.424  10.394  0.1781 -0.0982  0.1881
22050W        W35464   0.531  15.943   1.082  0.1050 -0.1442 -0.0983
22051W        W35465  14.577  14.060   3.206  0.2184  0.2247  0.1083
22052W        W35466  17.276   4.202  14.057 -0.0107  0.0791  0.0480
22053W        W35467  13.612   0.604   3.694  0.2960 -0.2016  0.0292
22054W        W35468   8.687   8.872  13.052 -0.1696  0.1963 -0.2273
22055W        W35469  15.802  11.490   2.965 -0.0868  0.1775 -0.2302
22056W        W35470   6.913  17.165  14.879  0.1604  0.0896  0.0686
22057W        W35471   6.608  17.146   4.987 -0.0345  0.0276  0.1175
22058W        W35472   1.987   5.661  14.079 -0.4576  0.2714 -0.2365
22059W        W35473  15.623  10.240   2.244  0.1032 -0.1270 -0.4380
22060W        W35474   5.469   6.923  11.101  0.0683 -0.0610  0.1930
22061W        W35475   6.950   1.596  11.484 -0.1203  0.0414 -0.4925
22062W        W35476   7.600   9.286   6.088 -0.2636 -0.1623  0.1691
22063W        W35477  15.184   8.722  15.402 -0.0744 -0.2501 -0.1875
22064W        W35478  15.005   9.048   1.790 -0.2516 -0.1122 -0.0319
22065W        W35479   0.272   3.355  12.711 -0.1041  0.0794  0.2016
22066W        W35480  13.979   9.909  15.197 -0.3799  0.1649 -0.1189
22067W        W35481  13.457  16.521  13.629  0.1679  0.0069 -0.1467
22068W        W35482   6.115  18.001  15.718 -0.2627  0.1181  0.0088
22069W        W35483  11.936  17.743  11.585 -0.0506  0.1423 -0.0844
22070W        W35484   4.194  13.554   6.408 -0.1261  0.2821 -0.3489
22071W        W35485  13.405   9.929   4.487 -0.0739  0.0443 -0.0359
22072W        W35486  10.975  15.850   3.697  0.0589  0.0725 -0.1618
22073W        W35487   7.467  16.028  12.876 -0.2261 -0.0979 -0.0887
22074W        W35488   5.105   5.534  15.579  0.0542  0.2278 -0.2688
22075W        W35489   5.622   6.013   4.749 -0.1953 -0.0333  0.1208
22076W        W35490   6.810   3.364  15.425 -0.0260  0.0324 -0.0983
22077W        W35491   5.373  10.893   1.505 -0.1699 -0.1312  0.0042
22078W        W35492  16.737  11.354  16.063 -0.0987 -0.5093 -0.3155
22079W        W35493   8.220   4.392   4.250  0.0248  0.3657 -0.1517
22080W        W35494   3.410  17.796  16.255  0.0555  0.1765  0.0366
22081W        W35495   1.213   5.656  13.609 -0.0522 -0.0849  0.0759
22082W        W35496   5.278   9.131  11.507 -0.0261  0.0534  0.0285
22083W        W35497  18.101  11.200  13.197 -0.2134  0.1533  0.1504
22084W        W35498  14.785  13.218   1.774 -0.0075 -0.2357 -0.1168
22085W        W35499   5.420   5.564   4.406 -0.2076 -0.0413  0.3308
22086W        W35500  13.931  11.894  12.184  0.2648  0.3426 -0.1520
22087W        W35501  12.260  16.427   3.577  0.1295  0.0527 -0.1503
22088W        W35502   1.968  13.192   0.543 -0.2951 -0.1958 -0.0851
22089W        W35503  11.126   9.969  16.264 -0.3976 -0.1250  0.0428
22090W        W35504   6.583   4.115  14.015 -0.0805 -0.1002  0.3235
22091W        W35505  14.399   3.208   2.116 -0.1699 -0.1391  0.0280
22092W        W35506  13.809   4.791   4.644 -0.0917  0.1736 -0.1851
22093W        W35507  15.051  16.001   2.213  0.0834 -0.2508  0.0307
22094W        W35508   1.163  11.414  12.357 -0.2024 -0.2078 -0.0615
22095W        W35509  13.716   8.460   4.841 -0.1643 -0.0454  0.2273
22096W        W35510  16.141  10.239  10.161 -0.2047 -0.0056 -0.0808
22097W        W35511   2.748  15.860   2.935 -0.2329  0.0680  0.0421
22098W        W35512  12.568  12.278   3.469  0.1593  0.0277  0.0701
22099W        W35513   4.653  10.557  16.201 -0.1586  0.0000 -0.1135
22100W        W35514   0.803   4.140   1.977  0.0615 -0.2212  0.1164
22101W        W35515  14.684   9.367  12.696  0.0413 -0.0585 -0.1841
22102W        W35516  10.131   1.652  15.591 -0.0313  0.1433  0.0166
22103W        W35517   2.958  15.474  11.686  0.2886  0.0244 -0.1431
22104W        W35518   8.899  13.601   0.955 -0.0305  0.0718  0.1269
22105W        W35519   3.783   8.908   9.869  0.1787  0.0690  0.1295
22106W        W35520  17.568  12.495  11.252  0.3588  0.0285  0.0760
22107W        W35521  15.954  16.012  16.004  0.2804  0.4880  0.0200
22108W        W35522  14.504   7.893  15.039  0.1351  0.0892  0.0149
22109W        W35523   9.593  12.538  15.575 -0.1689 -0.2709  0.3277
22110W        W35524  11.485  13.242  13.948  0.0659 -0.1357  0.1491
22111W        W35525   3.400  13.403   0.234  0.0972 -0.0083 -0.1117
22112W        W35526  17.903   8.606   5.483 -0.0765  0.1129  0.0779
22113W        W35527   6.818   2.518  10.161  0.4264  0.3874  0.1974
22114W        W35528  18.386  18.280  13.298 -0.0954 -0.0918 -0.2067
22115W        W35529  11.350   5.940   3.895 -0.0742 -0.1296  0.2002
22116W        W35530  16.230   9.421  13.919 -0.0623 -0.0803  0.0662
22117W        W35531   9.953  16.804  11.189  0.0185  0.2264 -0.2626
22118W        W35532   2.101   7.301  12.817 -0.1076  0.0188 -0.3084
22119W        W35533  15.596   2.595   4.468  0.0299 -0.0325  0.0592
22120W        W35534   1.933   6.872   3.825 -0.2090  0.0127  0.1121
22121W        W35535   2.004  10.189  15.294  0.0042  0.1527  0.2549
22122W        W35536  12.085  14.196   5.055 -0.2094 -0.0122  0.0374
22123W        W35537  13.740   6.505  10.368  0.0437 -0.2572 -0.1799
22124W        W35538   2.008  15.913   6.303 -0.1176  0.3992 -0.1385
22125W        W35539  17.101  13.036  14.884 -0.1825  0.0700 -0.0542
22126W        W35540  11.399  12.709   2.207  0.2383 -0.0198  0.2008
22127W        W35541   2.485  13.583  14.419 -0.2411  0.1821  0.2442
22128W        W35542   3.780  16.411   2.471 -0.1245 -0.1416 -0.0582
22129W        W35543  10.909  16.239  15.970  0.1245  0.0389  0.0211
22130W        W35544  10.123   4.134   3.844 -0.1438  0.1860 -0.1680
22131W        W35545  10.503  17.719  12.834 -0.2466  0.1194  0.0109
22132W        W35546   6.357  10.111   1.147 -0.0083 -0.1490 -0.1021
22133W        W35547   5.723  13.322  11.601 -0.4096 -0.2107 -0.2119
22134W        W35548   8.523   5.375   3.674 -0.2171 -0.2259 -0.0154
22135W        W35549   3.534  13.957   3.833  0.0226  0.1027 -0.1880
22136W        W35550  14.475   0.213  15.956  0.1134 -0.3556  0.0845
22137W        W35551  16.696  10.571  12.257  0.1308  0.1984  0.0509
22138W        W35552   0.403  10.738  15.494  0.1245 -0.1801  0.1738
22139W        W35553   1.078  17.232   3.992 -0.3538  0.2671 -0.0871
22140W        W35554   3.145  15.397   5.528 -0.1200 -0.0766 -0.2384
22141W        W35555   0.184  13.182   3.165  0.2997 -0.0124  0.2883
22142W        W35556   4.269  16.320   0.239 -0.1323 -0.1515 -0.1651
22143W        W35557   3.001   0.478  12.349 -0.2595 -0.3331 -0.0586
22144W        W35558  14.007  15.600   3.765  0.1394 -0.0086 -0.2985
22145W        W35559   0.874  13.852   0.670  0.2173  0.0552 -0.4182
22146W        W35560   4.048  15.922  14.282  0.0922  0.2544 -0.2514
22147W        W35561  14.046   7.665  14.904 -0.0420 -0.0462  0.3249
22148W        W35562   9.050   0.734   1.283 -0.0127 -0.3247  0.1564
22149W        W35563  11.102  11.233   1.268 -0.2153  0.0950 -0.1334
22150W        W35564  13.813   3.409  14.164  0.0030  0.0650  0.0655
22151W        W35565  10.096   1.791  11.557 -0.0902  0.0425 -0.1458
22152W        W35566   2.057  11.487  12.790  0.0863 -0.1155  0.0899
22153W        W35567  14.079   4.616   0.448  0.0887  0.1798 -0.0862
22154W        W35568  15.628   3.003  13.194  0.0810  0.2043 -0.3430
22155W        W35569  15.660  11.607  14.779 -0.2881 -0.1660  0.1407
22156W        W35570  15.357  12.092  16.101 -0.1272 -0.1726  0.1121
22157W        W35571   3.596   1.792   1.112 -0.1741  0.3738 -0.2232
22158W        W35572   3.708  16.934   5.375 -0.0070 -0.0364  0.0455
22159W        W35573  14.036  15.587   0.139 -0.2699  0.0579 -0.1896
22160W        W35574   1.870  13.108  14.706 -0.1831 -0.1181  0.1537
22161W        W35575   9.811   1.153  10.399  0.1951 -0.4005 -0.1211
22162W        W35576  15.433  17.402  14.807  0.0829  0.3067 -0.0962
22163W        W35577  15.181   4.799  11.460 -0.1206  0.2814  0.1617
22164W        W35578   2.069  10.357  14.805 -0.1230  0.0837  0.1098
22165W        W35579   8.075   9.001   4.415 -0.1711 -0.1960 -0.2357
22166W        W35580  13.997  12.076  13.865  0.0628 -0.0407 -0.0469
22167W        W35581   2.226   4.965  10.614  0.0772  0.0579  0.3439
22168W        W35582   7.110   4.953   3.244  0.1826  0.1756  0.3370
22169W        W35583   8.753  18.222   2.773 -0.3523  0.0160 -0.2586
22170W        W35584   9.421  14.919   0.598  0.1099 -0.0078  0.1117
22171W        W35585  15.992  12.067  12.466 -0.0173  0.0371  0.1067
22172W        W35586   1.236   9.790   2.387 -0.2091  0.1096  0.1897
22173W        W35587   7.122   9.181  11.964 -0.1747  0.0475 -0.0533
22174W        W35588   1.850  12.652   1.462 -0.0952 -0.0321 -0.0616
22175W        W35589   6.742   8.845  15.579 -0.1524  0.1469 -0.3929
22176W        W35590   6.660   7.148   5.746 -0.0019  0.1213  0.3516
22177W        W35591   6.937  10.592  13.682  0.0689  0.0905  0.2657
22178W        W35592   3.771   4.860  15.556  0.1087 -0.3843  0.0590
22179W        W35593   6.635  17.637   3.509  0.0836 -0.1961 -0.0689
22180W        W35594  14.449   6.764  10.449  0.2340 -0.2648  0.1074
22181W        W35595  17.981   6.274  16.295  0.0052  0.0425  0.1263
22182W        W35596   7.703  10.649   6.088  0.0890  0.1432  0.3809
22183W        W35597  16.302   6.823  12.105  0.0702  0.2553 -0.1842
22184W        W35598  17.792   3.493  10.324  0.1139  0.0859 -0.1470
22185W        W35599  18.309   3.315  16.399  0.1921  0.1278  0.0189
22186W        W35600  15.910   8.742  11.122 -0.0602  0.1881 -0.3672
22187W        W35601  18.314  10.595  14.677  0.0437 -0.1897 -0.2505
22188W        W35602  16.545  16.042   4.338  0.0091  0.1261 -0.0766
22189W        W35603   3.346   6.381  14.997 -0.2372 -0.4403 -0.1947
22190W        W35604   0.947   2.237  11.473 -0.3692 -0.2252 -0.0931
22191W        W35605  11.761  13.268  15.764 -0.0389 -0.1675 -0.0645
22192W        W35606   6.940   6.600   0.445  0.0490 -0.0154 -0.3787
22193W        W35607   9.472   7.908  14.647 -0.0190 -0.0410  0.1001
22194W        W35608   6.055   1.342   0.646 -0.2455 -0.2387  0.4444
22195W        W35609   1.063   4.500   1.702 -0.1395  0.1392 -0.1705
22196W        W35610   9.527   0.991  11.674  0.2073  0.1418 -0.0910
22197W        W35611  13.194   0.878  15.756 -0.0146  0.1342  0.2604
22198W        W35612   1.048   9.093  14.870  0.1248 -0.1875  0.2010
22199W        W35613   6.389   2.645   6.322  0.0331  0.2909 -0.1168
22200W        W35614   7.857  15.401   1.934  0.2190 -0.0555 -0.0592
22201W        W35615  13.947   7.973  11.771  0.1989 -0.3844 -0.0008
22202W        W35616   5.363  14.898   5.732 -0.0632  0.2511  0.0237
22203W        W35617   8.529  10.984  12.418  0.0505 -0.0258 -0.0110
22204W        W35618   6.361   4.273   9.881 -0.0976  0.1031 -0.2973
22205W        W35619  15.849  15.412  15.852 -0.0052 -0.1023 -0.1876
22206W        W35620   5.943  10.502   1.150  0.2960  0.2037 -0.2572
22207W        W35621  15.238  11.572  13.029  0.0338 -0.2134 -0.0591
22208W        W35622  16.856   8.509   3.291 -0.0415  0.1831  0.0596
22209W        W35623  13.714   9.630   0.170 -0.0870 -0.1618  0.0615
22210W        W35624  16.355   8.122  10.028  0.0573 -0.0193 -0.2611
22211W        W35625   9.007   5.719   2.288 -0.1384 -0.0109  0.3644
22212W        W35626  12.239  11.663   2.445 -0.0804  0.0157 -0.1305
22213W        W35627   9.372   9.532  13.009  0.0144 -0.3193  0.2589
22214W        W35628   9.447   8.037   3.410 -0.0888 -0.0242 -0.1879
22215W        W35629   2.600  10.090   0.283  0.1475 -0.3031 -0.1859
22216W        W35630   7.980   9.981  15.334  0.3060 -0.0246 -0.0726
22217W        W35631   4.633  11.240   5.327  0.5517 -0.2151 -0.1445
22218W        W35632   8.718   2.786   4.926 -0.2563 -0.1123  0.0291
22219W        W35633   4.923  11.798  15.963 -0.0888 -0.2689  0.0880
22220W        W35634   6.553   1.343   5.203 -0.1100 -0.0193 -0.0721
22221W        W35635   5.986   5.740  12.544  0.2637 -0.1042 -0.0728
22222W        W35636  17.158  16.541  16.343 -0.2489 -0.2774  0.5897
22223W        W35637   4.303   5.367   1.492  0.2516  0.0847  0.2901
22224W        W35638   1.116   7.591   3.880  0.2117  0.3049  0.0130
22225W        W35639  15.399   3.299  10.438 -0.5836 -0.0892  0.4855
22226W        W35640   3.973  14.491   1.903 -0.0079  0.3214  0.0553
22227W        W35641  13.525  10.575  11.187 -0.0335 -0.0976 -0.1904
22228W        W35642  16.102   3.424  14.973  0.0124 -0.0048  0.0338
22229W        W35643  15.927  16.862   3.326  0.1187  0.1943  0.3357
22230W        W35644  11.204  10.458  14.627  0.3408 -0.0938 -0.0154
22231W        W35645   3.417   5.468   1.397 -0.1700 -0.0150 -0.1156
22232W        W35646  12.166   5.497  11.468  0.3973  0.1398  0.3688
22233W        W35647   9.459   5.985  14.245 -0.0081 -0.0372  0.2959
22234W        W35648  11.588  17.583   1.470 -0.0454 -0.1148  0.0633
22235W        W35649  17.098   4.802  10.216 -0.2156 -0.0315 -0.2189
22236W        W35650   9.416   0.867  10.877  0.0669  0.0801  0.0840
22237W        W35651  17.745   5.645   5.256 -0.2245 -0.2111 -0.2632
22238W        W35652   1.508  16.045   1.500  0.1134 -0.1963 -0.2324
22239W        W35653   4.146   5.477  10.390 -0.0180  0.1415 -0.0822
22240W        W35654   3.250  11.829  11.676  0.1592  0.1123 -0.0392
22241W        W35655  16.730   8.178  10.792 -0.1297  0.1120 -0.0759
22242W        W35656   3.914   2.034   5.079  0.2359 -0.1442  0.2585
22243W        W35657   8.905   9.274   4.097 -0.1811  0.2464  0.1675
22244W        W35658   4.052   3.441  13.045 -0.2036  0.0887  0.0789
22245W        W35659  16.263  16.135  16.404  0.3405 -0.0111 -0.1180
22246W        W35660  15.522   8.533  10.311 -0.0688 -0.1191 -0.1719
22247W        W35661   7.313   6.862   1.657  0.3605 -0.2460  0.0182
22248W        W35662  10.282   5.603   2.398  0.2191 -0.0310  0.0965
22249W        W35663  17.308   5.506   5.536 -0.1874 -0.3057 -0.0982
22250W        W35664   6.651  10.173  15.344  0.1817 -0.0244  0.1370
22251W        W35665   8.224   8.965  16.487  0.4464 -0.0427  0.1961
22252W        W35666   0.142  15.809   3.083  0.2595 -0.2975  0.0974
22253W        W35667  14.360   8.338   4.236  0.1151 -0.0833  0.1684
22254W        W35668   2.115   8.810  14.437 -0.1586 -0.3715 -0.0474
22255W        W35669   8.532   4.187   1.897 -0.5467  0.0698 -0.0534
22256W        W35670  10.549   0.166   0.291  0.3056 -0.0094 -0.0440
22257W        W35671  14.413  15.395  14.984 -0.0211  0.1428  0.0869
22258W        W35672  10.820   4.530   1.523  0.1815 -0.4605  0.0848
22259W        W35673   7.115   8.937   1.951 -0.3698  0.0678  0.0178
22260W        W35674  10.959   4.809   3.713  0.0354  0.0328  0.1016
22261W        W35675  12.273  17.594   2.779 -0.1753 -0.0017  0.0693
22262W        W35676  15.873  12.474   3.992  0.0865 -0.0059 -0.0981
22263W        W35677   3.564   5.944   5.159 -0.1693 -0.3151  0.1842
22264W        W35678  15.272  11.203   3.454  0.2080  0.0404 -0.0234
22265W        W35679   3.640   7.694  10.765 -0.1325 -0.1020  0.1102
22266W        W35680   7.264   1.937   5.283 -0.1464  0.0732 -0.1254
22267W        W35681   4.809   8.847  15.812  0.0430  0.1430  0.0390
22268W        W35682  15.202  13.893   6.274  0.0140  0.3634  0.1603
22269W        W35683  17.559  10.866   4.076 -0.0616 -0.2487 -0.0235
22270W        W35684   6.680  14.965   4.733 -0.1483  0.0922 -0.0035
22271W        W35685  17.941  10.017   5.019 -0.0009  0.4106  0.0218
22272W        W35686   6.793  17.111   1.441 -0.1762 -0.2415 -0.1311
22273W        W35687  14.443  11.132   6.216  0.1187 -0.0011  0.2214
22274W        W35688   6.877  15.078  15.782 -0.2634  0.2387 -0.0448
22275W        W35689  14.411   5.560   1.982 -0.1568 -0.1281  0.2261
22276W        W35690   9.162   3.240   3.121  0.0107  0.0681 -0.1928
22277W        W35691   6.674   6.917  13.442 -0.0874  0.1612  0.0667
22278W        W35692   4.248   9.026   2.222 -0.1484 -0.0236  0.3630
22279W        W35693  12.785  15.865   2.962 -0.2529 -0.0014  0.1171
22280W        W35694   8.928  11.750  15.715  0.1903  0.1610 -0.1438
22281W        W35695   3.059  14.221   0.278 -0.2281 -0.0773 -0.2160
22282W        W35696   0.268   0.162   3.889 -0.2180 -0.0450  0.1226
22283W        W35697  13.605  17.964   3.779 -0.3999  0.3770  0.1095
22284W        W35698   4.170   1.576  12.933 -0.1641  0.1422 -0.0582
22285W        W35699   1.168   1.044  12.790 -0.0061 -0.1332 -0.1713
22286W        W35700  17.018  18.189  11.556 -0.0667 -0.0904  0.0167
22287W        W35701  17.110   5.731   4.665 -0.3762 -0.1874 -0.0131
22288W        W35702   6.328   6.587  11.842 -0.1843 -0.0493  0.1981
22289W        W35703   8.568  10.624  11.561 -0.2905  0.0322 -0.3576
22290W        W35704   9.815  11.086   0.639 -0.0790  0.3283  0.2342
22291W        W35705   7.029   2.830  12.539  0.0503  0.2977  0.1588
22292W        W35706  16.047   3.002  10.905 -0.3125 -0.2123 -0.4284
22293W        W35707  14.584   9.876  14.524  0.0235  0.1807  0.3085
22294W        W35708  13.695   7.178  14.786 -0.1341  0.2950  0.0052
22295W        W35709   0.598  10.833  12.939 -0.0937 -0.3257 -0.3071
22296W        W35710   3.460  14.945   5.942  0.0250 -0.2700 -0.0536
22297W        W35711  17.537   6.082   3.520  0.4356 -0.1696  0.3036
22298W        W35712  17.784  16.414  11.907  0.1060  0.1462  0.0430
22299W        W35713   9.750   9.424  10.660 -0.0075 -0.0642  0.1397
22300W        W35714   4.368  14.191   3.776  0.0031 -0.1096  0.1319
22301W        W35715   8.819  15.537  15.722 -0.1688 -0.1569 -0.2398
22302W        W35716   6.642  13.317   4.110  0.0592  0.0204  0.1032
22303W        W35717   0.095  11.215   2.743 -0.1608  0.2179 -0.1765
22304W        W35718  14.496  14.771  15.976 -0.2757 -0.1221 -0.1754
22305W        W35719  14.052  14.475   2.033 -0.1006  0.3461 -0.2096
22306W        W35720   1.595   5.413  13.814  0.4460 -0.2597  0.0945
22307W        W35721   1.731   7.838   5.224  0.0992 -0.0645  0.0407
22308W        W35722   3.959  15.786   5.208 -0.4463  0.0342 -0.0302
22309W        W35723  15.026  13.707  16.118 -0.1149 -0.3236  0.0359
22310W        W35724   1.455  10.506  16.209 -0.2002  0.1003  0.4064
22311W        W35725  15.049  16.681  14.362 -0.0399 -0.2648 -0.2008
22312W        W35726  12.376  16.059  11.658  0.1708  0.3055  0.0241
22313W        W35727  13.703  14.951  12.658  0.1274 -0.2125 -0.0781
22314W        W35728  12.040  13.735   3.234  0.2630 -0.1116  0.0301
22315W        W35729   7.105  14.127   4.705 -0.0991  0.0623 -0.2866
22316W        W35730   2.007   7.981  15.172 -0.1479 -0.1080  0.3765
22317W        W35731  12.445   0.440   9.907 -0.2096 -0.0709  0.2276
22318W        W35732  13.320  16.893  12.795 -0.3471  0.0293 -0.0588
22319W        W35733  13.784  11.871   1.662 -0.0959 -0.0438  0.0891
22320W        W35734   9.325  15.297   4.801 -0.1982  0.3636 -0.0800
22321W        W35735   4.615  17.468  12.290 -0.2403 -0.0222  0.0048
22322W        W35736   9.509  13.010   0.495  0.1872 -0.1552 -0.0024
22323W        W35737  15.692   6.108  16.182  0.3014 -0.0290  0.3985
22324W        W35738  11.208   4.991   0.165  0.1818 -0.0206 -0.0113
22325W        W35739   1.069   2.482   1.413  0.0233  0.0151  0.2955
22326W        W35740   7.332   6.417  14.376 -0.0705  0.4701 -0.2022
22327W        W35741   5.927   9.316   2.677  0.0213  0.2617  0.2628
22328W        W35742  13.694  16.148  11.160 -0.0905 -0.0554  0.1610
22329W        W35743   6.200  13.649   3.711  0.0533  0.0777  0.1759
22330W        W35744  11.650  16.284   2.174  0.1030  0.0376 -0.0843
22331W        W35745  10.547  16.160   2.016  0.1188  0.0903 -0.1021
22332W        W35746   6.125  17.291  14.374 -0.2252 -0.3413  0.0005
22333W        W35747   5.106   5.534  10.418 -0.1442 -0.2424 -0.1679
22334W        W35748   7.128   2.624   0.643 -0.0745 -0.0696  0.1928
22335W        W35749  14.957  11.154  14.091 -0.0092  0.1697  0.0336
22336W        W35750  15.740  13.207  14.362  0.0166  0.0702  0.2421
22337W        W35751  16.835   2.861   3.337  0.0890 -0.1152  0.1925
22338W        W35752  13.312   5.777   4.567  0.1551 -0.0316 -0.1286
22339W        W35753   2.033   2.925  10.288  0.2520  0.1733 -0.1554
22340W        W35754  10.787   1.050   3.744  0.1294 -0.2439 -0.0016
22341W        W35755   8.596   4.755  14.000 -0.0709 -0.0379  0.1144
22342W        W35756   4.209   3.623  14.902 -0.0828 -0.0780  0.0513
22343W        W35757   8.033   2.756   0.129 -0.0122  0.1624  0.2416
22344W        W35758  12.645   7.143   3.135  0.3808 -0.0206  0.1293
22345W        W35759   4.644   9.467  15.350 -0.1069  0.3465 -0.0985
22346W        W35760  14.837  13.163   4.387  0.2237  0.2389  0.0654
22347W        W35761  14.430   5.233  15.285  0.0814  0.2103  0.0279
22348W        W35762  12.979  13.464   3.851  0.1102  0.2167 -0.0199
22349W        W35763  13.226  12.975   0.673  0.0299 -0.0700  0.2765
22350W        W35764   7.091  14.696  15.564 -0.2507  0.2651  0.0110
22351W        W35765  13.392  14.213   6.442  0.3279  0.2519  0.1684
22352W        W35766  14.468   5.208   2.763 -0.1946  0.3818  0.2161
22353W        W35767  13.477  12.030   6.204 -0.1312  0.2945  0.0992
22354W        W35768  13.628  17.292   1.498 -0.0182  0.0557  0.0972
22355W        W35769  17.289   0.677   5.490 -0.0946 -0.2720 -0.1488
22356W        W35770   2.900  15.075  12.491 -0.2700 -0.1897  0.1221
22357W        W35771  14.027   2.223   3.867  0.4781 -0.0251 -0.1772
22358W        W35772   3.652   0.472  16.047 -0.0486 -0.0218 -0.0971
22359W        W35773  11.305   2.562   0.033  0.2150 -0.0620  0.1947
22360W        W35774  12.999   6.309  14.770  0.1880 -0.4571 -0.0749
22361W        W35775   6.929  12.654   1.879  0.5097 -0.2311  0.2737
22362W        W35776  17.681  16.697  11.369  0.1065  0.1107 -0.2673
22363W        W35777  12.118   4.993   6.174 -0.2520 -0.0459 -0.3313
22364W        W35778   6.071   5.573  14.198  0.0989  0.0102 -0.2101
22365W        W35779   7.506  13.317   2.136  0.0723 -0.2179  0.1355
22366W        W35780  15.657   8.793   0.203 -0.1725 -0.1184  0.3263
22367W        W35781   8.322  11.086   5.893 -0.0826  0.1398 -0.0114
22368W        W35782   8.803  10.225  12.987  0.0242 -0.1399 -0.3157
22369W        W35783   9.325   4.554   4.255  0.0646  0.0132 -0.0562
22370W        W35784   8.110   3.877   0.983 -0.1951  0.3116  0.0465
22371W        W35785  12.455   3.737  13.403 -0.1061 -0.1315  0.0227
22372W        W35786   4.936  13.137  15.232 -0.0990 -0.4029 -0.0673
22373W        W35787   9.037   1.262   3.066  0.1369 -0.4297  0.0157
22374W        W35788  11.818  14.946   2.405  0.1554  0.0068  0.1082
22375W        W35789  11.168   5.805  15.284  0.3722  0.0688  0.1695
22376W        W35790  14.165  18.016   0.231 -0.1116  0.1632  0.1528
22377W        W35791   2.291   4.735   1.227  0.1942  0.2211  0.1163
22378W        W35792  12.422   8.635  11.934 -0.0375 -0.0066 -0.2601
22379W        W35793  15.571   0.983  11.681 -0.0245  0.1426 -0.3237
22380W        W35794  14.769   0.791   3.190  0.1556  0.2832  0.0461
22381W        W35795   3.920   9.302  16.444 -0.1172 -0.0144 -0.1096
22382W        W35796  17.301  12.219  12.750 -0.1528 -0.1442  0.2673
22383W        W35797  13.121  13.913  15.774 -0.3035  0.2760 -0.0979
22384W        W35798   2.856  14.949  15.409  0.2368 -0.0458  0.1698
22385W        W35799  11.878   1.976   3.781 -0.3270 -0.4086 -0.3110
22386W        W35800  11.729   2.538   0.804  0.4466  0.3019  0.2493
22387W        W35801  12.980   8.269   3.898  0.0349  0.2601 -0.1086
22388W        W35802   4.142   6.218  16.395 -0.0484 -0.0531 -0.0367
22389W        W35803  13.925   8.697   1.431  0.1559  0.1567  0.1830
22390W        W35804   8.164  16.462  11.949 -0.0216 -0.0973 -0.1512
22391W        W35805  16.681   2.973  13.975  0.1096 -0.0855 -0.0453
22392W        W35806  11.529  18.025   3.878 -0.3002 -0.1316  0.1934
22393W        W35807  18.108  10.004  14.279 -0.2877 -0.0242 -0.2323
22394W        W35808  18.220  15.967  13.595 -0.1570 -0.3965  0.1692
22395W        W35809   2.381   2.738   6.416  0.0512  0.0525 -0.1500
22396W        W35810  13.797  11.347  15.260  0.1535  0.2487  0.1223
22397W        W35811  13.516   8.656   3.184 -0.2814 -0.1531  0.0754
22398W        W35812   0.616  15.294  11.252 -0.1755 -0.0520 -0.1362
22399W        W35813   7.510  11.766  16.097  0.3847  0.2385 -0.0769
22400W        W35814   4.086   8.218  15.881 -0.2272  0.0132  0.1679
22401W        W35815   8.603  13.802  15.133 -0.0579  0.0011 -0.1506
22402W        W35816   3.493  10.509   0.484  0.1542 -0.1635 -0.0214
22403W        W35817  11.586   3.515   5.381 -0.0750  0.1085  0.0143
22404W        W35818  17.425  16.156   6.183 -0.1372 -0.2374  0.0811
22405W        W35819  13.754  14.281   7.113  0.0589  0.2716  0.3453
22406W        W35820  10.911   3.620   1.291  0.0312  0.0137 -0.0829
22407W        W35821   7.438  13.732   4.866 -0.0402  0.1452 -0.0902
22408W        W35822  17.787   3.121  12.467 -0.0493 -0.1491  0.2370
22409W        W35823  13.974   7.415   3.017 -0.1989  0.0708 -0.0577
22410W        W35824   0.681  13.840  12.368 -0.1917 -0.0817  0.0068
22411W        W35825   2.748  14.452   5.636 -0.0002 -0.1846 -0.1063
22412W        W35826  11.231   1.799   4.227  0.2384  0.3191 -0.0635
22413W        W35827   1.905   2.641  12.129  0.1655  0.0850 -0.1900
22414W        W35828  15.519   0.304   2.166  0.2352  0.0467 -0.0649
22415W        W35829   7.189   7.595  12.183  0.0919 -0.1838 -0.0199
22416W        W35830   0.030  11.915   9.996  0.1833 -0.0458 -0.2891
22417W        W35831  18.168  15.080  16.474 -0.0691  0.1341 -0.0821
22418W        W35832  11.761   4.589   4.737 -0.0078  0.0781 -0.0105
22419W        W35833  11.955   3.246  10.670 -0.0486  0.3364 -0.0855
22420W        W35834   2.813  14.774   1.342  0.2798 -0.1209 -0.0636
22421W        W35835   2.640  13.362  11.684 -0.1813  0.3277  0.2670
22422W        W35836   7.921   5.576   2.648  0.3830 -0.1756  0.0048
22423W        W35837  11.530   8.674  12.457  0.2514 -0.2117 -0.0236
22424W        W35838   5.067  10.165  14.874 -0.1118 -0.2580 -0.0049
22425W        W35839  12.129  16.310   5.789  0.0330  0.0945  0.1012
22426W        W35840   8.482  11.653   2.753  0.2539 -0.0690 -0.3462
22427W        W35841   2.232   6.356  16.315 -0.1272 -0.2232  0.1545
22428W        W35842   0.024  12.643   2.356 -0.2632  0.0319 -0.0567
22429W        W35843   3.021  17.227   2.373 -0.0778 -0.1076 -0.2452
22430W        W35844   2.730  18.126  14.800  0.0099 -0.2632  0.3608
22431W        W35845   5.271   4.059  13.466 -0.0004 -0.5472 -0.0393
22432W        W35846   2.791   2.063   3.994  0.1337 -0.0567  0.2575
22433W        W35847   0.931   6.256  12.301  0.0052 -0.1190  0.1171
22434W        W35848  11.644   2.308  15.214 -0.2730  0.0241  0.1124
22435W        W35849  17.772   9.302  10.964 -0.3660 -0.1662 -0.1457
22436W        W35850   0.356   1.363  12.258 -0.0431 -0.3946 -0.0997
22437W        W35851  14.197   8.386   1.747  0.0137 -0.1215 -0.0676
22438W        W35852  16.072   0.380   5.490  0.2249  0.0036  0.1473
22439W        W35853   1.796   3.907   0.857  0.1659 -0.0901 -0.3007
22440W        W35854   3.316  17.541  15.844 -0.1445  0.2578  0.0519
22441W        W35855   6.178  11.215   0.351  0.0045 -0.0341  0.2697
22442W        W35856   4.952   7.593  15.298  0.0723  0.1208  0.0812
22443W        W35857   5.921  14.456  12.988 -0.1478  0.4552 -0.0417
22444W        W35858   3.601   1.515  12.522  0.0801 -0.2634  0.0559
22445W        W35859   3.876  18.118   3.697  0.1004  0.0445  0.2287
22446W        W35860  17.258   1.961  16.449 -0.2761 -0.1123 -0.0568
22447W        W35861   9.550   9.409   0.712 -0.0370 -0.1178 -0.0914
22448W        W35862  16.375   1.009  10.840  0.0750 -0.1028  0.1835
22449W        W35863   4.895  12.071  13.840 -0.0600  0.2530 -0.3018
22450W        W35864   6.770  14.862  11.681  0.2461 -0.1192  0.0766
22451W        W35865  10.771   3.571   4.649  0.2999 -0.0379  0.0590
22452W        W35866   8.331   9.984  14.028 -0.0083 -0.1390  0.3177
22453W        W35867   6.386  13.285  16.237  0.1594  0.0280 -0.0841
22454W        W35868  12.708   9.167  15.970 -0.1488 -0.1686  0.2305
22455W        W35869   0.357   6.782  10.024 -0.1584 -0.1294  0.1556
22456W        W35870   3.177  15.193  12.888 -0.0002  0.0726  0.1232
22457W        W35871  14.589   0.841  14.849 -0.2906  0.1353  0.2366
22458W        W35872   9.810  16.585   5.524  0.0998 -0.2526  0.1324
22459W        W35873  14.664  16.525  15.163  0.3531  0.0223 -0.1586
22460W        W35874   6.339   6.675   2.997 -0.0943 -0.1300 -0.0373
22461W        W35875  15.796  17.735   2.897  0.0745  0.1077  0.2094
22462W        W35876   2.565   8.974   0.311 -0.2081  0.2962 -0.0184
22463W        W35877  12.097   1.044  15.670  0.1946 -0.1288 -0.0905
22464W        W35878   9.528   8.236   0.512 -0.0139 -0.0263 -0.0118
22465W        W35879   9.725   0.094   0.198  0.1738  0.0037 -0.0248
22466W        W35880  13.295   8.000  12.761 -0.2401  0.2112 -0.2629
22467W        W35881  11.580  16.834   2.761  0.1096 -0.2795 -0.1580
22468W        W35882  14.974  15.491   3.889  0.0372 -0.2201  0.3053
22469W        W35883  13.084   2.229  16.437  0.1069 -0.1194  0.0901
22470W        W35884  12.699  16.617   2.159 -0.0095 -0.0570  0.1633
22471W        W35885  11.483  11.320   0.414  0.3436  0.0137 -0.1584
22472W        W35886   8.629   5.704   0.965  0.1358 -0.0166  0.4794
22473W        W35887   2.573   6.321   0.171  0.1383  0.1982  0.1313
22474W        W35888   1.668   0.008  15.049 -0.1342 -0.0281  0.1740
22475W        W35889   9.934  11.591   3.472  0.3543  0.1043 -0.3732
22476W        W35890  15.306   6.427   2.464 -0.0575  0.1060  0.1016
22477W        W35891  12.891   5.980   1.634 -0.2765 -0.3525  0.1448
22478W        W35892  12.475   2.093   6.499 -0.2159 -0.3586 -0.2044
22479W        W35893   0.008  16.089   5.994 -0.0869 -0.3338 -0.2894
22480W        W35894  12.943   1.846   0.221  0.1135 -0.0947  0.0472
22481W        W35895   4.164   1.594   4.962  0.2270  0.0570 -0.3880
22482W        W35896   5.456  12.186  13.007  0.2186  0.0393  0.3325
22483W        W35897   9.692  12.186   2.040 -0.0052  0.1199  0.2177
22484W        W35898   2.928   2.939   0.621 -0.1686  0.0159  0.1844
22485W        W35899  12.391   1.929   2.645 -0.2202 -0.0918  0.1190
22486W        W35900   1.780  16.702   3.497 -0.0856  0.2107  0.1809
22487W        W35901   8.644  14.536   2.445 -0.0250  0.0488  0.0196
22488W        W35902  15.114   2.794   5.147  0.0758  0.0246  0.1828
22489W        W35903  12.253   0.608   0.804  0.2681  0.2270  0.1385
22490W        W35904   0.516  17.438   7.065  0.0983  0.2711 -0.1380
22491W        W35905   2.437  15.460   3.749 -0.0934  0.0053  0.0270
22492W        W35906   7.229   2.361   4.376  0.0959  0.0760  0.1745
22493W        W35907   2.244   2.266   3.393  0.0340 -0.2309  0.0519
22494W        W35908  15.134   2.527  10.609  0.0400  0.0007 -0.0921
22495W        W35909   2.465  17.136   0.705  0.3071 -0.1520  0.1526
22496W        W35910   6.824  13.512  16.107  0.2447  0.3652  0.2022
22497W        W35911  11.376  10.807  12.261  0.0021 -0.2417 -0.1741
22498W        W35912  16.302   2.436  11.562 -0.1074 -0.3228 -0.2228
22499W        W35913   5.038  18.233  12.490  0.0362 -0.1851 -0.5667
22500W        W35914   5.895   4.860  12.746 -0.1245  0.2110 -0.4887
22501W        W35915  16.708  12.701   1.918  0.0003 -0.4565  0.0167
22502W        W35916   8.836   7.983   1.631 -0.0315  0.4400  0.0706
22503W        W35917   8.801  17.748   3.001  0.0410 -0.1039 -0.2489
22504W        W35918   9.411   7.648  10.068  0.2355  0.0631 -0.1669
22505W        W35919   5.492   2.354  11.887 -0.0738 -0.0193  0.1864
22506W        W35920  15.700   0.727  12.663  0.1751  0.0804 -0.0104
22507W        W35921  17.046  17.872   4.782  0.0044  0.0305  0.1943
22508W        W35922  11.280  14.826  14.899 -0.1114 -0.1307 -0.0492
22509W        W35923  11.597   3.758  12.344 -0.0741  0.1688 -0.1219
22510W        W35924  13.805  15.064   0.179  0.3307  0.2623  0.3979
22511W        W35925   5.191   0.130   0.674  0.1340 -0.0814 -0.2368
22512W        W35926  10.136  11.083   3.446 -0.2564  0.0103  0.1089
22513W        W35927  15.408  14.758   5.861  0.0438  0.2691 -0.4694
22514W        W35928   2.272  10.339   1.504  0.1394 -0.1670 -0.0296
22515W        W35929   0.971  11.747  16.358 -0.0271 -0.0472 -0.4051
22516W        W35930  17.143   0.360   1.492  0.0827  0.0160 -0.2170
22517W        W35931   5.649  14.335  12.552  0.0918 -0.1517 -0.2707
22518W        W35932  16.031  10.402  12.904 -0.2524  0.0319 -0.0933
22519W        W35933   0.105  15.921   0.268  0.1086  0.1191 -0.0475
22520W        W35934  17.995   1.758  11.919  0.3835 -0.2322  0.0698
22521W        W35935   6.946   7.685   1.409 -0.0633  0.2668  0.1898
22522W        W35936   9.196  11.130   2.919 -0.3102  0.2610  0.0569
22523W        W35937   7.672   7.505   5.387 -0.2176 -0.0777  0.2103
22524W        W35938  15.471  12.587  15.433  0.1337  0.2343 -0.0300
22525W        W35939   2.882  10.551  15.678  0.0096 -0.0993 -0.0162
22526W        W35940  15.843  11.973  16.085 -0.1113 -0.0678  0.1349
22527W        W35941   9.546  13.884  14.010  0.0658 -0.2837  0.0513
22528W        W35942   9.156  10.192   3.019  0.0024 -0.0675  0.1910
22529W        W35943  12.625  18.104  15.941  0.1865 -0.0136 -0.1905
22530W        W35944   8.194   6.978  12.843  0.3685 -0.1292 -0.0500
22531W        W35945  11.941   8.022   1.074 -0.0777  0.1950  0.0307
22532W        W35946   3.472  17.298   3.517  0.0840  0.1055  0.0810
22533W        W35947   3.335  15.492  16.148  0.0069 -0.0808 -0.3199
22534W        W35948  11.898  13.475   2.745  0.1066 -0.2515 -0.1063
22535W        W35949   1.975   8.133   6.311 -0.2428  0.2938  0.0429
22536W        W35950   7.483  14.052  10.936 -0.0699 -0.2292  0.1505
22537W        W35951  16.218   1.272  12.802 -0.2578 -0.1423  0.1625
22538W        W35952   5.378   5.433  13.394 -0.0391 -0.0734 -0.0383
22539W        W35953  14.679   1.690  16.170 -0.0901 -0.2784  0.1090
22540W        W35954  18.360   3.411   4.977 -0.0495  0.1140  0.0700
22541W        W35955   4.738  14.725  11.442  0.2257  0.0787 -0.1938
22542W        W35956  10.599  17.998  13.636 -0.0149  0.3742  0.1453
22543W        W35957  10.060  17.179  12.868  0.3378 -0.2599  0.0328
22544W        W35958   3.098   3.343   2.388 -0.0163 -0.2156  0.1036
22545W        W35959   0.261   3.525  13.631 -0.0340 -0.0541  0.0283
22546W        W35960  12.983   3.954   1.999  0.1400  0.2897  0.1570
22547W        W35961   8.006   4.362   2.865  0.0619 -0.1874  0.3853
22548W        W35962  14.100  11.152   4.968  0.1273 -0.0803  0.0898
22549W        W35963   8.227   9.928  15.768 -0.0497 -0.0095 -0.2146
22550W        W35964  14.052   1.811  16.152  0.0082 -0.0997 -0.3190
22551W        W35965   0.524  13.985   5.854 -0.3659 -0.0250  0.2747
22552W        W35966   4.365  12.751   4.028  0.2323  0.2002 -0.3862
22553W        W35967   2.469   3.457  15.430 -0.1056  0.1872 -0.1567
22554W        W35968   3.636  17.281  13.704 -0.1678  0.0482 -0.0278
22555W        W35969   3.630   6.877   5.245 -0.0952  0.1213 -0.1218
22556W        W35970   2.830  13.238   2.944 -0.0727 -0.1212 -0.3630
22557W        W35971   5.367  16.059  12.550  0.4455  0.1444 -0.1424
22558W        W35972   5.506  14.135   0.405 -0.0705 -0.1641 -0.0086
22559W        W35973  17.104  14.017  16.454 -0.0344  0.1972  0.1314
22560W        W35974   0.052  11.071  13.624  0.1338  0.0773 -0.2276
22561W        W35975   9.723   5.180   6.305 -0.1765  0.0076 -0.1066
22562W        W35976  14.829  15.201   4.755 -0.0771 -0.0705  0.1284
22563W        W35977   2.082   9.009   2.126 -0.1983 -0.0815  0.0404
22564W        W35978   6.460  15.625  14.678 -0.1946  0.0382  0.1743
22565W        W35979  11.275   0.677  11.844 -0.1028  0.2877 -0.1750
22566W        W35980   1.397  16.271  13.151 -0.0377  0.1268  0.4228
22567W        W35981  10.551   3.326  15.360 -0.2271  0.0249  0.4585
22568W        W35982  16.640   7.129  10.657  0.1635  0.0308 -0.3538
22569W        W35983  11.326  15.699   4.482 -0.0263 -0.2494  0.3310
22570W        W35984   2.568  17.905   4.224 -0.1600  0.1325  0.0207
22571W        W35985   2.690   4.122  11.613  0.2626 -0.1502  0.1714
22572W        W35986  14.449  14.858   5.111  0.1072  0.3278 -0.3682
22573W        W35987   6.996  12.601   2.553 -0.1476 -0.3047 -0.0003
22574W        W35988   5.580  16.257   2.192 -0.0186  0.0245 -0.1457
22575W        W35989  13.965  15.359  15.102 -0.0970  0.0314 -0.0527
22576W        W35990   8.323  16.104  12.331  0.2802 -0.4181 -0.1123
22577W        W35991   1.085  10.898  12.279 -0.0157  0.0744  0.2092
22578W        W35992   2.359   7.704   3.271  0.3570 -0.0781 -0.0894
22579W        W35993  16.554   7.704  15.339  0.1752 -0.1196 -0.2534
22580W        W35994   2.905   8.100   3.124 -0.0113 -0.0796 -0.1177
22581W        W35995   5.554   8.664  12.892  0.1801  0.0042 -0.2811
22582W        W35996   4.259  16.205  14.658 -0.0634 -0.0161 -0.0201
22583W        W35997   7.772  14.676  16.133  0.1573  0.1285  0.2425
22584W        W35998   4.478  16.873   5.274 -0.2357 -0.2421  0.0367
22585W        W35999  13.970  11.430  14.806  0.1479 -0.2213  0.0937
22586W        W36000  13.591   0.231   4.745 -0.2276 -0.0715 -0.0725
22587W        W36001  12.035   2.994  12.939 -0.0498 -0.0090  0.0504
22588W        W36002   9.246   0.119   0.466 -0.0743 -0.0374  0.0204
22589W        W36003  10.624   8.681   5.320 -0.1955 -0.1240  0.1415
22590W        W36004   3.331  16.385   5.383  0.1536 -0.0116 -0.0742
22591W        W36005   7.916  11.434   4.695 -0.2084  0.1397 -0.2471
22592W        W36006  12.350   7.097   0.165 -0.1310  0.3114  0.0017
22593W        W36007   8.726   7.259   2.030 -0.0848  0.3805  0.1156
22594W        W36008  17.484   7.178  12.223 -0.0111 -0.0180  0.1607
22595W        W36009  16.203  15.049  16.463  0.2277 -0.0976  0.1196
22596W        W36010   6.276  14.697  12.686  0.1022 -0.0621  0.0561
22597W        W36011   4.853   1.893  15.375  0.3422  0.1629 -0.0578
22598W        W36012   4.236  10.487   3.914  0.1028  0.0342  0.2344
22599W        W36013  18.090   2.015   4.771  0.1707 -0.0424  0.2213
22600W        W36014   9.403  13.639   2.259  0.1101 -0.3119  0.3044
22601W        W36015   9.820   4.090  10.066 -0.3000 -0.2297  0.2333
22602W        W36016  13.466  12.405  10.534  0.1110 -0.1222  0.1554
22603W        W36017   2.449  18.361  12.889 -0.1367  0.3833  0.2908
22604W        W36018   5.217  11.591  13.168 -0.2739  0.3642  0.1881
22605W        W36019  16.098  14.856  12.428  0.2370  0.0944 -0.0517
22606W        W36020  18.136   2.436  14.172  0.2079 -0.1912 -0.5704
22607W        W36021   3.223   6.641   3.415 -0.1269  0.2297  0.1023
22608W        W36022  13.035   6.674  13.059 -0.1120 -0.1536 -0.1640
22609W        W36023   1.120  14.735  12.043  0.1576  0.1561  0.1546
22610W        W36024  18.120   9.548   5.290  0.0010 -0.0748 -0.2718
22611W        W36025   8.407  10.762  15.805  0.3449  0.4800  0.2226
22612W        W36026   9.938  12.885   2.812  0.0971 -0.0006  0.2797
22613W        W36027   3.673  12.705  14.077  0.4485 -0.2369 -0.2409
22614W        W36028   2.752   3.297  11.461  0.1768 -0.1097 -0.1526
22615W        W36029  14.387   6.282   0.347 -0.2052 -0.1838 -0.0010
22616W        W36030  17.289   6.874   5.457 -0.0807 -0.0402 -0.0319
22617W        W36031   9.600   0.484   3.322 -0.2703 -0.1054 -0.0226
22618W        W36032  10.753  18.200   2.455 -0.3052  0.0045  0.1077
22619W        W36033  11.260  12.717  14.562 -0.0879  0.1995 -0.1833
22620W        W36034  10.808  14.048  12.268  0.3575 -0.0261  0.3586
22621W        W36035  12.072  15.694  16.439 -0.2155  0.0683  0.0986
22622W        W36036  15.188  14.686  13.452 -0.0395 -0.0087  0.0811
22623W        W36037  11.219   7.393   0.749  0.0666 -0.0707  0.1159
22624W        W36038   8.762  10.883   1.039 -0.1193 -0.1416 -0.1883
22625W        W36039   6.513   7.509  10.798  0.0275 -0.1565  0.0589
22626W        W36040  17.222   3.901   2.763  0.0054 -0.0030 -0.0727
22627W        W36041  16.541  12.399   1.371 -0.2242 -0.0307 -0.0244
22628W        W36042   9.905   6.328  13.546  0.0717 -0.0343  0.0722
22629W        W36043   2.460   1.087   5.708  0.0260 -0.0424  0.2434
22630W        W36044   5.155  17.565   6.552  0.0442 -0.0049 -0.0660
22631W        W36045   5.885   7.077  10.684  0.1093 -0.0237  0.0020
22632W        W36046   3.897  12.115   4.552 -0.0880  0.0871  0.0808
22633W        W36047  15.271  18.038   3.781  0.1142  0.2316  0.1487
22634W        W36048   6.261   4.209   5.159  0.0099  0.2854 -0.1450
22635W        W36049   5.135  13.367   1.945 -0.1569  0.1477  0.2323
22636W        W36050   8.749   5.379   2.116  0.3293 -0.0289 -0.0875
22637W        W36051  12.377  16.635  14.709  0.0156 -0.0454 -0.5034
22638W        W36052  10.725  10.863  13.935 -0.3495 -0.0282  0.1621
22639W        W36053  17.388  17.108   0.996 -0.2865  0.0376  0.2941
22640W        W36054  13.108   6.104  11.112 -0.0946  0.1256  0.0361
22641W        W36055  12.531   7.165  11.814 -0.2807  0.1090  0.0214
22642W        W36056   1.926  16.234   1.195  0.0431 -0.2210  0.3048
22643W        W36057  12.017   9.417   2.681 -0.1884  0.0253 -0.0054
22644W        W36058  11.716   9.496  10.347  0.0199 -0.0936 -0.1573
22645W        W36059  18.278  12.886   4.193  0.0756 -0.2821  0.0429
22646W        W36060  17.634   8.972  12.541 -0.0307 -0.2214  0.0798
22647W        W36061  13.700  17.231   4.904 -0.4326 -0.0794  0.0637
22648W        W36062  11.346   6.146  13.062 -0.3435 -0.0633  0.0114
22649W        W36063   7.790   6.135  14.264  0.1671 -0.2179  0.0487
22650W        W36064  16.993  10.273  10.579 -0.0008 -0.0788 -0.3872
22651W        W36065  13.117   2.740   1.526  0.1948 -0.2130 -0.4489
22652W        W36066   7.127  11.595  10.818  0.0662 -0.1328  0.0897
22653W        W36067   2.102  17.137   0.249 -0.0719 -0.1200 -0.1130
22654W        W36068   1.330   4.069  16.178  0.0058 -0.0153 -0.0509
22655W        W36069  17.242  12.948  11.366  0.1767 -0.2292  0.1893
22656W        W36070  11.240  12.980  11.858 -0.2675  0.2880  0.1885
22657W        W36071   7.893  11.410   1.019 -0.0574 -0.2545  0.0970
22658W        W36072  13.573   4.446  13.017  0.2282  0.1140  0.3685
22659W        W36073  15.676  13.839  13.667 -0.1744 -0.0402 -0.0803
22660W        W36074   4.637  17.901  11.265 -0.3955 -0.3515  0.0326
22661W        W36075   0.089  10.695   2.314 -0.0955  0.0205  0.0841
22662W        W36076   6.539   5.577  10.353 -0.0095 -0.1062 -0.1334
22663W        W36077  16.945  12.232   3.115  0.3199 -0.3744 -0.0636
22664W        W36078  16.084   1.963  11.738 -0.1135 -0.2300 -0.0409
22665W        W36079  12.454  13.984  14.047  0.1310  0.0534  0.4636
22666W        W36080   0.755  13.734  12.863  0.1867 -0.0364  0.1400
22667W        W36081   1.803   7.139   5.544  0.2163 -0.0942  0.0889
22668W        W36082  15.305  15.770   4.190 -0.1551 -0.0825  0.2358
22669W        W36083   5.200  11.287   5.430 -0.0933 -0.0403 -0.2044
22670W        W36084  14.702  11.311  12.877 -0.1896  0.3539  0.2597
22671W        W36085  18.145  10.960   3.641 -0.0773  0.0785 -0.1058
22672W        W36086   9.917   5.284   1.106 -0.0448 -0.0363 -0.0724
22673W        W36087   8.258  16.654  11.408 -0.1481 -0.1900  0.3359
22674W        W36088   2.497  10.985  15.601 -0.2290  0.0425  0.1752
22675W        W36089  17.821  16.089   6.531 -0.0988  0.0872 -0.2159
22676W        W36090   5.750  13.928   2.238 -0.2088 -0.2309  0.2073
22677W        W36091  16.884  10.092  13.182 -0.4256  0.4212  0.5188
22678W        W36092  11.088   0.784   4.764  0.0256  0.0356 -0.0507
22679W        W36093  16.771  17.358   3.071 -0.0836  0.1767  0.0885
22680W        W36094   9.476   8.820  13.395 -0.3490 -0.1477 -0.2152
22681W        W36095  17.274   7.432   4.249 -0.2546 -0.0297 -0.1348
22682W        W36096   7.694   2.422   0.829 -0.2051  0.2334  0.2064
22683W        W36097  15.268  15.453   4.627  0.0394 -0.1135 -0.0664
22684W        W36098   9.129   7.016   6.057 -0.1051  0.2116 -0.1624
22685W        W36099   8.833  15.635  14.386  0.0928 -0.2353  0.0348
22686W        W36100  14.587   4.829  14.983  0.0259  0.0223 -0.1272
22687W        W36101   2.120   1.714  15.526 -0.0704  0.1201  0.1390
22688W        W36102  16.610   2.491  13.168 -0.1848 -0.1684  0.4540
22689W        W36103   1.927  16.188   0.009  0.0580  0.1391  0.1900
22690W        W36104  12.022  11.348  14.246  0.0566  0.3159 -0.3246
22691W        W36105   7.286   1.981   9.600 -0.0364  0.1403 -0.1308
22692W        W36106   3.990   4.851   5.292  0.2740 -0.4021  0.1685
22693W        W36107  12.094   4.942  15.951 -0.0808 -0.3559 -0.1878
22694W        W36108   1.622  14.890   0.436 -0.0944 -0.1181 -0.2362
22695W        W36109   6.218  17.824   4.265  0.1465 -0.1192  0.4335
22696W        W36110   1.530   2.725  12.454  0.1395 -0.0690 -0.3382
22697W        W36111  13.824   7.759   0.626 -0.1919  0.0391  0.4050
22698W        W36112  13.422  17.866  11.413  0.3372  0.3204  0.0488
22699W        W36113   6.660  17.827  12.148 -0.1429 -0.2818  0.0778
22700W        W36114   2.572   6.689   1.958 -0.1951 -0.2052  0.0293
22701W        W36115  14.541  13.724  15.775 -0.0456  0.0769  0.1279
22702W        W36116   6.823  14.123   0.241  0.0792  0.1659  0.0323
22703W        W36117  12.367   5.574   3.935 -0.1478 -0.2914  0.0748
22704W        W36118   9.458   9.138   4.941  0.0298 -0.0105  0.1884
22705W        W36119  10.717  16.378   1.598  0.4645 -0.2082 -0.1636
22706W        W36120   6.277  11.131   5.498  0.0761  0.1496 -0.0268
22707W        W36121   4.974   9.932  14.414  0.0149 -0.2703  0.0835
22708W        W36122  18.214   1.153   0.906  0.1704  0.2665  0.1128
22709W        W36123  11.524  10.103  14.298 -0.1095 -0.2312  0.1097
22710W        W36124  18.149  12.450   9.911 -0.1310  0.0384  0.1140
22711W        W36125  13.157  16.175  15.904  0.2983 -0.2386  0.5211
22712W        W36126  17.859   6.498   5.928  0.0081  0.1034 -0.0238
22713W        W36127   5.527  15.229  13.250 -0.1286  0.1658  0.1251
22714W        W36128  15.311   9.649  13.788 -0.0355 -0.1022  0.0395
22715W        W36129   4.428   1.559   5.514  0.0466  0.4248  0.0104
22716W        W36130   2.453   6.618  13.150  0.1312  0.1071 -0.2177
22717W        W36131   7.662   3.447   0.605 -0.0803 -0.2678 -0.1949
22718W        W36132  13.003  13.057   1.328 -0.2355  0.4270 -0.0880
22719W        W36133  13.387  14.769  13.733  0.1143 -0.0837  0.0072
22720W        W36134   4.981  11.005   4.950 -0.0833 -0.3313  0.0100
22721W        W36135   5.290   0.068  12.878  0.2002  0.1372 -0.1161
22722W        W36136   2.983   8.286  11.286  0.2684  0.1533 -0.3320
22723W        W36137  14.745   2.083   5.438 -0.1387 -0.3371 -0.2028
22724W        W36138   7.087   1.809   2.291  0.1607 -0.0480 -0.1488
22725W        W36139   9.724  17.555   0.901  0.0494  0.3098 -0.2459
22726W        W36140  17.820   7.069   1.191  0.1258 -0.2000  0.1658
22727W        W36141   2.793  10.370   2.159  0.0608  0.1341 -0.1058
22728W        W36142  15.537   9.915   4.108  0.0950  0.0605 -0.0361
22729W        W36143   8.686   7.547  10.711 -0.3139  0.2713  0.0729
22730W        W36144   1.782   1.882   4.639 -0.2817  0.2200 -0.0909
22731W        W36145  15.193  14.800   0.806  0.0843 -0.1023  0.1924
22732W        W36146   5.914  12.300   3.977 -0.0982  0.3340  0.2662
22733W        W36147   0.066  16.092   5.231 -0.0505  0.0447  0.1548
22734W        W36148   6.799  12.957   6.528  0.2750 -0.0117  0.1952
22735W        W36149  10.722   3.788  10.147 -0.0401 -0.0154 -0.1778
22736W        W36150   9.617   9.725  15.189 -0.0679 -0.1177 -0.0926
22737W        W36151  12.245  16.231  12.159  0.0901 -0.0571 -0.0845
22738W        W36152   0.367  11.030   4.635  0.0973 -0.1682 -0.1397
22739W        W36153   8.413   5.963   1.288 -0.1023  0.0481 -0.0787
22740W        W36154   4.735   7.615  11.105  0.0834  0.2111  0.3126
22741W        W36155  14.948   1.163  14.353 -0.0495 -0.2495 -0.0020
22742W        W36156   4.535  17.269  14.172 -0.0388 -0.0108 -0.0257
22743W        W36157   9.561   0.503   0.506 -0.3673 -0.2664  0.0025
22744W        W36158   0.139   1.594  12.752 -0.1630  0.0396 -0.3554
22745W        W36159   3.311  10.537  12.614  0.1394 -0.0269  0.0532
22746W        W36160   2.936  17.697   6.428 -0.0816  0.3173 -0.0371
22747W        W36161   3.817  17.369  11.362 -0.0652 -0.0697 -0.0361
22748W        W36162   0.874  17.074  16.337  0.0768 -0.3488  0.0673
22749W        W36163  10.495   7.103   3.230  0.1474  0.0210 -0.0528
22750W        W36164  13.111   5.195  13.423 -0.0514  0.1352  0.4139
22751W        W36165   8.584   7.132  15.647 -0.1309  0.2607 -0.2644
22752W        W36166   5.516  15.874   0.997  0.1746 -0.2017  0.1863
22753W        W36167   0.377   5.713   2.764  0.0135 -0.2406  0.1661
22754W        W36168  10.613  10.498  11.456  0.1310 -0.0046 -0.0653
22755W        W36169   9.337   2.910  10.928 -0.3808  0.0584 -0.1652
22756W        W36170   5.156   6.194  12.498  0.0127 -0.0448 -0.1882
22757W        W36171   0.813   7.558   5.574 -0.0424 -0.2804  0.0674
22758W        W36172   2.123  17.532  14.730 -0.2502 -0.3549  0.1172
22759W        W36173  17.015   2.860  16.075 -0.0164  0.1951 -0.2453
22760W        W36174   9.408  14.333  14.242 -0.1421 -0.0442 -0.2004
22761W        W36175   2.389   4.271   3.618 -0.0140 -0.0950 -0.0724
22762W        W36176  11.660  12.015   3.291  0.1114 -0.3073 -0.0167
22763W        W36177   5.532  10.890  12.351  0.0119  0.0977  0.1912
22764W        W36178  15.693   1.514  10.859 -0.0720 -0.1319  0.0779
22765W        W36179  16.643   8.601  15.266  0.1430  0.2620  0.0876
22766W        W36180   3.176   8.265   2.021 -0.2190 -0.0790  0.0405
22767W        W36181  11.862  15.519  13.156 -0.1079  0.1483  0.3274
22768W        W36182   5.576   1.928  12.859  0.1554 -0.4804  0.0045
22769W        W36183  12.963  15.080  15.341  0.3177  0.0309 -0.1092
22770W        W36184  15.973  10.935  11.166 -0.1462 -0.1598  0.0562
22771W        W36185   9.632   5.579  13.990 -0.0641  0.1933  0.0152
22772W        W36186   6.078  12.909  14.757  0.3279  0.1221 -0.2851
22773W        W36187   5.228   1.007  15.645  0.0262 -0.0069  0.0911
22774W        W36188   7.505  12.169  15.114  0.2062 -0.1386  0.3081
22775W        W36189  11.059   0.121   0.333  0.1233 -0.0067 -0.0917
22776W        W36190   6.316  13.417   5.503 -0.0333  0.0756 -0.1225
22777W        W36191   5.065   8.496  15.040 -0.0614  0.0749  0.1553
22778W        W36192  13.563   8.930  12.626  0.2884  0.1228 -0.1952
22779W        W36193  16.413   3.485   1.630  0.2071 -0.0049  0.3043
22780W        W36194   7.935  15.929   0.281 -0.0674 -0.0285  0.1615
22781W        W36195   8.450  10.942  10.295  0.0506 -0.4723  0.2578
22782W        W36196   2.182   4.387  11.669 -0.1581  0.1823  0.0973
22783W        W36197   9.265  16.002  12.569  0.0943  0.1027 -0.4324
22784W        W36198  15.038  15.690   3.016 -0.2313  0.1665  0.0178
22785W        W36199  15.990   9.514  13.097 -0.2636  0.2522 -0.2425
22786W        W36200  14.283   1.922  13.878 -0.0757  0.2803  0.0016
22787W        W36201   4.884  17.946  14.400  0.1898  0.1078  0.0290
22788W        W36202  15.901  11.760  11.712 -0.0747 -0.1711  0.0085
22789W        W36203   4.869   9.964  13.093 -0.2253  0.1511 -0.0309
22790W        W36204   7.871  10.117  10.661 -0.2148 -0.0293 -0.4231
22791W        W36205  12.424  10.089  15.408  0.1676  0.1303 -0.1344
22792W        W36206   1.787   1.055   1.076  0.0517  0.0493 -0.0249
22793W        W36207   7.999  13.779   2.478 -0.1275  0.0136  0.1801
22794W        W36208  15.108  16.214   0.082  0.0178  0.0581  0.0860
22795W        W36209   4.040  17.548   4.390  0.0206 -0.1938  0.0582
22796W        W36210  17.304  15.626  12.180 -0.1870  0.2452  0.1536
22797W        W36211  13.205   3.333  14.762  0.0675 -0.0924  0.4609
22798W        W36212   3.740  15.079  16.317  0.1345 -0.3123 -0.2769
22799W        W36213   7.554   2.993  11.062  0.3345 -0.2348  0.1168
22800W        W36214   0.517  11.972   2.796  0.4470 -0.0526 -0.2896
22801W        W36215   8.675  18.266  15.014  0.0186  0.3108 -0.0236
22802W        W36216   4.961   8.049  13.335  0.0217  0.1709 -0.0204
22803W        W36217   5.925  15.150   5.782  0.1980  0.0531 -0.3146
22804W        W36218  17.266   8.452   0.991  0.0137 -0.0652  0.0643
22805W        W36219  10.439   8.342  15.987  0.1546 -0.1695  0.0376
22806W        W36220  14.107  17.149   1.200 -0.0689 -0.2466  0.2872
22807W        W36221   6.251  11.595   5.315 -0.2105  0.1725 -0.3634
22808W        W36222   7.832   0.665  16.206 -0.2659  0.0222 -0.0984
22809W        W36223   6.266  12.346  11.793 -0.1788  0.0332  0.2061
22810W        W36224   9.887  10.891  10.741  0.1056  0.1191 -0.0173
22811W        W36225   4.399  15.555  13.407 -0.1218 -0.0423  0.0052
22812W        W36226   7.499  15.591   1.357  0.0847 -0.0364  0.1804
22813W        W36227   3.554   2.827  11.644 -0.1205  0.1500 -0.2188
22814W        W36228   9.593   3.242  11.815 -0.0301 -0.0780  0.3656
22815W        W36229  10.212  17.589  10.981  0.0362  0.2980 -0.3459
22816W        W36230   5.843   0.561   2.349  0.2266  0.0706 -0.1152
22817W        W36231  10.569  11.377  15.450  0.2311  0.0062  0.2073
22818W        W36232   9.888  15.933   5.047 -0.3039  0.1092 -0.2060
22819W        W36233   0.384  16.568   5.709  0.4329 -0.1751 -0.1014
22820W        W36234   8.624   1.830  11.931  0.1763 -0.2326 -0.2300
22821W        W36235  17.906  13.078  12.645  0.2227  0.2715 -0.2795
22822W        W36236   9.380   2.029  14.575 -0.1116 -0.0017 -0.3363
22823W        W36237  15.880  12.317   2.058  0.2031  0.1431 -0.0082
22824W        W36238  11.038   9.929  15.012 -0.1938  0.0198  0.0202
22825W        W36239   3.936   4.863   3.352 -0.0579 -0.2504 -0.0816
22826W        W36240   4.510   5.378  14.997 -0.2584 -0.0105 -0.0615
22827W        W36241   2.234  18.008  14.050 -0.0852 -0.0352  0.0423
22828W        W36242  15.317  11.725   6.075  0.0332  0.5171  0.0384
22829W        W36243   4.375   9.193   3.257  0.1686  0.4979 -0.0138
22830W        W36244   3.002  11.614   4.596  0.0831  0.0554  0.1045
22831W        W36245  12.823  16.822   4.103  0.0761  0.0839  0.1299
22832W        W36246  14.875  17.216  12.550 -0.0880  0.1769 -0.0616
22833W        W36247   9.918  14.904   1.920 -0.2479  0.2235 -0.0272
22834W        W36248   5.787  14.720  11.853  0.3117 -0.0261  0.1600
22835W        W36249  15.793  13.483   3.660 -0.0404  0.2733  0.0423
22836W        W36250   7.098  16.891   0.379 -0.2358  0.0168  0.5220
22837W        W36251  16.394  12.259  12.259  0.0134 -0.0935 -0.0409
22838W        W36252   7.532  13.731  11.624 -0.0875  0.4322  0.0938
22839W        W36253  16.725   8.097   2.916 -0.2465  0.0656 -0.1026
22840W        W36254  16.007   4.384   5.491  0.0880  0.0683  0.1706
22841W        W36255  16.988  18.144   5.752  0.0282 -0.0449  0.0671
22842W        W36256  14.227   3.434  15.542 -0.0808  0.3481  0.0800
22843W        W36257  16.054   1.212  14.565 -0.0147  0.0106 -0.1992
22844W        W36258   7.153   5.906  15.413 -0.1215 -0.1805 -0.2207
22845W        W36259   7.825  14.187  15.130  0.0730 -0.0055 -0.0457
22846W        W36260   9.201  17.094  14.890  0.2407  0.2416 -0.0116
22847W        W36261   2.145   1.542  10.797 -0.0543 -0.0758  0.0211
22848W        W36262   2.214  13.469  10.795  0.4016  0.0895  0.1067
22849W        W36263  11.160   7.707  14.421  0.2098  0.1789  0.1142
22850W        W36264   3.927   6.685   4.921  0.2751  0.0383  0.0446
22851W        W36265   5.555  14.985   1.468 -0.0951 -0.2461  0.1653
22852W        W36266   5.438   3.018   3.932  0.2161  0.2848  0.0631
22853W        W36267   6.744   5.999   5.086  0.1178 -0.0755 -0.1930
22854W        W36268  11.776  16.498  12.129 -0.0664  0.1561  0.2609
22855W        W36269   2.917   5.936  13.667  0.0126 -0.1514  0.0177
22856W        W36270   6.206  17.744   0.214  0.2774 -0.0321  0.2292
22857W        W36271  11.900   5.067   4.768 -0.0065 -0.0463  0.0144
22858W        W36272  17.293   5.781   1.640  0.0586 -0.3136 -0.2327
22859W        W36273  15.803  15.946   2.431 -0.2253 -0.0735 -0.3839
22860W        W36274   0.357   5.861  14.147  0.0038 -0.1925 -0.0329
22861W        W36275   8.741  16.560   4.520  0.0488 -0.2115  0.3133
22862W        W36276  12.808  17.539   1.591 -0.0477 -0.1627  0.1523
22863W        W36277  15.090   1.351  12.376  0.2002 -0.1409  0.1249
22864W        W36278  11.750   1.645  14.080 -0.1835 -0.0616 -0.0334
22865W        W36279   5.733  13.657  15.351 -0.0931 -0.1014 -0.1265
22866W        W36280   7.973   7.112   5.585  0.0942 -0.2471  0.2993
22867W        W36281   4.308  12.799  11.659 -0.2879 -0.0554 -0.0255
22868W        W36282  11.276  16.639  11.967  0.0465 -0.3138  0.1423
22869W        W36283  15.012  16.293   5.585  0.0297  0.0732  0.3179
22870W        W36284   0.982   0.908  13.954 -0.0845 -0.4129  0.0188
22871W        W36285  17.460  13.782   0.231 -0.2453  0.1135  0.3296
22872W        W36286  16.619  14.982   2.680 -0.2658  0.0303 -0.1323
22873W        W36287  17.691   8.816   1.759  0.0657  0.0182 -0.1155
22874W        W36288   4.679  17.441  13.608 -0.2218 -0.1323  0.0657
22875W        W36289  10.112  11.207  14.567 -0.1167 -0.1496  0.6215
22876W        W36290   0.102   8.737   3.685  0.0353 -0.4053 -0.2452
22877W        W36291   9.021  11.001  13.656 -0.0013 -0.0595  0.1221
22878W        W36292   2.459   7.869   1.125 -0.1755 -0.1151  0.2057
22879W        W36293  11.049  17.404   4.655  0.0904 -0.3105 -0.3487
22880W        W36294   8.637   4.015  10.371 -0.3625  0.0631  0.0748
22881W        W36295   0.496  15.083  13.106  0.1378  0.1129 -0.1763
22882W        W36296  18.172   0.904   5.700  0.1029  0.2113  0.2081
22883W        W36297  10.418  17.650  15.401  0.0938  0.2742  0.2021
22884W        W36298  12.243  12.417   0.476  0.0276 -0.0359  0.1985
22885W        W36299   9.097   2.285   2.770  0.1044  0.1866  0.0709
22886W        W36300  11.956  17.689   2.300  0.2245  0.0399  0.1516
22887W        W36301  15.953   1.693   3.357  0.1284 -0.0943 -0.2696
22888W        W36302   4.742   4.774  13.767  0.0080 -0.3138 -0.1059
22889W        W36303   8.717  17.763   1.594  0.3929 -0.0910 -0.1587
22890W        W36304  18.263   8.727  15.588 -0.1500 -0.0406  0.2475
22891W        W36305   5.087   4.175   1.170  0.0127 -0.0394  0.1665
22892W        W36306   7.983   1.810  15.745  0.1078  0.1689  0.0057
22893W        W36307  17.225  15.697   5.909 -0.2490  0.2433  0.2872
22894W        W36308  17.968   5.431   3.029 -0.2515 -0.2736 -0.0623
22895W        W36309   2.822  11.981   4.897  0.1928 -0.1773  0.2329
22896W        W36310   4.757   6.607   3.235  0.4176 -0.1862  0.1985
22897W        W36311   7.849  13.516   4.471  0.0301  0.1286  0.3737
22898W        W36312  17.334   2.989   3.179 -0.2419  0.2663 -0.0234
22899W        W36313   8.305   5.534   4.766 -0.0704 -0.0108 -0.2105
22900W        W36314   7.253  17.755   2.735 -0.1746  0.1085  0.2377
22901W        W36315   4.778   4.136  13.503  0.0696 -0.0781  0.1053
22902W        W36316   1.177  17.504   3.393 -0.2746 -0.2853 -0.0446
22903W        W36317   7.387   3.710  16.087  0.2680  0.3443  0.1432
22904W        W36318  13.710  10.940  13.063  0.2865  0.1916 -0.0895
22905W        W36319  17.915  13.148   3.932  0.2573  0.2780 -0.1183
22906W        W36320   9.927   2.286  13.487 -0.4963  0.2518 -0.0374
22907W        W36321  18.092   9.760   0.365 -0.2530 -0.0035  0.0257
22908W        W36322   6.468   0.249   3.427  0.0976  0.0713 -0.0170
22909W        W36323  10.383  16.207   4.727  0.1343  0.0989  0.2024
22910W        W36324  13.950  15.606   2.016  0.1031 -0.2101 -0.1957
22911W        W36325  17.401   6.553   9.907 -0.2062  0.2420 -0.0950
22912W        W36326   2.199   5.429  13.724 -0.3924  0.0176  0.1185
22913W        W36327  17.165  10.272   2.325 -0.0774 -0.0582  0.3510
22914W        W36328   4.481   6.037   0.681  0.0102 -0.1163 -0.1102
22915W        W36329  10.507  16.245   4.246  0.1036 -0.1775 -0.1763
22916W        W36330  17.972   3.549  13.787  0.3655 -0.4381  0.0984
22917W        W36331   0.488   6.182  12.407  0.0381 -0.0176 -0.0883
22918W        W36332  14.884   8.311  15.545 -0.0988 -0.1504 -0.2108
22919W        W36333   5.328  16.261  10.730 -0.0110  0.0294  0.2927
22920W        W36334   7.712  16.578  11.466  0.1486  0.2381  0.1286
22921W        W36335  10.556  17.211  16.113  0.2607 -0.0412  0.0092
22922W        W36336   1.221   5.156  10.419 -0.1525 -0.1166  0.1791
22923W        W36337  11.755   0.542   0.703 -0.1085  0.0411  0.0416
22924W        W36338   0.306   4.093  13.607  0.0329 -0.0100 -0.3127
22925W        W36339  14.716   7.326   2.669  0.1030  0.1845  0.0341
22926W        W36340   6.072   8.186  15.292  0.1733  0.3339  0.0120
22927W        W36341  13.783  18.217   3.366 -0.0676  0.1655  0.1180
22928W        W36342  14.644  13.101  11.647  0.3016  0.0180 -0.2115
22929W        W36343   4.588  11.088  12.528  0.1713  0.2118  0.2024
22930W        W36344   0.030   3.978   0.954 -0.0148 -0.0351  0.3049
22931W        W36345  16.143  15.679   2.696  0.0398 -0.1085  0.1986
22932W        W36346   8.250   3.996  16.020  0.0017 -0.0729 -0.0877
22933W        W36347   4.961  16.569   3.907  0.0697 -0.0169 -0.3492
22934W        W36348   2.268  11.897   4.008  0.1944  0.0440  0.1064
22935W        W36349  14.120  13.838  12.415 -0.1161  0.0020  0.1729
22936W        W36350   9.775  10.955   6.161 -0.0410 -0.1745  0.4322
22937W        W36351   6.215  15.205  14.821 -0.3806  0.0150  0.0090
22938W        W36352  13.263  15.518  11.777 -0.1095  0.0861  0.2188
22939W        W36353  15.136  11.026  12.027  0.3754  0.0922  0.1748
22940W        W36354  13.277   0.454   1.476 -0.1273 -0.1538  0.1677
22941W        W36355  14.289  13.970  15.146  0.1696  0.1654 -0.0785
22942W        W36356  14.357  17.695   5.538 -0.1731 -0.3447 -0.4118
22943W        W36357  17.371   7.267   1.360  0.1410 -0.1586 -0.1204
22944W        W36358  15.055  11.793  11.730 -0.0191  0.0258 -0.2129
22945W        W36359  16.049   5.536  12.971 -0.3472 -0.0114  0.1551
22946W        W36360  11.414   1.752  11.078 -0.3036  0.0968  0.0857
22947W        W36361  14.208  17.087   4.913  0.0371  0.0435 -0.1695
22948W        W36362   1.552  16.457  10.780  0.1374 -0.2933 -0.2982
22949W        W36363   0.121  18.372  16.281 -0.3729 -0.2006  0.1837
22950W        W36364   7.579   1.595  13.411  0.0406 -0.0205  0.2510
22951W        W36365   5.566   4.933   5.282  0.0378  0.0597 -0.0197
22952W        W36366  10.627   6.845  13.862  0.0982 -0.0730 -0.0005
22953W        W36367  14.562   1.579   4.807  0.3685 -0.2056 -0.4796
22954W        W36368   0.844   6.596   3.708  0.0626  0.1728  0.1787
22955W        W36369   2.281  17.947  11.277  0.1364 -0.2168  0.1633
22956W        W36370   8.370  15.664  15.328  0.0908  0.1963 -0.0212
22957W        W36371  16.395   5.164  10.779  0.2584  0.1949  0.0413
22958W        W36372   6.414  18.011   1.336 -0.0245 -0.1638  0.1477
22959W        W36373   9.223   2.659   4.668  0.1122 -0.3025  0.1167
22960W        W36374  14.712   6.145  14.276 -0.1036  0.0884  0.3107
22961W        W36375  16.337  16.382  11.314 -0.0877  0.1523  0.0485
22962W        W36376  15.752   6.724   2.521 -0.1728 -0.1922 -0.0244
22963W        W36377  15.860   9.269  10.638  0.0188 -0.0274 -0.0011
22964W        W36378   9.565  12.213  16.457 -0.0008 -0.0222  0.2493
22965W        W36379   3.661  11.164   1.661 -0.2529  0.0708  0.3682
22966W        W36380  15.992   4.975  15.134 -0.1133 -0.1105  0.0541
22967W        W36381  11.964   6.890   2.769 -0.1325 -0.1230  0.0592
22968W        W36382   6.635  15.087   1.225 -0.1532 -0.2004  0.1990
22969W        W36383   6.646   1.250   1.534 -0.1467  0.2550  0.1321
22970W        W36384  13.108   3.769  10.644  0.2619 -0.1724  0.0833
22971W        W36385  15.250  11.072  13.717 -0.2782 -0.2260  0.1535
22972W        W36386  17.855  11.879  14.394  0.1197 -0.0131 -0.0529
22973W        W36387  10.758  12.814  13.144  0.3452 -0.2116 -0.1979
22974W        W36388  17.593  15.002  12.902 -0.2554  0.0822 -0.0931
22975W        W36389   8.366  15.120  11.818  0.0842  0.3375  0.1753
22976W        W36390  10.306   6.411  10.641  0.3884  0.1542 -0.1952
22977W        W36391  14.258  15.394  10.766 -0.1762 -0.1212 -0.1574
22978W        W36392  15.680   4.502  14.468  0.1814 -0.0792 -0.2658
22979W        W36393  16.332  15.789   6.644  0.2440  0.1382  0.2462
22980W        W36394  15.206   2.925   4.147  0.3554 -0.1168  0.1538
22981W        W36395   7.913   3.744  16.347  0.1595  0.1696  0.2448
22982W        W36396  12.480  14.924  16.079 -0.1584 -0.1353  0.0362
22983W        W36397   6.687   0.653  13.322  0.0569 -0.1112  0.2410
22984W        W36398   4.983  10.260  16.458 -0.2749  0.2717  0.2881
22985W        W36399   9.113   5.255   1.278 -0.1628  0.0428 -0.1088
22986W        W36400  18.110  13.880   5.310  0.0567  0.1300 -0.3158
22987W        W36401  10.625   2.049  16.097 -0.2414  0.2249  0.0471
22988W        W36402   4.812   0.581  14.748  0.1718 -0.2029 -0.0491
22989W        W36403   1.230   8.495  15.091  0.2721 -0.0712 -0.1243
22990W        W36404  13.940  15.823  12.311  0.0098 -0.1306 -0.1444
22991W        W36405  16.505  11.782   3.480  0.0944  0.2821  0.0683
22992W        W36406   4.356   4.973  11.323  0.0725 -0.1675 -0.0249
22993W        W36407  15.293  17.222   5.998  0.2792  0.0505 -0.0966
22994W        W36408   5.227  15.075   5.255  0.1562  0.0055  0.1490
22995W        W36409  11.425  10.031   2.800  0.0050  0.1270  0.2737
22996W        W36410   9.087  14.706  13.724 -0.0076  0.0793 -0.1470
22997W        W36411   8.623   8.505  11.294  0.3750  0.3600  0.3169
22998W        W36412   2.636   4.805  14.311 -0.2378  0.0396 -0.0670
22999W        W36413   1.530  13.241   0.294 -0.1523  0.3422  0.0830
23000W        W36414   8.178   7.359  11.846  0.0067 -0.1168 -0.2407
23001W        W36415   1.667   5.799   0.877  0.0952  0.1574  0.0060
23002W        W36416  14.179   8.823   4.408 -0.0772  0.0192  0.1815
23003W        W36417  16.722  10.540   2.971  0.2849 -0.0431  0.2200
23004W        W36418   1.960   2.952   6.093 -0.2856 -0.3153  0.1420
23005W        W36419   2.602  14.133  14.383  0.3237 -0.0221 -0.0241
23006W        W36420  17.900  17.831   6.036 -0.1996  0.0880  0.2281
23007W        W36421   4.454   5.706  12.459 -0.3345 -0.0968  0.0864
23008W        W36422   4.251   2.995  13.511 -0.1128  0.1941  0.2423
23009W        W36423   5.991   9.058   5.019  0.0938 -0.3395  0.0012
23010W        W36424  13.122   4.542  10.059  0.0307 -0.2234 -0.3504
23011W        W36425   2.821   1.722  16.401 -0.0320  0.3523  0.2269
23012W        W36426  17.598   6.153  10.974  0.0952 -0.0279 -0.1084
23013W        W36427   8.410   0.294  14.152 -0.1477  0.0864 -0.0288
23014W        W36428  16.776  13.665  13.933  0.0059 -0.1002  0.3328
23015W        W36429   9.565  10.324   1.221  0.2091  0.1088 -0.2229
23016W        W36430  11.164  12.317   1.963 -0.1051  0.0139  0.3201
23017W        W36431  17.597   4.820   1.900 -0.0490  0.1314 -0.1862
23018W        W36432  15.478  10.165  11.725  0.3754  0.0913  0.0784
23019W        W36433  12.459  13.037  12.563 -0.1070 -0.3229  0.2958
23020W        W36434  10.596  10.959   4.087  0.0415 -0.3855  0.0628
23021W        W36435  15.598  17.703  12.894 -0.1901 -0.1959  0.3121
23022W        W36436   2.016  14.610   0.436  0.2190 -0.1419 -0.0346
23023W        W36437  10.339  10.527   0.077  0.0403  0.0641 -0.2809
23024W        W36438  12.484   9.162  10.322 -0.1099  0.2970  0.2076
23025W        W36439   4.529   5.245  13.789  0.0768 -0.0960  0.0840
23026W        W36440  11.898   2.835   3.266 -0.3364 -0.2685  0.1864
23027W        W36441   0.694   5.200  15.324 -0.0046 -0.4923 -0.0231
23028W        W36442   7.734  14.338   1.350  0.2522 -0.3334  0.0432
23029W        W36443   0.363   7.027   3.504  0.1803 -0.1051  0.2051
23030W        W36444   3.062   1.807   4.288  0.2892  0.0050  0.0674
23031W        W36445   4.674   0.294   4.769  0.2254  0.1021  0.2649
23032W        W36446   8.328  15.152   5.762 -0.2682  0.1387  0.0348
23033W        W36447   4.286  15.909  15.444  0.0295  0.0615 -0.4061
23034W        W36448   8.564  12.892   0.481 -0.2405  0.0080  0.1854
23035W        W36449  17.475   4.900  16.252  0.0413  0.0576  0.1073
23036W        W36450  12.991  10.083   4.107 -0.0027 -0.1377  0.1985
23037W        W36451   9.462   8.051   5.041 -0.3110  0.4076 -0.1861
23038W        W36452  11.127   9.772  13.973 -0.0640  0.0967  0.0973
23039W        W36453   3.012   2.586  12.518 -0.1733  0.3005  0.0220
23040W        W36454   9.129   0.445  14.854  0.0810 -0.3284  0.1618
23041W        W36455  13.868  14.723   3.969  0.2096  0.0595  0.0468
23042W        W36456   5.220  12.415  11.417 -0.1279  0.0940 -0.2334
23043W        W36457  12.020   5.082   5.293  0.0214 -0.3528 -0.3528
23044W        W36458  14.160   9.235   3.526 -0.3165 -0.0274 -0.0550
23045W        W36459   2.744   4.575   3.942  0.1488  0.2357  0.3578
23046W        W36460   8.413  18.244   0.854 -0.0661 -0.0013 -0.1116
23047W        W36461  14.946  11.397   0.968  0.2778 -0.0493 -0.0061
23048W        W36462   4.050   3.368   1.870  0.1821 -0.1393 -0.3324
23049W        W36463   6.351   9.923   0.412  0.0908 -0.1324 -0.0006
23050W        W36464  12.516  15.359   1.997 -0.0358 -0.0405 -0.2661
23051W        W36465   8.429   4.326   0.896 -0.1329 -0.2077  0.1314
23052W        W36466   9.093  17.157   4.406 -0.0043 -0.2935 -0.2635
23053W        W36467  16.515   5.788   2.077  0.1007  0.1766  0.0766
23054W        W36468   6.177   0.380  10.645  0.0756 -0.0572  0.2213
23055W        W36469  12.629   0.895  13.621 -0.1601  0.2937  0.0175
23056W        W36470  16.445   7.649  12.749 -0.2495 -0.0714 -0.3454
23057W        W36471  12.144  18.077  13.743  0.0644 -0.0061  0.1329
23058W        W36472  16.583   4.303   2.526  0.1618 -0.2441  0.1697
23059W        W36473  10.718  17.105   3.137 -0.0167  0.2233 -0.1836
23060W        W36474  13.546  12.007   4.973  0.0447  0.0997 -0.2551
23061W        W36475  17.104  12.104   2.655 -0.0513 -0.1744  0.3954
23062W        W36476  11.289   5.785  12.635  0.1240 -0.0376  0.0575
23063W        W36477   9.737   2.198  13.004 -0.0146 -0.1695  0.0065
23064W        W36478   4.432   9.357   5.525  0.2328  0.1096 -0.0364
23065W        W36479  10.950   6.117   2.000  0.2671 -0.1378 -0.2927
23066W        W36480   5.951  15.447   6.205  0.1061  0.2500  0.2720
23067W        W36481  16.213  14.066  16.281 -0.2529  0.0502  0.0857
23068W        W36482  15.610  14.094  10.827  0.1416 -0.1169  0.0482
23069W        W36483  13.853  10.501   0.981  0.1293 -0.1069 -0.1912
23070W        W36484   3.278   9.113  13.611  0.2058 -0.3081 -0.3678
23071W        W36485   0.877   6.729   2.489 -0.0810  0.1656 -0.1050
23072W        W36486   2.156   3.118  12.912  0.2338  0.2040  0.0260
23073W        W36487  12.297  13.173   2.576  0.3338 -0.3546 -0.2113
23074W        W36488  10.109  17.755   4.539  0.0650  0.1556  0.1398
23075W        W36489   1.622   9.481  12.768  0.1899  0.0089 -0.1458
23076W        W36490   4.748   2.614  10.455  0.0716 -0.0085  0.0580
23077W        W36491  12.831   2.493   2.017  0.0938  0.2312 -0.2496
23078W        W36492   2.751  13.763  11.329  0.3073  0.0357 -0.1727
23079W        W36493  11.622   3.100  16.270  0.0554  0.0594 -0.2158
23080W        W36494   6.837   3.995   9.762  0.2609 -0.1285  0.0724
23081W        W36495   4.167  15.123  12.625  0.1527  0.0122 -0.2344
23082W        W36496   5.136   2.330  15.511 -0.0477  0.0189  0.2805
23083W        W36497  17.166  14.605   6.472 -0.2040 -0.0490  0.1526
23084W        W36498  12.217  16.630  15.730 -0.2190 -0.1853 -0.1138
23085W        W36499   8.969   0.007   5.076 -0.2773 -0.0872  0.2062
23086W        W36500  13.753   4.139   5.156 -0.0544 -0.1417  0.0822
23087W        W36501  12.834  12.767  11.337 -0.0550  0.0555 -0.2107
23088W        W36502   3.849   9.904  15.142  0.3847  0.0764  0.4208
23089W        W36503  16.857   6.955   2.414 -0.0108  0.0969 -0.0057
23090W        W36504   3.264   6.132   4.756 -0.3700 -0.3915 -0.0600
23091W        W36505   3.061   4.516   0.984 -0.1275 -0.3459  0.0308
23092W        W36506   9.124   1.653   5.566  0.3126 -0.0884 -0.1380
23093W        W36507   7.792  17.544  14.108 -0.2035  0.1233 -0.2548
23094W        W36508   0.134   0.963  15.191  0.2068  0.2573 -0.0674
23095W        W36509   4.892  10.814   5.393  0.2500 -0.1046  0.1870
23096W        W36510   4.384  17.923  14.599  0.0014  0.5130  0.1526
23097W        W36511  12.623  10.320   4.402 -0.2508  0.2110 -0.0356
23098W        W36512   6.522   2.135   0.870  0.0679 -0.3534  0.2761
23099W        W36513  15.989   7.680  12.526  0.1700  0.0730  0.1952
23100W        W36514   5.753   9.226  11.674 -0.0522  0.2396  0.2851
23101W        W36515   2.862   1.607  13.585 -0.1235 -0.2646 -0.2888
23102W        W36516   1.383  17.764   3.036 -0.0111 -0.3034 -0.1714
23103W        W36517  10.101   3.911   1.160  0.3284  0.2579 -0.0656
23104W        W36518  17.781   3.372  16.492 -0.1131 -0.0207  0.1775
23105W        W36519  17.902   9.001   5.880  0.1787  0.2692  0.2696
23106W        W36520  15.142   8.873   0.505 -0.2149 -0.1730 -0.2141
23107W        W36521  13.310   9.588  11.458  0.2719  0.0264  0.2257
23108W        W36522   3.717   1.948  13.823  0.0165 -0.3514 -0.2108
23109W        W36523   4.703  12.695   5.552  0.2423 -0.0878  0.1368
23110W        W36524  15.345   9.237   9.411  0.3547 -0.0612  0.2320
23111W        W36525   7.008   0.762  14.152 -0.1802 -0.0028  0.2890
23112W        W36526   0.344   2.268   3.662 -0.0820 -0.0106 -0.3276
23113W        W36527  14.267  13.148   2.481  0.1538  0.0165 -0.2480
23114W        W36528  17.225  18.136   0.516  0.2142 -0.1026  0.1692
23115W        W36529  15.243   2.510   0.137  0.2327 -0.0739 -0.0453
23116W        W36530  17.566  15.608  13.804 -0.0573 -0.2017  0.0392
23117W        W36531   4.069   0.444  13.867 -0.1555  0.4436 -0.0305
23118W        W36532  18.306  13.863  13.052  0.0511  0.1467 -0.3223
23119W        W36533  14.753   6.800   4.493  0.3560 -0.0611 -0.0847
23120W        W36534   5.823   6.537  14.848 -0.3607  0.1320 -0.2711
23121W        W36535  15.007  11.093   2.484  0.2405  0.0161  0.0154
23122W        W36536  13.070   7.182  15.913  0.2960  0.0801  0.2537
23123W        W36537  12.203   7.306   9.910  0.2791  0.2732 -0.1676
23124W        W36538  15.829   0.008   5.202  0.1694 -0.2281  0.0345
23125W        W36539   1.371   2.657  15.115  0.0870  0.1433 -0.1189
23126W        W36540   1.049   7.118  11.915  0.0602 -0.2006  0.0583
23127W        W36541   1.735  14.407   2.427  0.3937 -0.0426  0.0561
23128W        W36542   7.083   5.428  11.594  0.4437 -0.0727  0.0571
23129W        W36543   9.806  13.186   1.487  0.1295 -0.4252  0.2500
23130W        W36544  12.643  13.243  15.258 -0.1827 -0.0100 -0.2469
23131W        W36545   4.411  13.938   1.405  0.1614 -0.0674 -0.2099
23132W        W36546   5.518  10.018   5.517  0.0088 -0.1589 -0.0255
23133W        W36547   9.777  10.096  14.907  0.0317 -0.3960 -0.3935
23134W        W36548  16.678   8.354  13.493  0.1076 -0.2094 -0.1424
23135W        W36549   7.994   0.767  11.468  0.1645 -0.1755 -0.0308
23136W        W36550   5.828  14.313  10.891  0.0635 -0.0406  0.0930
23137W        W36551   9.726   9.818  15.736 -0.3303 -0.1073  0.1144
23138W        W36552   2.192   5.361   2.871  0.0537  0.5729  0.1793
23139W        W36553  17.067   2.387  11.252 -0.2668 -0.0092  0.2137
23140W        W36554  15.400   2.524   2.847  0.1242 -0.0329  0.0456
23141W        W36555   9.421  11.533   3.831  0.0087 -0.0739 -0.0591
23142W        W36556   0.997   4.393   2.693  0.1900  0.0566  0.1930
23143W        W36557  11.542   2.263   4.062 -0.2307 -0.0533 -0.0223
23144W        W36558   2.246   4.562   3.088  0.2768 -0.0832  0.2984
23145W        W36559  10.857  11.779   4.737  0.0231  0.3219  0.1204
23146W        W36560  12.090  10.365   1.853 -0.3119 -0.1096 -0.1053
23147W        W36561   6.746   9.819   4.241 -0.0113  0.1393 -0.0764
23148W        W36562  13.535   8.284   3.548  0.1346 -0.0854  0.0211
23149W        W36563   8.750   1.147  16.483 -0.1253 -0.2499 -0.2411
23150W        W36564   2.773   8.730  14.917  0.1137 -0.0261  0.1995
23151W        W36565   3.821  11.722  13.486 -0.2212 -0.2159  0.0339
23152W        W36566   6.151   7.265   4.645 -0.0148  0.2521  0.1437
23153W        W36567   4.961  12.049  12.395 -0.1721  0.6489  0.0894
23154W        W36568  12.177   0.401  14.277 -0.1915 -0.1768  0.3164
23155W        W36569  13.153  14.064   2.155  0.1875 -0.0794  0.2310
23156W        W36570   7.817  15.245  15.253 -0.0400  0.0321  0.0764
23157W        W36571   6.996  14.928   1.555 -0.0434  0.3405 -0.1590
23158W        W36572   8.676  10.493  12.526  0.1916  0.4309 -0.2093
23159W        W36573   6.593   5.794   0.866 -0.0332 -0.1823  0.0930
23160W        W36574   9.637   4.991   0.140  0.0060  0.0694  0.1790
23161W        W36575   6.834  17.947   0.948 -0.2361 -0.0883 -0.2126
23162W        W36576   6.502   8.551  15.938 -0.3012  0.0775  0.1691
23163W        W36577   8.539  14.528   4.035  0.1870  0.0479  0.2549
23164W        W36578   9.417  14.418   0.646 -0.2240 -0.0766 -0.0671
23165W        W36579  16.898   7.285   1.080 -0.0375 -0.2535 -0.0314
23166W        W36580  15.928   3.647  11.518  0.1442 -0.2582 -0.1525
23167W        W36581   0.590   7.645  11.390 -0.1435  0.2887  0.2853
23168W        W36582   1.555   6.360   2.709 -0.0443  0.0810  0.0813
23169W        W36583  18.112   3.653   3.182 -0.0585 -0.1003  0.1128
23170W        W36584   3.524   6.507  13.318  0.3138  0.1871 -0.0490
23171W        W36585   1.366  12.570  10.504 -0.4446 -0.0770  0.3358
23172W        W36586  11.212   6.351  13.560 -0.1112 -0.2682 -0.0784
23173W        W36587   4.468  18.348   1.212 -0.0884  0.0394  0.1693
23174W        W36588   6.769  15.923  16.102 -0.0466 -0.3428 -0.2721
23175W        W36589   7.469  11.912   1.333 -0.0327 -0.1105  0.1353
23176W        W36590   8.703  13.405  12.971 -0.0444 -0.1715  0.2796
23177W        W36591   1.658   9.352   0.287  0.2355 -0.0459  0.1236
23178W        W36592   2.476  10.095  15.014 -0.1603 -0.0613  0.3202
23179W        W36593  16.731  11.001   0.552 -0.0703 -0.1366 -0.3589
23180W        W36594  11.234  17.362  11.104 -0.3507 -0.0474 -0.0348
23181W        W36595  17.309   7.333  12.834  0.2726  0.0873 -0.1898
23182W        W36596   9.184  10.409  10.090  0.1434  0.0237 -0.1696
23183W        W36597  14.126  11.134   5.751 -0.4298 -0.0309  0.2456
23184W        W36598   2.125  15.208  15.697  0.0129 -0.0320 -0.0084
23185W        W36599  10.804  15.498   0.462  0.0255  0.0971 -0.2572
23186W        W36600  11.522   9.742   0.095  0.0030 -0.1865 -0.4467
23187W        W36601  15.594   7.383  10.055  0.0383  0.3285 -0.3217
23188W        W36602  16.258  14.223   6.374 -0.0819  0.0354  0.2543
23189W        W36603   8.038  10.018  13.124 -0.0458  0.0440  0.0242
23190W        W36604   7.812  10.091  12.503  0.0155 -0.2701 -0.1534
23191W        W36605  18.203   7.630  11.480 -0.1439  0.1329  0.1488
23192W        W36606   5.695   1.314   3.273  0.0484 -0.2479 -0.2040
23193W        W36607  13.234  13.796   2.621  0.0463 -0.0956  0.2483
23194W        W36608   8.857   3.244   4.702 -0.3563  0.2857  0.2888
23195W        W36609   4.112   8.683  15.953 -0.1064 -0.0876 -0.3955
23196W        W36610   8.918   3.611   5.830  0.1633 -0.0250  0.1823
23197W        W36611   5.025   8.751  10.552  0.1182 -0.2691  0.0987
23198W        W36612  13.042   9.117  11.658  0.1340  0.2243  0.0557
23199W        W36613  15.825   6.201   1.756  0.0971 -0.2259 -0.1104
23200W        W36614   4.676  13.167   1.903  0.1121 -0.0886 -0.1570
23201W        W36615  16.335   5.919  12.878 -0.1437 -0.2108 -0.0248
23202W        W36616   8.038   8.238  11.180  0.1888  0.0988  0.0745
23203W        W36617   6.186   4.350  16.355 -0.1463 -0.2799 -0.0288
23204W        W36618  14.762  12.478  14.137 -0.0237  0.0172  0.0173
23205W        W36619   4.623  14.708   5.008 -0.3642 -0.3975  0.2460
23206W        W36620  15.215  12.838   4.425 -0.0225 -0.0959 -0.0165
23207W        W36621   9.232   4.246  16.089  0.2894 -0.0945  0.4132
23208W        W36622  10.513  11.833   1.704 -0.2603 -0.1314  0.0061
23209W        W36623  17.586   5.554  12.300  0.3694  0.2860 -0.0521
23210W        W36624  14.385  11.413  10.307 -0.0581  0.0681  0.0061
23211W        W36625   2.632  10.420   2.860  0.2105  0.2335  0.1412
23212W        W36626  18.357   5.822  15.226  0.3900 -0.0543  0.1144
23213W        W36627   1.602   7.042   3.417  0.0735 -0.0206 -0.4127
23214W        W36628  15.937   4.188  15.559  0.1935  0.2070  0.1108
23215W        W36629  16.860   1.626   5.389 -0.0989  0.2540  0.0609
23216W        W36630  15.964  12.300   2.808 -0.2466 -0.1406  0.4241
23217W        W36631   4.744  10.302  14.076  0.0481  0.2118  0.0866
23218W        W36632   7.559   3.720   2.724  0.2564  0.0666  0.2607
23219W        W36633   7.542  17.371   2.869 -0.1110  0.0428  0.3209
23220W        W36634   7.348  15.017   3.792  0.0442  0.0734  0.1316
23221W        W36635   8.747  14.592   1.020  0.1520  0.1201 -0.2263
23222W        W36636  11.179  11.101  14.061  0.1527  0.3677  0.3449
23223W        W36637  17.204  17.298   0.025  0.0683  0.1026 -0.0220
23224W        W36638  16.360   1.462  15.115  0.0973  0.4082  0.2092
23225W        W36639  12.042   0.465  13.134 -0.0331 -0.2299  0.3495
23226W        W36640   0.099  11.167  16.339  0.0087  0.0431 -0.0512
23227W        W36641  11.187  10.497  11.349 -0.2555  0.4803  0.0814
23228W        W36642   6.083   4.588   1.740 -0.1862 -0.2734  0.0353
23229W        W36643  17.308   4.364  11.058  0.0239  0.0154 -0.2012
23230W        W36644  16.874   8.926   0.168  0.0356  0.4512  0.2116
23231W        W36645  11.410   2.550   1.760 -0.0073 -0.2766 -0.1028
23232W        W36646  17.501   8.907  16.012  0.0208 -0.0395  0.1762
23233W        W36647   5.161  13.617  15.417 -0.1674  0.0090  0.0105
23234W        W36648   8.847  17.841  15.304  0.0194 -0.2263 -0.0420
23235W        W36649   3.409   1.848  15.327  0.3741  0.3911  0.0515
23236W        W36650  18.295  10.771  12.223 -0.0236  0.0502  0.1297
23237W        W36651   0.891  13.447   3.679 -0.0701 -0.2520 -0.0009
23238W        W36652  17.337  10.120   6.120  0.2326 -0.1245  0.0242
23239W        W36653  11.503   2.037  15.816  0.1113 -0.0935 -0.0014
23240W        W36654  14.388   1.759   1.209 -0.1153  0.0382 -0.2064
23241W        W36655   6.686  13.307  13.058 -0.2233 -0.2240  0.0938
23242W        W36656   8.891   2.942  15.709  0.0625  0.2210 -0.2577
23243W        W36657   0.461   3.904  11.526 -0.2495  0.0393 -0.0779
23244W        W36658   7.373   4.527  12.654 -0.0900  0.2396 -0.1339
23245W        W36659   6.784  16.729   1.861 -0.0114 -0.0754 -0.1600
23246W        W36660   9.390  14.043   0.266 -0.0746  0.0436  0.0547
23247W        W36661   8.310   5.831  12.194 -0.3731 -0.3062 -0.1825
23248W        W36662   1.432   0.256   0.019 -0.2185 -0.5167 -0.0411
23249W        W36663   1.338  14.038  10.251  0.1285 -0.0832 -0.0288
23250W        W36664   7.268   3.846  11.446 -0.1916  0.0500  0.1021
23251W        W36665   0.312   3.618   4.680  0.2901  0.1164 -0.0454
23252W        W36666   4.354   5.495  14.484  0.1255 -0.2614  0.2364
23253W        W36667   5.526   9.855   1.978  0.1655 -0.0030 -0.4558
23254W        W36668  11.189  17.097   3.394  0.2265 -0.4424 -0.2899
23255W        W36669   8.286  12.887   2.321  0.1591 -0.1500  0.1587
23256W        W36670   4.593  13.611  16.033 -0.0803  0.0836  0.0095
23257W        W36671   3.390  12.966   0.580  0.3544  0.1595 -0.1153
23258W        W36672  10.332   5.368   3.824  0.3261 -0.3411  0.3615
23259W        W36673   7.960  13.440  12.514 -0.0425  0.1015 -0.1503
23260W        W36674  10.845  15.330   1.948 -0.1244 -0.0842 -0.2068
23261W        W36675   1.845   5.752   4.026 -0.0497  0.2552  0.0996
23262W        W36676   7.212  16.520  14.140 -0.1105  0.4333  0.2828
23263W        W36677   8.968   9.430  11.238  0.0740  0.1930 -0.2436
23264W        W36678  14.997  15.575  15.820 -0.4039 -0.0248  0.3400
23265W        W36679  17.735   7.537  15.822 -0.2209 -0.0464  0.2700
23266W        W36680   8.628  14.017   2.250  0.0484 -0.0193 -0.0082
23267W        W36681   2.436  10.421  12.817 -0.2497 -0.1207 -0.2009
23268W        W36682  12.193   2.552   0.015 -0.1008 -0.0148 -0.0782
23269W        W36683  17.797  17.521   1.269  0.5494 -0.0256 -0.0825
23270W        W36684   2.937  10.055   6.068  0.0513 -0.0384 -0.1009
23271W        W36685  12.710   2.849   4.156 -0.1906  0.2633 -0.0534
23272W        W36686   9.692   9.679  12.245 -0.1985 -0.0762  0.2894
23273W        W36687  18.135   1.366  10.507 -0.0306  0.0872 -0.0514
23274W        W36688   7.552   9.380  11.359 -0.1040  0.1262 -0.0773
23275W        W36689  16.987   0.711   4.518 -0.3825  0.2280  0.1242
23276W        W36690   0.790   6.234   3.362 -0.0173 -0.0807  0.1320
23277W        W36691   4.829  12.413  14.212  0.1637  0.0393  0.0320
23278W        W36692  12.603  14.737  12.073  0.1145 -0.3151 -0.0238
23279W        W36693  13.063  10.511  15.553  0.0315 -0.0313 -0.0940
23280W        W36694   1.857  15.103  14.755 -0.0276  0.1530 -0.2503
23281W        W36695   3.006   3.710   2.015 -0.0329  0.1287  0.0797
23282W        W36696  11.787  14.871   1.112 -0.0814 -0.0332 -0.0061
23283W        W36697   7.165   1.995   4.019  0.1314 -0.2306  0.0903
23284W        W36698  10.814   6.943   0.031  0.0625 -0.1198 -0.4380
23285W        W36699   7.497  17.577   5.229 -0.1058  0.0801 -0.2456
23286W        W36700   3.939   4.471  15.203 -0.0533 -0.0145 -0.1567
23287W        W36701  11.509  13.223   5.256  0.4679  0.0977  0.1611
23288W        W36702   3.094  11.268  13.232 -0.1379  0.4343 -0.0688
23289W        W36703   4.226  15.002  13.640 -0.1727 -0.2953 -0.0597
23290W        W36704   8.374  17.906   2.063  0.0572  0.2911 -0.0539
23291W        W36705   6.741  11.261   0.430  0.1862 -0.2978 -0.3567
23292W        W36706   9.727   1.482  10.758  0.2140  0.0943  0.0942
23293W        W36707  10.977  12.306  14.900 -0.0317  0.0700 -0.0744
23294W        W36708   5.253   8.685   2.077 -0.1364 -0.0184 -0.1472
23295W        W36709   4.118  12.756   1.303 -0.1477 -0.2368 -0.2296
23296W        W36710  16.985  13.149   1.741 -0.2345  0.0040  0.0671
23297W        W36711   1.820  13.171   3.988 -0.2646  0.2104  0.2824
23298W        W36712   3.095   0.260   6.675 -0.1242  0.3215  0.2327
23299W        W36713  12.923   3.888  13.517 -0.0427  0.0253  0.0670
23300W        W36714  10.993   9.975  13.481  0.0871 -0.0816 -0.3035
23301W        W36715   8.124  16.154  15.988  0.1044 -0.1771 -0.0290
23302W        W36716   3.174   2.593   5.224 -0.0592 -0.0043  0.3096
23303W        W36717   6.457   4.404  15.491 -0.2948 -0.0897 -0.0407
23304W        W36718   6.555  12.455  16.426 -0.1152  0.0520  0.1288
23305W        W36719   7.124  13.387  11.425 -0.0808 -0.0568  0.2737
23306W        W36720   3.631   5.662  11.289 -0.1088  0.0678 -0.1724
23307W        W36721  12.775   4.569  15.072 -0.0107  0.1258  0.1901
23308W        W36722   0.008  18.171   3.079 -0.1839 -0.0545  0.0273
23309W        W36723  10.155   6.074  10.186 -0.0374 -0.0223 -0.3729
23310W        W36724  10.714   3.628  15.729 -0.2833 -0.1351 -0.0259
23311W        W36725  10.329  14.515   5.792  0.0485  0.1268  0.1059
23312W        W36726  13.416   3.591   3.998 -0.4339 -0.0996 -0.1252
23313W        W36727  16.842   9.686  13.892 -0.0781 -0.0597  0.1636
23314W        W36728  13.560   8.400  10.296  0.2028  0.2702 -0.1369
23315W        W36729   1.975   1.981   2.897  0.2023  0.0172 -0.4110
23316W        W36730  11.907  12.429  11.793 -0.2145 -0.2652 -0.3895
23317W        W36731   6.183   8.876  15.281  0.0652  0.0323 -0.1654
23318W        W36732  14.402  17.859  15.679 -0.3934  0.2111 -0.4592
23319W        W36733   3.676   9.448  15.231 -0.2546  0.1643 -0.2415
23320W        W36734  11.920   9.899  10.517 -0.0374  0.0923  0.2503
23321W        W36735   6.576  17.078  14.531 -0.3361 -0.0479 -0.3677
23322W        W36736  15.049  13.859   3.228  0.2793  0.0308 -0.3113
23323W        W36737   8.334   9.567   1.007  0.2933 -0.3153 -0.0726
23324W        W36738  16.226  17.783   1.101 -0.1671 -0.2636  0.2515
23325W        W36739  10.233   9.672  10.536  0.0988  0.2028  0.1515
23326W        W36740   1.638  15.662   3.974  0.1587 -0.0740 -0.1372
23327W        W36741  12.822  10.522   5.770 -0.2482  0.0846  0.0332
23328W        W36742  11.943   6.039  13.691  0.2304  0.2891 -0.0555
23329W        W36743   1.243   5.848   2.682  0.0589 -0.1710  0.1954
23330W        W36744   1.657  11.091  16.233  0.0299  0.0031 -0.0781
23331W        W36745   1.628   7.095  15.346 -0.0709  0.1567 -0.2407
23332W        W36746   1.699   1.064   2.738  0.0675  0.1477  0.1789
23333W        W36747  15.741  11.253   5.089  0.3825  0.0506  0.2881
23334W        W36748  17.109  11.175   3.105 -0.1220 -0.2071  0.1283
23335W        W36749   3.888   8.281   4.543 -0.1948  0.3297 -0.2672
23336W        W36750  15.537  16.397  15.604  0.0005 -0.0595  0.2357
23337W        W36751   4.026  14.048   0.106  0.0591 -0.2185 -0.3228
23338W        W36752   3.262   1.907  11.339 -0.2907  0.0825  0.2662
23339W        W36753  16.071  16.286   2.148  0.0785  0.0018 -0.0159
23340W        W36754  18.103   2.937   2.502  0.1198  0.1835  0.0028
23341W        W36755   4.420  10.401  15.625  0.1530  0.3119 -0.0474
23342W        W36756   8.833  14.308  12.463 -0.2593  0.2123  0.2970
23343W        W36757   1.914  14.798   2.072  0.0741  0.1115  0.4193
23344W        W36758   3.699  13.865   4.360  0.1921 -0.1273  0.3539
23345W        W36759  16.700   8.738  15.766  0.0770 -0.1429 -0.2004
23346W        W36760  12.622   5.506   3.461  0.2969 -0.2518 -0.1664
23347W        W36761  15.376  16.674   0.015  0.1691  0.2313 -0.0557
23348W        W36762   4.967   2.446  11.724 -0.1545  0.1479  0.1096
23349W        W36763  10.259  11.901   3.628 -0.1503 -0.2142 -0.0649
23350W        W36764   2.473  10.852   1.359  0.0606  0.0041  0.1266
23351W        W36765  13.029  14.994   1.288 -0.2601 -0.4104 -0.0404
23352W        W36766  17.855  12.674   4.769 -0.4142  0.0040 -0.0361
23353W        W36767  12.436  12.476  11.194 -0.2292  0.0133 -0.2419
23354W        W36768   2.572  13.283  11.152  0.1740  0.2936 -0.0684
23355W        W36769  13.917  17.322  11.962  0.2619 -0.0777  0.1596
23356W        W36770   9.905  11.252   5.711 -0.1354  0.0044 -0.2380
23357W        W36771  12.433  14.598   4.379 -0.2381  0.1918  0.1807
23358W        W36772   2.714  12.054   1.173  0.6661  0.0024  0.0629
23359W        W36773  12.930  17.588  13.412  0.1394  0.0174  0.0561
23360W        W36774  18.275   9.437   2.321  0.2009 -0.1002 -0.6236
23361W        W36775  18.108   7.649  13.792 -0.0129 -0.5074  0.0317
23362W        W36776  16.543  11.229  15.613 -0.0280  0.0643  0.0262
23363W        W36777  13.152  16.164   0.956  0.3097  0.0559  0.0636
23364W        W36778  11.535  10.058  10.898 -0.1665  0.0951 -0.1849
23365W        W36779   9.164   8.432  12.640 -0.0869 -0.2300  0.5195
23366W        W36780   7.128   6.372  12.664  0.2122 -0.4210  0.0313
23367W        W36781   7.316   0.384  10.911  0.1629  0.0078 -0.0220
23368W        W36782  16.986   4.856  10.738 -0.0526 -0.2038 -0.1163
23369W        W36783   5.650  15.242   4.296 -0.4766 -0.0558 -0.1771
23370W        W36784   7.904  18.015  10.199 -0.1548 -0.2120  0.1665
23371W        W36785   9.173   0.463   2.980 -0.1215 -0.1759 -0.2289
23372W        W36786   2.722   1.337   4.711 -0.3203  0.1021 -0.0839
23373W        W36787   4.425   1.076   4.157 -0.1236  0.1897  0.0120
23374W        W36788  17.801  11.504   2.264 -0.0849  0.2741 -0.0296
23375W        W36789  17.506   2.041  12.238 -0.2621 -0.2019 -0.1739
23376W        W36790   3.262   3.924   4.158  0.0275 -0.1741 -0.2224
23377W        W36791  13.747   8.423  11.932  0.2370 -0.1353  0.1041
23378W        W36792  16.172   3.823  14.135 -0.3411 -0.0782  0.1221
23379W        W36793  10.420  16.672  11.362  0.1014 -0.0480 -0.4024
23380W        W36794   5.097   0.405   0.161  0.0200 -0.2084  0.3062
23381W        W36795  14.083  13.468  12.788  0.1778 -0.0492 -0.3049
23382W        W36796  17.377   2.556   4.492  0.0678  0.2550  0.2519
23383W        W36797   0.611   2.702   1.270 -0.1589  0.1176  0.0131
23384W        W36798  14.314  17.645  12.975 -0.1066  0.2597  0.2400
23385W        W36799  13.970  15.048   1.124 -0.1186 -0.2001 -0.0697
23386W        W36800  15.849  12.998  11.883 -0.1912  0.1208  0.0119
23387W        W36801   2.029  16.960   5.113 -0.2444  0.0433  0.0204
23388W        W36802   8.604  12.417  11.941  0.2917 -0.1801 -0.2625
23389W        W36803  17.524  12.248   2.886 -0.1270 -0.0296 -0.0019
23390W        W36804   8.614  12.192  14.619  0.3013  0.4754 -0.0512
23391W        W36805   5.158   9.224   3.382 -0.0211  0.2402 -0.0488
23392W        W36806  12.847  17.144   4.521  0.0933 -0.1205 -0.1367
23393W        W36807  11.883   2.659  11.567 -0.0668  0.2030  0.3399
23394W        W36808  10.567  10.005  10.795 -0.2329 -0.1151  0.2517
23395W        W36809   2.921   6.111   3.199 -0.1426 -0.0517  0.3682
23396W        W36810  11.349   2.245   0.477  0.1855  0.0542 -0.1934
23397W        W36811   5.631  17.106  16.421 -0.2102 -0.0607 -0.0893
23398W        W36812  16.968  10.025  14.306  0.2740 -0.0929 -0.0446
23399W        W36813   4.755  10.608   3.945  0.0986 -0.1232  0.1401
23400W        W36814   0.944   8.278   4.929 -0.3355  0.4140 -0.0554
23401W        W36815  12.183   3.696  13.858 -0.3595  0.3242  0.1355
23402W        W36816  10.412  15.811   5.024  0.2252 -0.1216 -0.0832
23403W        W36817  17.167  10.422   1.718  0.0914 -0.0239  0.1656
23404W        W36818  12.659  10.238  10.893  0.3304  0.0162 -0.1976
23405W        W36819   1.432   2.942   4.930  0.3367  0.1607 -0.0884
23406W        W36820   9.494  16.065   2.502  0.4017 -0.1123  0.0454
23407W        W36821  13.108   8.682   2.963 -0.0760  0.3823 -0.2619
23408W        W36822   2.871  11.110  10.476 -0.2122 -0.2831  0.3895
23409W        W36823  10.855  16.249  10.785  0.0707 -0.1897  0.0271
23410W        W36824  16.856  11.178   1.200  0.2305 -0.0516 -0.0449
23411W        W36825   7.286   4.348   4.078  0.3834 -0.0899  0.2180
23412W        W36826  10.724  10.618   0.526  0.0570  0.0787 -0.0600
23413W        W36827   3.750  17.593   0.255  0.0409  0.0833 -0.1471
23414W        W36828  16.776   3.396  13.633  0.2060 -0.0585  0.2141
23415W        W36829  14.017  15.473   6.737  0.0745  0.0956 -0.2112
23416W        W36830  16.519  16.587   4.217  0.0261 -0.1633 -0.0899
23417W        W36831  14.277   2.321   5.554  0.0174 -0.0297  0.1315
23418W        W36832  17.684  16.375  16.382 -0.0153 -0.2405 -0.0038
23419W        W36833  13.527  12.681   4.448 -0.2018 -0.0690 -0.0164
23420W        W36834   5.116  11.899   2.687 -0.0297  0.2353 -0.2096
23421W        W36835   7.358  11.917   1.855 -0.1530  0.0745  0.2307
23422W        W36836  10.860   7.465  16.270  0.1459  0.1866  0.1546
23423W        W36837   3.253  10.835  10.948  0.0287 -0.0025 -0.1172
23424W        W36838  15.664   7.748   4.441 -0.0274 -0.0510 -0.0522
23425W        W36839   8.954   3.373  13.695 -0.1061  0.2456 -0.1626
23426W        W36840  16.595  18.080  12.745  0.2933 -0.2268 -0.0535
23427W        W36841  15.875  13.443  15.191 -0.0742  0.1836 -0.1235
23428W        W36842  16.552  18.367   5.723  0.1350 -0.4980 -0.0001
23429W        W36843   5.635  13.077   3.057  0.0896  0.0632 -0.2516
23430W        W36844  12.901  12.543   2.026  0.3558  0.2428  0.1624
23431W        W36845  17.250  10.888  13.492 -0.2529 -0.0513 -0.2301
23432W        W36846   2.312  16.524   3.699  0.1199 -0.1902  0.0632
23433W        W36847  12.811   4.919  15.903 -0.1362  0.4055 -0.0773
23434W        W36848  15.427   1.134  13.293  0.1166 -0.0468 -0.0067
23435W        W36849  13.031   1.811  10.119 -0.0579  0.6129  0.3793
23436W        W36850   4.824  18.340  11.388 -0.0666 -0.1271  0.3706
23437W        W36851  16.385  12.899   4.751  0.1332  0.0233 -0.0618
23438W        W36852   5.285  18.387  12.113  0.0755  0.0847 -0.1913
23439W        W36853  10.415   6.045  11.393  0.1280 -0.0886  0.2005
23440W        W36854  16.090   2.258   4.296 -0.2452 -0.0938 -0.0662
23441W        W36855   4.469   5.897  16.147  0.0684  0.5297  0.0416
23442W        W36856   8.734  14.857   1.861  0.1988  0.1323  0.0314
23443W        W36857   2.050   4.567   2.518  0.0176 -0.1618  0.1908
23444W        W36858   3.817  13.455   0.961  0.1412  0.1598  0.0286
23445W        W36859   6.509   0.695  12.241 -0.1289  0.0635 -0.3032
23446W        W36860   2.897   3.475   0.276 -0.6025  0.3427 -0.3193
23447W        W36861  17.298   3.481   2.456 -0.0650 -0.0937  0.0262
23448W        W36862   4.430  12.878   5.986 -0.2764  0.2117  0.0454
23449W        W36863   3.419   9.194   3.629 -0.5242  0.3620  0.1965
23450W        W36864  12.664   0.091   0.319 -0.2952  0.1049  0.1518
23451W        W36865   9.529  15.205   2.380 -0.1421 -0.0223 -0.3199
23452W        W36866   0.231   7.610   4.623 -0.3331  0.4847 -0.2826
23453W        W36867  11.536   0.301  12.180  0.1997  0.0203  0.0310
23454W        W36868   9.162   6.147  14.882 -0.0881  0.0685  0.4724
23455W        W36869   3.429  12.461  16.347  0.0073  0.0318  0.0183
23456W        W36870  15.658   5.544  12.211  0.1367  0.4118  0.1033
23457W        W36871   9.830  13.979  10.652 -0.2816 -0.1760 -0.1461
23458W        W36872   9.218  17.094   4.854 -0.0179  0.0714  0.0824
23459W        W36873   2.950  11.579   1.134 -0.0344 -0.2396 -0.1821
23460W        W36874  14.303   4.163  14.089  0.1084  0.1267  0.1192
23461W        W36875   7.380   9.802  11.578  0.2764 -0.0784 -0.2581
23462W        W36876  11.299   1.644  11.968  0.1655  0.1019  0.1780
23463W        W36877  16.761  10.900   3.318  0.0080 -0.3628  0.2735
23464W        W36878   3.982   9.197   9.492  0.2015  0.2628 -0.3415
23465W        W36879  17.092   5.070   5.862  0.1053 -0.0175 -0.4013
23466W        W36880   7.343  17.098   1.548  0.2507 -0.1321  0.0794
23467W        W36881  13.948  13.014  15.520  0.0154 -0.0295  0.2516
23468W        W36882  10.152   7.837  15.914  0.0246  0.0779  0.0207
23469W        W36883  13.324  16.042  15.466  0.2988  0.1072 -0.3220
23470W        W36884   7.270   6.564  13.538  0.0784 -0.4026 -0.1119
23471W        W36885   2.250   1.185  11.411  0.0399  0.0638 -0.0266
23472W        W36886  13.856   3.137  12.436 -0.0093 -0.0365  0.0329
23473W        W36887  17.627   3.813  15.829 -0.2776 -0.0734  0.1552
23474W        W36888  13.699   2.773  15.951  0.3238 -0.1951 -0.2137
23475W        W36889   0.302   0.355  13.346 -0.0742  0.0263  0.3512
23476W        W36890   9.818   9.458  11.751  0.0617 -0.1082 -0.0330
23477W        W36891  10.304  17.163   0.211  0.1296  0.2411 -0.2248
23478W        W36892   6.453   0.007  11.433 -0.0568  0.0572 -0.3458
23479W        W36893   7.312  14.049   5.531  0.0854  0.0462 -0.1637
23480W        W36894  10.957  13.849  13.451  0.1492  0.0555 -0.2041
23481W        W36895   3.030   0.164  13.617  0.1093 -0.0262  0.0473
23482W        W36896   1.886   1.938  14.290  0.0618  0.1392 -0.1123
23483W        W36897   0.718  12.360  14.581 -0.2867 -0.2518 -0.3149
23484W        W36898  14.881   1.912   1.406 -0.0892  0.0411  0.0593
23485W        W36899  14.651   6.623   3.085 -0.0323 -0.2204  0.1783
23486W        W36900  15.661   6.805   5.679  0.1105  0.1390 -0.1648
23487W        W36901   4.300   4.955   3.680 -0.0337 -0.0670 -0.0540
23488W        W36902   1.508  18.244   0.292 -0.1755 -0.3289 -0.2530
23489W        W36903  12.392   1.279  15.360  0.1131 -0.0906 -0.1067
23490W        W36904  12.172  16.479   2.023  0.0893 -0.3292  0.0508
23491W        W36905  15.248  12.372   6.948 -0.0395 -0.0757 -0.0512
23492W        W36906   3.143   8.788   2.706 -0.0203  0.1380  0.0066
23493W        W36907  15.565  11.878  13.813  0.2415  0.1331  0.0300
23494W        W36908   7.483  15.161   4.823 -0.0894  0.0987  0.0251
23495W        W36909  13.504   8.166  13.587 -0.1196 -0.2838  0.1672
23496W        W36910   1.238   4.377   1.192  0.2115  0.0781 -0.1246
23497W        W36911   8.841   3.345  14.577 -0.1995  0.0122  0.0092
23498W        W36912   9.013  16.908  10.056 -0.3260  0.0289  0.2191
23499W        W36913   8.333   1.207   1.330 -0.0024 -0.0709 -0.0375
23500W        W36914  17.177  13.745  14.222  0.1428  0.2051  0.0025
23501W        W36915  16.316  11.737   4.355 -0.1540  0.2769  0.2073
23502W        W36916  12.267  11.966   3.770 -0.0368 -0.1479 -0.2201
23503W        W36917  16.136   5.427   4.944  0.0514 -0.4555  0.0227
23504W        W36918  10.786   5.145   4.699  0.1031  0.2001 -0.0813
23505W        W36919  16.992  10.444   3.424 -0.3470 -0.1781  0.0904
23506W        W36920   2.672   2.997   1.741 -0.2129  0.1303 -0.2030
23507W        W36921   0.206  11.106  13.113  0.1062  0.0809 -0.1495
23508W        W36922   2.131  12.132  12.027 -0.2420 -0.0811 -0.3779
23509W        W36923  13.051   5.753   2.767 -0.0656 -0.2418 -0.1771
23510W        W36924  16.050   0.925   5.408 -0.4255 -0.0815  0.0668
23511W        W36925   4.283   6.712  13.868 -0.0727 -0.2210 -0.2646
23512W        W36926  15.065   2.416   0.674 -0.1782  0.0773  0.3742
23513W        W36927   9.589  16.148  14.581 -0.3191 -0.1150 -0.0338
23514W        W36928   3.525   0.468  11.569  0.0614 -0.0301 -0.0405
23515W        W36929   5.273  14.832  11.346 -0.1207  0.1382  0.1168
23516W        W36930   7.173  12.649  13.698  0.0618  0.1689 -0.0100
23517W        W36931  17.724  14.240   0.112  0.0471  0.2815  0.0149
23518W        W36932   2.451   4.296   2.709 -0.1378  0.0311  0.1254
23519W        W36933   5.022   5.842  11.874 -0.1502 -0.2896 -0.0709
23520W        W36934   8.484   3.964  12.980  0.1071 -0.0414  0.3032
23521W        W36935  13.754   3.288   2.817 -0.0805 -0.1268  0.1568
23522W        W36936   2.120  16.505  11.391 -0.3171  0.1205  0.4979
23523W        W36937   5.399   0.604  14.839  0.3421 -0.0557 -0.0303
23524W        W36938  12.168   4.297  10.532  0.1757 -0.1523 -0.0357
23525W        W36939   0.880  14.328  15.552 -0.1014 -0.1689  0.1001
23526W        W36940  13.562   9.827   1.531  0.1068  0.2485  0.3119
23527W        W36941   0.956  12.632  16.410  0.0002 -0.3648 -0.1623
23528W        W36942   2.873  15.021  14.039  0.1742  0.1832  0.1545
23529W        W36943  11.084  13.296   0.373 -0.1613 -0.0641  0.0772
23530W        W36944  15.002   3.354  12.731  0.1021 -0.2582 -0.3654
23531W        W36945   2.170  10.534   2.660 -0.1650 -0.0604 -0.0159
23532W        W36946  11.196   0.825   3.876  0.0222 -0.1406 -0.0984
23533W        W36947  11.031  14.170   5.518 -0.1080 -0.0714 -0.3013
23534W        W36948  10.252  17.982  15.049  0.2143 -0.0224 -0.1883
23535W        W36949   3.122  16.792  10.992 -0.1116  0.0476 -0.2979
23536W        W36950  12.885   5.983  11.677 -0.0963 -0.1465 -0.1867
23537W        W36951   5.938  13.548   2.536  0.2581  0.1018  0.1628
23538W        W36952   5.929  12.238   3.445 -0.0683 -0.1626 -0.1587
23539W        W36953  12.678   9.698   5.011  0.1207 -0.1301 -0.0232
23540W        W36954   3.084   4.579  11.696  0.0492  0.2968  0.0134
23541W        W36955  11.441   9.253  12.342 -0.3454 -0.1123 -0.0523
23542W        W36956   4.008  13.096  13.897  0.1077 -0.1227 -0.0923
23543W        W36957  10.740  16.204   1.081 -0.0016 -0.0638 -0.1321
23544W        W36958   7.876   7.947   3.760 -0.2050 -0.2915  0.3947
23545W        W36959   1.663   0.154   1.054  0.3480 -0.2180 -0.0075
23546W        W36960   6.918   7.060   4.798 -0.3928  0.1807  0.0766
23547W        W36961  10.477   7.038  11.960  0.1302  0.0902 -0.1578
23548W        W36962   0.573  15.905  13.699  0.1054 -0.0004 -0.0165
23549W        W36963   9.603  17.397  15.611 -0.0501  0.3284 -0.2654
23550W        W36964   9.821  15.447  15.333 -0.4951  0.0561  0.2081
23551W        W36965   7.495   8.142   4.670 -0.2086  0.3197 -0.2071
23552W        W36966  14.932   5.720   2.856  0.0447 -0.3215 -0.1522
23553W        W36967   8.558  10.303   3.149  0.2079 -0.0507  0.2939
23554W        W36968   3.095  10.281  10.492 -0.2988 -0.2586 -0.0554
23555W        W36969  15.832   1.998   2.217 -0.1236  0.1854  0.1528
23556W        W36970  14.683   3.306   2.962  0.2727 -0.3306 -0.0111
23557W        W36971  16.571  12.454   2.815  0.0846  0.1415  0.0961
23558W        W36972  16.746  11.111  11.470  0.0365  0.0895 -0.2340
23559W        W36973   5.587  14.618   3.103  0.0301  0.0936 -0.1407
23560W        W36974   7.553   0.741  11.232 -0.2725  0.1441 -0.3211
23561W        W36975  10.212   3.653  13.545 -0.1724 -0.1657  0.1948
23562W        W36976   4.970  14.319   5.066  0.0329  0.0276 -0.1222
23563W        W36977  16.079  17.067  11.909  0.2083  0.0111 -0.3025
23564W        W36978  11.692   4.540  10.596 -0.2808 -0.0260 -0.1263
23565W        W36979   6.820   1.908  14.471 -0.1068 -0.0181 -0.1989
23566W        W36980  11.102  16.767   0.533  0.0662 -0.0322  0.0872
23567W        W36981   8.811   5.878  16.472 -0.1007 -0.0087  0.0795
23568W        W36982   3.802   1.873  14.394  0.1942  0.1644  0.2728
23569W        W36983   4.653  16.420  13.605 -0.0644  0.1526 -0.0850
23570W        W36984  16.055   0.193   3.851  0.0137  0.0333 -0.0400
23571W        W36985  15.200  10.243   4.462  0.2080  0.3649 -0.0372
23572W        W36986  12.905   3.203   2.765 -0.1048  0.0279  0.0339
23573W        W36987  18.206   9.679   4.553  0.0635  0.1207 -0.1924
23574W        W36988   8.470  12.599   1.863  0.1567 -0.0189 -0.3695
23575W        W36989   1.006  12.558  13.159 -0.3057 -0.2272  0.0986
23576W        W36990  12.361   2.552  10.622 -0.0333 -0.0749  0.3176
23577W        W36991   5.557   7.116  10.218 -0.0048  0.0985  0.1702
23578W        W36992   1.043  13.959   4.717 -0.0950  0.1932 -0.1451
23579W        W36993   9.107   1.865  11.693  0.0767 -0.4275 -0.1190
23580W        W36994   0.589   1.823  12.315 -0.1062  0.1902  0.0541
23581W        W36995   0.517   9.328  12.823 -0.1332  0.0609 -0.1480
23582W        W36996  13.457   0.634   4.140  0.0594  0.0029  0.2136
23583W        W36997  15.366  16.558  11.342 -0.0863 -0.1181  0.1182
23584W        W36998   5.438   0.305   5.263  0.0635  0.3418  0.0580
23585W        W36999   8.408   6.977   0.537 -0.0444 -0.0772  0.0704
23586W        W37000   4.186  17.165  13.525  0.0708 -0.1267 -0.0979
23587W        W37001  16.495   0.006  12.346 -0.4216  0.0117 -0.4468
23588W        W37002   8.446   5.910  13.733  0.1685  0.0183  0.0405
23589W        W37003  16.949   0.879   1.427  0.2424  0.0872 -0.1136
23590W        W37004   8.660  15.166  14.416 -0.1385 -0.1050 -0.0476
23591W        W37005   9.697   8.505   0.032  0.3187  0.0097 -0.1350
23592W        W37006   5.047  11.915   5.278  0.0056  0.0241  0.0819
23593W        W37007  11.323  13.488  15.898  0.0091  0.0617 -0.2872
23594W        W37008  11.534   8.103  11.854 -0.0054  0.2270  0.1380
23595W        W37009   8.448  11.282   0.617  0.1248 -0.1830  0.3460
23596W        W37010  12.764   5.157  13.867 -0.1928  0.1537  0.0474
23597W        W37011  14.312   1.341   0.366  0.1725  0.1443 -0.0508
23598W        W37012   5.621   4.636   5.712 -0.0779  0.2996  0.0479
23599W        W37013  13.777   3.899  16.440  0.2310  0.3176  0.2538
23600W        W37014   2.860   3.881  16.330 -0.0147 -0.0048  0.1130
23601W        W37015  15.399   8.424  15.708  0.1674  0.2043 -0.1592
23602W        W37016   5.175   3.528  15.657  0.0380  0.1317 -0.0738
23603W        W37017   8.531  12.792   4.609  0.1416  0.0281 -0.0437
23604W        W37018   9.153  12.278   5.234 -0.1105 -0.0324 -0.0499
23605W        W37019   1.399  11.666   5.500  0.0699 -0.2577  0.2268
23606W        W37020   1.106   1.632   1.578  0.2268  0.0101 -0.1384
23607W        W37021  12.530  10.346   6.239 -0.1811 -0.1633 -0.0216
23608W        W37022  10.429  15.042   1.866  0.0264 -0.1887  0.1034
23609W        W37023   8.333  11.361   1.501 -0.3903 -0.1319  0.0958
23610W        W37024   6.822  10.871  12.939 -0.1272  0.1083 -0.0983
23611W        W37025   8.210   7.968  15.769  0.1423  0.1905  0.0010
23612W        W37026  17.967  12.076  11.528  0.3035 -0.1916 -0.1329
23613W        W37027  17.658   0.514   1.214 -0.3299 -0.0694 -0.0527
23614W        W37028   1.095  10.317   4.793  0.1443  0.1698 -0.1221
23615W        W37029   7.607   8.723   3.265  0.2032 -0.2380 -0.0712
23616W        W37030  10.943  18.244   4.464  0.0202 -0.2245 -0.3524
23617W        W37031  13.031  16.410  12.579 -0.2864  0.0558 -0.0380
23618W        W37032  11.343   7.482  11.976  0.1855  0.1484  0.0314
23619W        W37033   4.407  15.852   0.364  0.5356 -0.2122  0.2470
23620W        W37034  16.018  11.759  13.985  0.3160 -0.3031 -0.0681
23621W        W37035  10.464   1.952  11.196  0.1209  0.1975 -0.4115
23622W        W37036   2.193   9.378   2.912 -0.0949 -0.2367 -0.0520
23623W        W37037   6.792   3.263   4.133 -0.0125  0.2181  0.0654
23624W        W37038   5.411  17.736   4.199  0.1659 -0.4348 -0.0647
23625W        W37039  14.205  11.826  15.091 -0.1568  0.2854  0.1696
23626W        W37040   1.045  10.157   4.134 -0.0281 -0.1380 -0.3228
23627W        W37041   2.331   8.821   4.821 -0.1248 -0.0025 -0.2641
23628W        W37042   6.324  15.344  14.204  0.2567 -0.2048 -0.1809
23629W        W37043   8.022   2.972  12.474 -0.2779  0.2587 -0.0592
23630W        W37044   4.959  11.925   6.126 -0.0745  0.1242 -0.3172
23631W        W37045   5.600   6.590   4.647  0.2096 -0.2955  0.0767
23632W        W37046  12.127  10.307   0.522 -0.4149  0.2151  0.1719
23633W        W37047   1.413  13.791  10.981  0.0078 -0.1200  0.2483
23634W        W37048   1.169  15.320   2.048 -0.3185  0.3230 -0.1167
23635W        W37049  16.949   8.553   1.594 -0.2529 -0.2064  0.1715
23636W        W37050  13.655  17.411   0.956  0.2958 -0.0712 -0.1101
23637W        W37051   5.790   0.089   0.017  0.2066 -0.0542 -0.0172
23638W        W37052   3.729   2.734  15.515  0.3292  0.0399  0.2150
23639W        W37053   2.813   7.906   1.524  0.0225 -0.0999  0.1395
23640W        W37054  13.772  12.726   3.522  0.1885  0.1604  0.1187
23641W        W37055   3.240   9.604  15.734  0.0556  0.1940 -0.0607
23642W        W37056  15.622   3.697   6.042  0.0190 -0.1241 -0.4981
23643W        W37057  16.609   8.894  13.328 -0.0805  0.0251 -0.0490
23644W        W37058   3.406   2.387  13.467 -0.1824  0.2251  0.0688
23645W        W37059  15.100  17.527  11.447 -0.0489  0.0243  0.0832
23646W        W37060  10.670  12.029   4.298 -0.3614  0.0013 -0.0263
23647W        W37061  13.386   9.236   5.067  0.1316  0.0352  0.2030
23648W        W37062   7.391   1.268  11.798 -0.2308  0.0338  0.0911
23649W        W37063   9.832   5.541  11.117  0.2801  0.0058 -0.0682
23650W        W37064  14.585   4.097  13.682  0.0152 -0.0349  0.0480
23651W        W37065  16.459  14.128   1.889 -0.0190  0.1010 -0.1072
23652W        W37066   7.150  14.845  11.054  0.2515  0.0620 -0.2250
23653W        W37067  13.122   2.251  12.429  0.0684  0.3101 -0.0571
23654W        W37068  14.825   3.628   5.351 -0.0582 -0.0300 -0.2657
23655W        W37069  11.906  10.777   2.423 -0.0508  0.0096  0.0338
23656W        W37070   3.758   1.948   4.118  0.0730 -0.1045 -0.2709
23657W        W37071   8.008   9.384   1.425 -0.0680  0.2666 -0.0284
23658W        W37072  11.760  10.306  11.262 -0.0682 -0.1734 -0.1318
23659W        W37073   2.476  13.602   3.014 -0.1444  0.0644  0.1665
23660W        W37074   9.363   7.950   0.128  0.1492 -0.1760  0.1393
23661W        W37075   1.619  18.122  11.875 -0.0258 -0.0797  0.0856
23662W        W37076  11.677   6.446   1.979 -0.0651 -0.2802  0.1268
23663W        W37077  17.518  18.160  14.560 -0.1623 -0.0009  0.1948
23664W        W37078  15.457   2.482  14.441  0.3510  0.1074 -0.1782
23665W        W37079  18.279   1.475  15.045 -0.1883  0.0138 -0.0404
23666W        W37080   9.715  13.842   5.846 -0.0097 -0.0805  0.1725
23667W        W37081   6.775  13.053   0.043  0.0350  0.3764  0.0098
23668W        W37082   1.772   4.219   6.236 -0.0866 -0.0257 -0.0439
23669W        W37083   5.045   1.333   4.823 -0.4028  0.1808  0.0155
23670W        W37084   8.861   3.101   1.809  0.1059  0.0398  0.3295
23671W        W37085   5.236  13.970   4.208 -0.0030  0.2460 -0.1488
23672W        W37086   3.386  13.043  13.300 -0.3643  0.1464 -0.1303
23673W        W37087  10.869  14.862   4.437  0.2040  0.1893  0.2926
23674W        W37088   2.950   9.253  13.185  0.1856 -0.4182 -0.0263
23675W        W37089   6.216  17.226   2.584  0.2090  0.0114 -0.0004
23676W        W37090  10.848   4.580   2.794  0.3636  0.1371  0.0114
23677W        W37091  12.657   5.789   3.037  0.1044  0.0737 -0.1445
23678W        W37092  17.955   0.681   4.332  0.4078  0.1326 -0.0978
23679W        W37093   0.605  14.722   1.570  0.1870  0.1672  0.1599
23680W        W37094   4.613  12.639   4.886  0.1637 -0.1099  0.2164
23681W        W37095  13.249   8.049   1.780 -0.1342 -0.2921  0.1801
23682W        W37096  13.660   5.653  15.554 -0.4094 -0.2228 -0.0308
23683W        W37097   7.986  17.660   4.101 -0.0638 -0.2454  0.0465
23684W        W37098  16.981   3.263  15.199  0.1259 -0.1963  0.0194
23685W        W37099  10.013   7.186  13.231  0.0224 -0.3071 -0.1668
23686W        W37100   6.563   2.722  15.292  0.1187 -0.0017 -0.0067
23687W        W37101  18.161  13.293  14.787  0.0198 -0.2236 -0.0265
23688W        W37102   7.684   6.764   2.434  0.1697  0.2436 -0.4972
23689W        W37103   7.208  15.857  13.812  0.1444  0.1030  0.0653
23690W        W37104  11.669   8.384   2.384  0.4402 -0.1461  0.1206
23691W        W37105   1.776   6.562  13.956 -0.4557  0.1706  0.2987
23692W        W37106  14.433   6.749  15.014 -0.2053  0.4402 -0.4203
23693W        W37107   8.857   8.246  10.557  0.0992 -0.0618 -0.2593
23694W        W37108   1.957   5.162  15.079 -0.0860 -0.2876  0.1565
23695W        W37109   5.064   3.740  12.205 -0.1355 -0.0455  0.1209
23696W        W37110  11.476   1.011   4.930 -0.1087 -0.1865  0.0391
23697W        W37111  15.966   1.987  10.716 -0.0337  0.1541  0.0888
23698W        W37112   0.008   8.400   5.362 -0.0965  0.0644  0.0124
23699W        W37113   5.050  16.342   1.001 -0.1742  0.0032  0.2089
23700W        W37114   1.252   5.554   0.775  0.1175 -0.2973  0.0777
23701W        W37115   0.410  15.778  14.155 -0.1729 -0.0860  0.0324
23702W        W37116   0.888  11.522   2.515  0.1168  0.1374  0.1859
23703W        W37117  16.230  13.545  16.234 -0.0636  0.0046 -0.0575
23704W        W37118   0.990   0.911   3.758  0.0149  0.0918 -0.0835
23705W        W37119   7.080   6.578   5.815 -0.4030 -0.1240  0.1097
23706W        W37120  11.050  10.598  12.631 -0.1885 -0.3047 -0.1318
23707W        W37121  13.569  10.110   0.382  0.0155  0.0038 -0.1742
23708W        W37122  17.459   6.960   3.224 -0.0563  0.0563 -0.1374
23709W        W37123  15.744  15.710  11.751  0.0006  0.3150 -0.1236
23710W        W37124   3.791  16.412  15.963  0.0790 -0.0161  0.0788
23711W        W37125   3.480  18.228   0.123 -0.0226 -0.2069 -0.1791
23712W        W37126   8.974   7.519  10.249 -0.4268  0.0714  0.1577
23713W        W37127   3.932   6.639  14.279 -0.0540 -0.3421  0.4619
23714W        W37128   2.336   0.366   4.334  0.0555  0.2039  0.2282
23715W        W37129  16.923   7.445  15.145 -0.1090  0.0600 -0.1515
23716W        W37130  14.431   9.779   2.634 -0.1781  0.3010 -0.0827
23717W        W37131   0.196  12.632  11.089  0.1400 -0.0938 -0.0351
23718W        W37132   2.205   4.939   1.659 -0.1738 -0.0540 -0.1915
23719W        W37133  17.003  14.963   3.374  0.2922 -0.1335 -0.2600
23720W        W37134   2.965   1.566   0.360  0.1531  0.2624  0.0961
23721W        W37135   5.471  10.955  14.057 -0.0430 -0.2257  0.0072
23722W        W37136   3.581   0.356  13.781 -0.0874 -0.0496  0.2344
23723W        W37137   6.210   2.703  14.416  0.0527  0.4533  0.3968
23724W        W37138   5.370  18.069   0.756  0.1218  0.0280 -0.3256
23725W        W37139  16.639   5.044  16.493  0.1656 -0.2128  0.3207
23726W        W37140  14.146  12.590   5.985 -0.2897  0.0159  0.1393
23727W        W37141   7.123   7.148  14.958  0.2590 -0.3482  0.4612
23728W        W37142   0.541  13.916  16.510 -0.2802 -0.3356 -0.2750
23729W        W37143  17.464  14.185   3.196 -0.2932 -0.0868 -0.1247
23730W        W37144   2.697   7.519  13.380 -0.1702  0.0227 -0.2766
23731W        W37145   0.654   1.571  13.978 -0.1317 -0.2858 -0.1144
23732W        W37146   9.547   8.110  15.929 -0.1409  0.1576  0.0854
23733W        W37147  11.566  14.021  12.093 -0.0335  0.2270 -0.0988
23734W        W37148  15.334  18.344  12.660 -0.1912  0.0887 -0.2087
23735W        W37149  13.955   8.731  12.822  0.0521  0.1027 -0.3268
23736W        W37150   7.805   0.319  15.156 -0.0152  0.0379 -0.0731
23737W        W37151   2.973   0.775   1.966 -0.1509  0.0687 -0.1296
23738W        W37152  16.415  13.867  15.898 -0.0609 -0.0041  0.4246
23739W        W37153  11.185  14.324  15.233 -0.1900  0.1270 -0.0312
23740W        W37154  10.449   3.749   1.462 -0.0728 -0.0449  0.0312
23741W        W37155  16.260   4.804  13.756  0.2826  0.0840  0.0741
23742W        W37156  12.354   6.821   4.960  0.1751 -0.1742  0.1395
23743W        W37157   1.753   6.468  14.478 -0.2240 -0.0899  0.0349
23744W        W37158  11.389   0.501   5.180 -0.0209 -0.2208 -0.0964
23745W        W37159   3.971  12.963  15.776  0.0672  0.0367  0.1666
23746W        W37160  17.997   7.515  14.287  0.4617 -0.3694  0.0362
23747W        W37161  11.714  10.179   3.853 -0.0133  0.0601 -0.1906
23748W        W37162   4.711   0.087  15.077 -0.0701  0.1652 -0.0408
23749W        W37163  12.014  11.503   3.312  0.0410 -0.3453  0.1849
23750W        W37164  10.416   1.675   3.055 -0.0204  0.0729  0.3030
23751W        W37165   6.593   4.639  10.373  0.2011 -0.2193  0.2721
23752W        W37166  16.200  14.329   3.566 -0.1708  0.2038 -0.0974
23753W        W37167  15.452   5.715  15.058 -0.1575  0.2204  0.2603
23754W        W37168  11.807   6.414  10.008  0.0734 -0.1114  0.0878
23755W        W37169  14.538  12.147   3.904 -0.1207 -0.1741  0.0783
23756W        W37170  16.126  10.412  13.765 -0.0652  0.1645  0.2923
23757W        W37171  13.657  11.483  16.399 -0.2969 -0.1786 -0.3669
23758W        W37172   5.396   1.404  12.616 -0.0425 -0.2060  0.0492
23759W        W37173   1.038  15.456  11.564  0.0685  0.3250 -0.0953
23760W        W37174  17.529  12.862  11.770 -0.2040  0.0268 -0.0240
23761W        W37175  10.248   0.118  16.423 -0.0306 -0.0902  0.3443
23762W        W37176   5.340   2.635   1.047  0.0018  0.0103 -0.0902
23763W        W37177   2.426  11.679   4.816  0.2385  0.0566  0.5268
23764W        W37178  12.989  11.991   4.827  0.0715  0.2933 -0.1078
23765W        W37179  11.003   7.816   0.559  0.4764  0.0487 -0.0060
23766W        W37180  13.364   5.083   2.011  0.0033  0.2390  0.4801
23767W        W37181   1.106   7.755  11.619 -0.1795  0.0843  0.0620
23768W        W37182  10.055  16.060   2.712  0.1599  0.3766 -0.0212
23769W        W37183   0.581  17.214   0.239 -0.0796 -0.1245  0.1461
23770W        W37184  13.137   2.342   3.542 -0.0882 -0.3367  0.0443
23771W        W37185   8.194   5.733   5.324  0.0197  0.2910 -0.0272
23772W        W37186   2.000  16.987   4.445  0.0929 -0.2582 -0.0368
23773W        W37187   1.161   0.058  13.403 -0.1884  0.0067 -0.0323
23774W        W37188   2.353   4.710   4.946  0.2072  0.1514  0.1741
23775W        W37189  14.441   4.177   3.498  0.1488  0.2000  0.1819
23776W        W37190   2.714   2.098   1.489 -0.0337  0.0470 -0.1144
23777W        W37191  17.647   1.945   0.260 -0.1588  0.0592  0.0927
23778W        W37192   5.878   2.041  10.780  0.0288  0.4166  0.4141
23779W        W37193   4.730   6.966  13.899  0.0134 -0.1467 -0.0373
23780W        W37194   5.678   3.405   2.180  0.1683 -0.2268 -0.2480
23781W        W37195   2.375  14.893   5.264  0.2009  0.1782  0.1430
23782W        W37196   9.341   6.997  15.965  0.1274  0.0366  0.0501
23783W        W37197   4.207   5.738   3.032 -0.0250  0.2719 -0.2398
23784W        W37198   5.504  12.341   6.625 -0.1113  0.1789  0.1107
23785W        W37199   1.633   8.786   2.866  0.1181 -0.0631 -0.4490
23786W        W37200   6.442   9.918   5.182 -0.2461  0.2212  0.0663
23787W        W37201   0.749   3.528   0.786  0.1573  0.0269  0.0050
23788W        W37202  16.567   4.695   4.705 -0.2426 -0.1619  0.4018
23789W        W37203  15.814   5.470  11.630 -0.1717  0.0857  0.0525
23790W        W37204   8.227  14.181   1.508  0.0120 -0.0280  0.0023
23791W        W37205   7.746   9.954   4.163 -0.1545 -0.5344  0.3293
23792W        W37206  13.865  12.189  11.772  0.2339 -0.3099 -0.3128
23793W        W37207  16.586   6.899  12.539  0.1632  0.0418  0.0762
23794W        W37208   2.045   6.131  11.991  0.5296  0.2207  0.3102
23795W        W37209  15.299   9.364  14.227 -0.0271 -0.3536 -0.0443
23796W        W37210   0.297   1.603   2.243  0.1489 -0.1450 -0.0999
23797W        W37211  14.086  11.383   4.299 -0.1400  0.0818  0.1413
23798W        W37212   7.484   6.525   2.019  0.0580 -0.0574  0.1325
23799W        W37213  13.568   4.770  14.035 -0.2183 -0.0149  0.0282
23800W        W37214   6.162  13.880  14.503 -0.0532  0.0097  0.1686
23801W        W37215  15.131  18.061  12.007  0.3646 -0.2989 -0.2583
23802W        W37216   9.255   5.260  13.667  0.3251 -0.0479 -0.1199
23803W        W37217  10.119   3.791  10.742 -0.0153 -0.0902  0.4100
23804W        W37218  16.490  17.947   0.169 -0.0366  0.0970  0.1641
23805W        W37219   7.664   5.680  14.446 -0.2092 -0.2801  0.0679
23806W        W37220  10.490  11.562   3.282  0.1620 -0.1009 -0.0996
23807W        W37221   9.376  16.659   0.710  0.0549  0.2562 -0.1514
23808W        W37222   1.012  15.648   6.578  0.0445  0.1495  0.0284
23809W        W37223   1.625   7.880   3.805  0.0177  0.0451 -0.2263
23810W        W37224  17.480   2.111   4.087 -0.0368  0.0105  0.0602
23811W        W37225   8.001  16.606   4.776 -0.0772  0.0122 -0.1441
23812W        W37226  11.520   0.311  15.870  0.2703 -0.1833 -0.2000
23813W        W37227   3.584  15.063  15.830  0.2579  0.1204  0.0947
23814W        W37228   8.491  15.952   3.685  0.4632  0.2187  0.2656
23815W        W37229  12.326  13.773  12.600 -0.1024 -0.2892 -0.2831
23816W        W37230   6.575   3.927  12.436  0.0612 -0.0718 -0.0627
23817W        W37231   5.366   8.941  14.442  0.0166 -0.1854 -0.2324
23818W        W37232   0.369  14.108  12.901  0.3775  0.0062 -0.0461
23819W        W37233  16.763   3.221   1.817  0.0645  0.3167  0.0691
23820W        W37234   3.987  15.144   4.344 -0.1034 -0.1921  0.2388
23821W        W37235   5.092  11.670  14.214  0.2264 -0.2630  0.2213
23822W        W37236   6.401  17.331   0.900 -0.0596  0.3217  0.0356
23823W        W37237   5.247  12.978   3.732 -0.2601 -0.0181 -0.2712
23824W        W37238   6.404  11.657   0.372  0.0700 -0.3249 -0.3461
23825W        W37239   3.563  17.932   0.934 -0.0368 -0.1813 -0.5144
23826W        W37240   8.886   6.565  14.716  0.0548 -0.4187  0.1616
23827W        W37241   8.426   1.985  15.975  0.3393  0.3265 -0.1521
23828W        W37242   6.393  17.740   1.770 -0.3285 -0.0735 -0.0068
23829W        W37243   0.414  11.513  14.374  0.0165 -0.0209  0.1290
23830W        W37244  14.871   8.701  13.281  0.0814 -0.0323 -0.1571
23831W        W37245   0.690   8.219  15.846 -0.0635  0.0708  0.1863
23832W        W37246  10.012   8.314  15.648 -0.0295 -0.1013 -0.0499
23833W        W37247  16.940   6.394  10.079 -0.0608 -0.0248 -0.0135
23834W        W37248   2.784  12.690  15.285  0.0293  0.0363 -0.1273
23835W        W37249   3.150  11.240   5.094 -0.0699  0.1765  0.4003
23836W        W37250   6.369  10.156  14.820  0.0292  0.0922 -0.2281
23837W        W37251   8.440   3.891  13.932  0.0570 -0.0204  0.3078
23838W        W37252   5.703   4.283   2.730 -0.1962  0.0718  0.0146
23839W        W37253   5.368  17.344   2.919 -0.0652 -0.1719  0.2003
23840W        W37254   7.592   2.788  14.120 -0.1954 -0.2661  0.2866
23841W        W37255  17.805  18.266   3.823  0.1891 -0.0169 -0.0772
23842W        W37256   2.966  11.729  10.590 -0.1155  0.1023  0.0105
23843W        W37257  12.865   9.071   2.890  0.6742  0.3502  0.2335
23844W        W37258   6.921   4.940   2.791 -0.1366  0.0096 -0.3148
23845W        W37259   8.347   6.150   4.022 -0.2131  0.0911  0.0701
23846W        W37260  17.173  12.181  13.314 -0.0812 -0.0879 -0.3116
23847W        W37261   6.757   6.168   0.095  0.2229 -0.1561  0.0027
23848W        W37262  12.579   4.283   5.722  0.1587  0.1346  0.1785
23849W        W37263   5.547  16.034  14.059 -0.0077 -0.1761  0.0507
23850W        W37264   9.019  17.681   6.103 -0.0081 -0.3498 -0.1016
23851W        W37265  14.386   7.702   9.481 -0.0836 -0.2182 -0.1883
23852W        W37266   7.653   5.766   4.140 -0.0563  0.0060  0.5667
23853W        W37267   6.521  12.431  15.836 -0.0209 -0.1914 -0.0197
23854W        W37268   6.772  13.009   3.638  0.2401  0.1044  0.2234
23855W        W37269   4.583  14.107   0.957 -0.1058 -0.0042 -0.2897
23856W        W37270  18.174  15.559  12.175  0.0935 -0.1755 -0.1297
23857W        W37271   0.386   4.743  10.242 -0.1040 -0.2472 -0.1604
23858W        W37272  11.758   0.746  15.279 -0.1100  0.0354  0.2424
23859W        W37273  11.848   6.022   5.362  0.1658 -0.0283 -0.2199
23860W        W37274   8.009   7.459   0.469  0.0072  0.2836 -0.1843
23861W        W37275  13.916   4.116   2.825 -0.0456 -0.1607 -0.0862
23862W        W37276  18.380   7.667  13.311 -0.0495 -0.0270  0.0512
23863W        W37277   7.063  13.781  12.007  0.0514  0.0076  0.3384
23864W        W37278   4.579  16.236   4.008 -0.2836 -0.0582  0.1784
23865W        W37279   3.941  14.678   2.671  0.3348  0.0140  0.0357
23866W        W37280  11.611   9.271  16.490 -0.0486 -0.2632 -0.1068
23867W        W37281   3.659   8.234  10.694  0.0623  0.2130 -0.1924
23868W        W37282  17.904   5.663  15.255  0.0349  0.0939 -0.1405
23869W        W37283   2.776   0.126  12.036 -0.2643 -0.2126 -0.0889
23870W        W37284  17.943  12.729  15.998 -0.0564 -0.0735 -0.1679
23871W        W37285   6.299  10.885   5.020 -0.2020  0.1457  0.4339
23872W        W37286   8.752  17.546   2.065 -0.1050  0.2408  0.0854
23873W        W37287   4.672  13.563  15.481 -0.3276  0.4428  0.0395
23874W        W37288  16.835   0.032  11.185 -0.4734 -0.1285 -0.1284
23875W        W37289   0.851  14.763   0.342 -0.1267 -0.1849  0.0801
23876W        W37290   0.799  16.751   5.526  0.1739  0.0431  0.3054
23877W        W37291   1.479   1.398   4.492  0.1579 -0.1464 -0.0251
23878W        W37292   6.565   9.200   5.744 -0.1231  0.1325  0.4379
23879W        W37293   3.564   4.420  15.759 -0.0967  0.0435 -0.0718
23880W        W37294  10.586  13.404  10.369 -0.1496  0.0905 -0.0566
23881W        W37295   8.358   4.943   4.410  0.0512  0.1939  0.0831
23882W        W37296   5.156  11.909   1.767  0.3201 -0.0436  0.1307
23883W        W37297   2.939   5.298   4.144 -0.0177  0.1845  0.1716
23884W        W37298   6.238  18.138  14.259 -0.2589  0.0912  0.0544
23885W        W37299  10.660  10.112   0.433 -0.2415  0.0891  0.3035
23886W        W37300   1.841   6.061   0.064 -0.1100 -0.1717  0.2988
23887W        W37301   7.800  10.067  11.641 -0.0428 -0.1440 -0.5751
23888W        W37302  11.408  12.494  11.807  0.1043 -0.0812 -0.2863
23889W        W37303  13.607  16.426   4.148  0.0328 -0.1747  0.0491
23890W        W37304   6.027   4.549  13.332  0.0162 -0.0754  0.0249
23891W        W37305  11.184  14.024   3.837  0.1662  0.4055  0.1110
23892W        W37306   2.639   6.552  13.700 -0.2219 -0.0392 -0.0571
23893W        W37307  12.301  10.368   1.260 -0.0019  0.2561 -0.0732
23894W        W37308  15.448   9.939  14.197  0.0791  0.0819  0.2863
23895W        W37309  17.587   4.196   5.496  0.2409  0.0576  0.1335
23896W        W37310   2.966  15.302   3.858 -0.1686 -0.0965  0.1630
23897W        W37311  11.833  16.136   6.416  0.0009  0.0004  0.0890
23898W        W37312   8.767  10.893   2.106 -0.3254  0.0954  0.0812
23899W        W37313   5.716  17.993  16.500 -0.0934  0.4553  0.2200
23900W        W37314   0.468   7.499  12.565 -0.1736  0.1896  0.1744
23901W        W37315   0.348  13.247  12.509  0.2814 -0.0920  0.0792
23902W        W37316  12.718  12.426   5.576 -0.1667 -0.0210  0.1617
23903W        W37317   9.161   9.796  10.754 -0.1460 -0.0821 -0.2694
23904W        W37318   8.610   5.844   1.819  0.0855  0.1151  0.2706
23905W        W37319  16.420  12.072  11.161 -0.2714 -0.0378  0.1527
23906W        W37320   3.548  15.213   3.868 -0.0464  0.1107  0.2743
23907W        W37321   4.196  15.535  15.128 -0.0535  0.3785  0.0093
23908W        W37322  18.301   6.238   3.213  0.1700  0.0684  0.1730
23909W        W37323   3.923  12.268  14.347  0.5315 -0.1658 -0.1523
23910W        W37324   6.470  11.321  12.915 -0.4567 -0.0355  0.0354
23911W        W37325  10.758   1.308   3.175 -0.0051 -0.0366 -0.2806
23912W        W37326  13.238  12.390  12.329  0.0956 -0.0374 -0.1506
23913W        W37327   7.837  15.578  12.974 -0.4182 -0.2436 -0.3232
23914W        W37328  15.278   7.517  11.591 -0.1192  0.2820 -0.1247
23915W        W37329  12.828   2.453   5.800 -0.4286 -0.1182 -0.0743
23916W        W37330  13.128   0.224   3.918  0.1270  0.1483  0.1293
23917W        W37331   1.812   8.882   3.338 -0.0635 -0.1689 -0.2180
23918W        W37332  13.081   1.375  14.139  0.0395  0.0205 -0.0586
23919W        W37333  13.281   0.084  10.327 -0.1957  0.2137 -0.0041
23920W        W37334  12.200   2.913  11.162 -0.1353 -0.4085 -0.1193
23921W        W37335  14.961   9.659   5.209  0.1984 -0.0489  0.0973
23922W        W37336  10.018   6.228   2.007 -0.0392 -0.2505 -0.2549
23923W        W37337   1.411  11.784  14.875  0.3300 -0.3129  0.3388
23924W        W37338  15.672   9.259  15.300  0.2046 -0.0106  0.0535
23925W        W37339   0.717   6.375  11.375  0.0550  0.0526 -0.1616
23926W        W37340  16.987  17.200  13.134  0.0067 -0.0374  0.0255
23927W        W37341  15.031   4.840  10.533 -0.2359  0.2822  0.0908
23928W        W37342   7.478   0.914   5.219 -0.1582  0.0673 -0.0407
23929W        W37343   1.755   4.625   1.627  0.0580 -0.1682 -0.1568
23930W        W37344  18.208  14.657   3.819  0.0114 -0.1990 -0.0766
23931W        W37345  16.793   8.251   9.892 -0.2412  0.0501 -0.0224
23932W        W37346  16.712   7.758   0.957 -0.0965  0.3316 -0.1190
23933W        W37347   3.744   0.288   3.734  0.2096  0.0880  0.3283
23934W        W37348   0.862  12.086  13.012  0.0029 -0.0934 -0.2818
23935W        W37349  15.284   7.357  15.370  0.0782  0.0329 -0.1586
23936W        W37350  12.824  16.549  14.488  0.2762  0.1849 -0.1171
23937W        W37351  11.201   9.025   4.200  0.1728 -0.3363 -0.0215
23938W        W37352   5.357  10.412  11.662 -0.0607  0.1595  0.0629
23939W        W37353   1.253   3.184  15.936  0.1015  0.1534 -0.0327
23940W        W37354   5.856   2.122   0.130 -0.0071  0.1029  0.0241
23941W        W37355   1.901   2.602  12.883 -0.1103 -0.1823  0.1112
23942W        W37356   5.981  16.660   5.412  0.0010 -0.0500  0.1411
23943W        W37357   9.568  12.508   3.406 -0.1226 -0.1541 -0.4242
23944W        W37358   7.457   0.760  11.810  0.0216  0.0530 -0.2397
23945W        W37359   6.892  10.517   5.865 -0.1865 -0.0499 -0.0078
23946W        W37360   1.190   7.886   4.639 -0.2346  0.0949  0.1006
23947W        W37361   2.275  11.636   0.923 -0.2409  0.0032  0.1144
23948W        W37362  12.615  14.603   2.758  0.1609 -0.0356  0.0831
23949W        W37363  12.065  13.381  12.719  0.0612  0.2371 -0.1352
23950W        W37364   8.654   8.534   5.225 -0.1122 -0.2699  0.2085
23951W        W37365  12.984  12.724  13.320  0.1963  0.0180 -0.3443
23952W        W37366   1.083  13.909  14.743  0.0842 -0.2846 -0.0091
23953W        W37367  11.936  18.213   2.420  0.0973  0.0451 -0.1312
23954W        W37368  12.625  16.361  10.723 -0.2401  0.1403  0.1074
23955W        W37369   3.353  13.301   5.085 -0.1649 -0.0214 -0.0017
23956W        W37370   4.258  17.208  16.233 -0.0217 -0.2110  0.3788
23957W        W37371  18.304   8.338  11.537 -0.2541  0.1782 -0.0743
23958W        W37372   2.201  11.521  10.074  0.3536 -0.2918  0.0807
23959W        W37373   9.349  17.925  15.212 -0.0878 -0.1847  0.5304
23960W        W37374  12.142  18.265  15.999 -0.1474  0.2433 -0.4103
23961W        W37375   7.389  10.098  14.277  0.2722  0.2884 -0.1719
23962W        W37376  14.496  11.335   2.547 -0.2698  0.2464 -0.0930
23963W        W37377  12.879   1.200  15.363  0.0842  0.1362  0.3209
23964W        W37378   4.176  11.542   5.105 -0.0515 -0.1915 -0.2366
23965W        W37379   3.877   5.392   0.187 -0.1252  0.1505  0.1376
23966W        W37380  18.087  15.024  13.650  0.2691 -0.1349 -0.3707
23967W        W37381  15.580   7.082  11.753  0.3332 -0.0822  0.1138
23968W        W37382  12.852   5.943   0.810 -0.1726  0.0358  0.0856
23969W        W37383   5.518  16.865  13.807  0.4611  0.0338 -0.1277
23970W        W37384  13.260  15.052   0.589  0.0737 -0.2452  0.0540
23971W        W37385   4.798   1.835   3.390 -0.2955 -0.4549  0.3469
23972W        W37386  16.211   7.280  11.858  0.0905 -0.0874 -0.1556
23973W        W37387   0.690   3.394  15.827  0.1573 -0.0600 -0.0076
23974W        W37388   1.762   1.591  12.254 -0.0873 -0.0925  0.1658
23975W        W37389  14.127   2.367  14.779 -0.0695  0.4628  0.2038
23976W        W37390   8.364  11.293  11.815 -0.2839 -0.3182 -0.0209
23977W        W37391  16.579  17.862   4.919 -0.1492  0.0911  0.2209
23978W        W37392   9.227  18.009  13.742  0.1108  0.0225  0.1025
23979W        W37393  15.647   5.510  13.298  0.2426  0.0732  0.0454
23980W        W37394  12.070  11.749  12.351  0.0344 -0.0255 -0.3820
23981W        W37395   0.168   2.511  12.715  0.2663 -0.0028  0.0026
23982W        W37396   1.579  11.158   2.231 -0.0953 -0.1829  0.0367
23983W        W37397   2.461  13.456   1.343 -0.1153 -0.2057  0.0442
23984W        W37398  14.161   5.151  12.975 -0.1843 -0.1329 -0.0106
23985W        W37399  16.384  13.438   6.096  0.1081  0.0280 -0.0953
23986W        W37400  14.116  15.846   3.039  0.0156  0.1046 -0.1270
23987W        W37401   6.070  14.643  15.535 -0.3286 -0.0897 -0.0204
23988W        W37402   1.328  15.544   5.296  0.3418  0.0703 -0.1068
23989W        W37403   1.981  11.868   4.871  0.1820 -0.3676  0.0979
23990W        W37404   6.049  10.368  11.228 -0.1072 -0.0471  0.1945
23991W        W37405   7.584  15.220   5.311 -0.0632 -0.0970  0.1207
23992W        W37406  15.415   1.455  11.972  0.0226  0.3980 -0.0442
23993W        W37407   4.300  18.066   1.586  0.5662  0.2231  0.0807
23994W        W37408   0.454   1.284   1.154 -0.1322 -0.3707 -0.0418
23995W        W37409  13.349   4.953   4.696 -0.1203 -0.0477  0.2943
23996W        W37410   8.180   9.721   2.434  0.0701  0.0607 -0.1297
23997W        W37411  16.142   1.104   0.970 -0.1360  0.2531  0.2629
23998W        W37412   7.575  17.924  13.786  0.0177  0.0641  0.0138
23999W        W37413  10.215   9.338   0.138 -0.1637 -0.1065  0.1917
24000W        W37414   3.586  10.098   5.249  0.3592 -0.2156  0.0878
24001W        W37415   9.623  16.264  12.403 -0.1995 -0.5353  0.0115
24002W        W37416   7.470  17.379  12.951 -0.1727  0.3205  0.0015
24003W        W37417   6.466   1.472   3.710  0.5296  0.2688  0.1425
24004W        W37418   9.239  18.188   2.941  0.1940  0.0923  0.1842
24005W        W37419   5.976   7.955   3.087  0.3684 -0.1721 -0.1889
24006W        W37420   7.760  18.116  14.860 -0.1858  0.3246  0.1498
24007W        W37421   2.035   2.481   4.444 -0.0188 -0.0621  0.0493
24008W        W37422   8.156   1.743   3.010  0.1556  0.3192 -0.5741
24009W        W37423   3.124  13.895  11.791  0.1044  0.1690 -0.0289
24010W        W37424   8.242   5.260   2.348 -0.0545  0.2783 -0.0243
24011W        W37425  13.707  16.030   5.282 -0.6063  0.1018  0.0108
24012W        W37426   7.961   2.470  12.326 -0.2559  0.1847 -0.0033
24013W        W37427  15.106   7.930   4.979  0.1081  0.1647 -0.2282
24014W        W37428   0.443   4.975  10.797 -0.0840 -0.3316  0.4641
24015W        W37429   4.623   2.579  15.844 -0.2450  0.0150  0.0107
24016W        W37430  16.594   1.183   2.864 -0.4417 -0.0168  0.3418
24017W        W37431  13.792   4.700  16.004  0.0493  0.3482  0.2393
24018W        W37432  12.592  11.271  14.397 -0.2209 -0.1145  0.1884
24019W        W37433   7.353   7.512   2.930 -0.1384  0.1272 -0.1773
24020W        W37434   0.805  11.183  14.258  0.0490  0.2216 -0.1066
24021W        W37435  14.719   2.659  10.353  0.3011  0.0634  0.0498
24022W        W37436   2.365   3.872  16.164 -0.0696 -0.3377  0.0821
24023W        W37437   1.771  11.484   2.721 -0.0537  0.3312 -0.0465
24024W        W37438  18.199  18.295  15.132 -0.0360  0.2320 -0.2567
24025W        W37439   2.200  11.581  14.987 -0.0373  0.0053 -0.2745
24026W        W37440  11.773   1.994   4.416 -0.0017 -0.3751 -0.1720
24027W        W37441   5.610   5.391  12.544  0.0318  0.0840  0.1339
24028W        W37442   2.827  10.074  10.948  0.3054  0.2568  0.1359
24029W        W37443  17.746  12.267   1.200  0.1099 -0.3034  0.1511
24030W        W37444   9.455   8.921   1.069 -0.4717 -0.2566  0.2038
24031W        W37445   5.259   0.159  13.816 -0.0468 -0.1125  0.1638
24032W        W37446   6.179  15.801   0.446 -0.1673  0.0891  0.0584
24033W        W37447  14.574  14.933   3.900 -0.1656  0.0564  0.2068
24034W        W37448   7.078  10.147  12.182 -0.0667  0.1478  0.0854
24035W        W37449  11.317   7.039   1.200 -0.0700 -0.0201  0.0481
24036W        W37450  17.931   9.021  15.837 -0.0808  0.1036  0.3708
24037W        W37451   5.120   2.246   2.294  0.1942 -0.0773  0.4030
24038W        W37452   7.174  18.078   3.592  0.2533 -0.0098  0.1863
24039W        W37453   2.442  11.566   2.051 -0.1123  0.4072  0.1198
24040W        W37454  12.084   5.447  12.715  0.0157 -0.1850 -0.0205
24041W        W37455  12.028   5.214  14.774  0.0937  0.1160  0.1657
24042W        W37456  14.055   5.283  14.806 -0.0737  0.0390 -0.0130
24043W        W37457  17.426   9.405   2.629 -0.1495  0.0990 -0.0361
24044W        W37458  13.163  17.571  16.362  0.0538 -0.0990 -0.0651
24045W        W37459  12.001  14.300   1.439  0.0839 -0.1684 -0.2498
24046W        W37460   5.377   0.945  14.449  0.1513 -0.2650  0.1334
24047W        W37461  13.173  15.678   4.595 -0.0679  0.3284 -0.1810
24048W        W37462  17.495   8.202  14.062  0.6234  0.1808 -0.0824
24049W        W37463  12.076  17.675  14.102 -0.1271  0.1994  0.2432
24050W        W37464  16.300  12.590   0.969  0.4739  0.1402  0.0879
24051W        W37465  12.912   9.825   4.542 -0.0424 -0.2533 -0.2272
24052W        W37466   3.869  13.335   5.190  0.0019 -0.1694 -0.3605
24053W        W37467  18.130   7.196   2.143 -0.0930  0.3196  0.2059
24054W        W37468   7.856   1.281   6.201  0.1519  0.2810 -0.0458
24055W        W37469   8.371   3.605   4.610 -0.1254 -0.1673 -0.2573
24056W        W37470   3.369  12.723  12.311 -0.0199 -0.1344  0.1659
24057W        W37471  11.534   4.888  10.286  0.0238 -0.2750 -0.1360
24058W        W37472  10.635   1.493  14.192  0.2526  0.0226  0.1474
24059W        W37473  15.371   9.688  12.046  0.0021 -0.0035 -0.1471
24060W        W37474   6.207  13.214  11.826 -0.3223 -0.1441 -0.1681
24061W        W37475  14.391   6.617  13.110 -0.0052 -0.3027 -0.1787
24062W        W37476  17.629   8.121   1.142  0.1648 -0.0616  0.1437
24063W        W37477  18.046   7.469   0.447 -0.0809  0.1019 -0.1050
24064W        W37478  12.520   5.192  15.577 -0.2678  0.0340 -0.0975
24065W        W37479  13.462   0.323  14.994  0.1484 -0.1044 -0.1350
24066W        W37480   4.890   5.163   2.311 -0.1751  0.2365 -0.3141
24067W        W37481  10.171   8.813  15.903 -0.3179  0.1316  0.2053
24068W        W37482   1.783  11.418   0.835  0.1236 -0.0489 -0.0748
24069W        W37483   7.742  12.525  14.256 -0.1177  0.2835 -0.1826
24070W        W37484  13.128  14.389  13.987 -0.1583 -0.0355 -0.1332
24071W        W37485   9.575   6.428   2.593  0.0654  0.0128 -0.3744
24072W        W37486  15.921  13.323   5.896 -0.2536  0.0325 -0.1243
24073W        W37487   5.988   2.122   2.911 -0.4058  0.0306 -0.0857
24074W        W37488   4.660  16.032   2.044 -0.0560 -0.0418  0.2633
24075W        W37489   7.449   4.269  14.629  0.1184  0.2906  0.3259
24076W        W37490   8.323  13.227   5.791  0.0608 -0.2634 -0.2436
24077W        W37491   6.150   5.815  13.707  0.1256 -0.1799  0.2143
24078W        W37492   9.300   6.736   0.332  0.2972 -0.1605 -0.0915
24079W        W37493  14.498  13.727   2.804  0.0863  0.3632  0.2852
24080W        W37494  18.092   1.465  14.166 -0.1198  0.0449  0.1764
24081W        W37495   9.784   8.810  11.357  0.0708  0.1851 -0.0125
24082W        W37496   0.762   5.663   2.478  0.3402  0.3625 -0.0538
24083W        W37497   0.131   1.758  13.958 -0.1059  0.1119 -0.1621
24084W        W37498   6.349   0.587   5.831 -0.0130  0.0824  0.2125
24085W        W37499   3.732   1.728   1.610 -0.0131  0.0157  0.3967
24086W        W37500  18.186  14.976   1.666 -0.1928 -0.0840 -0.3259
24087W        W37501   3.950  13.724   5.494  0.0905 -0.4286 -0.0574
24088W        W37502  14.384  15.493   2.389 -0.0703 -0.0034  0.0711
24089W        W37503  17.519  10.770  14.890  0.3289  0.0752  0.0588
24090W        W37504  17.163   1.144  15.665  0.1017 -0.0634 -0.0045
24091W        W37505   2.541   3.495   1.899 -0.1384  0.1098 -0.1632
24092W        W37506   3.280   4.108  12.893 -0.0121  0.2574 -0.1734
24093W        W37507   2.692   3.431   1.360  0.0118  0.1001 -0.4089
24094W        W37508  15.749  14.086   2.547  0.1045  0.4496 -0.2415
24095W        W37509   7.780   0.492   2.867  0.1806 -0.0122 -0.2283
24096W        W37510   6.989  10.960   4.062  0.1341 -0.1103  0.1881
24097W        W37511   3.543   2.005  16.207  0.0075 -0.4290  0.2979
24098W        W37512  15.711   9.431   1.566  0.2727  0.2001  0.0623
24099W        W37513  12.531  18.070  14.116  0.1209  0.4262  0.0604
24100W        W37514   4.422  16.377   5.374  0.0471 -0.2019 -0.1143
24101W        W37515   4.561   4.090   1.389  0.2306  0.1615  0.0222
24102W        W37516  16.395  11.018  15.095 -0.0167 -0.2508  0.1962
24103W        W37517  10.828   4.768   2.322  0.1462  0.1799 -0.2251
24104W        W37518  17.232   8.553   2.045  0.0984  0.1147  0.0820
24105W        W37519   1.556  17.611   1.921 -0.0931 -0.1674 -0.1234
24106W        W37520  18.123  17.436   3.792 -0.0288 -0.1504 -0.0082
24107W        W37521   0.581   8.850   2.262 -0.2654  0.0316  0.1626
24108W        W37522  13.948   5.845  14.789  0.0512 -0.1263  0.5016
24109W        W37523  16.279   3.273  15.936  0.0586  0.3707  0.0917
24110W        W37524  16.996   5.877  11.022  0.0447  0.0074 -0.1607
24111W        W37525  10.595   6.389  14.821 -0.0204 -0.1208  0.3297
24112W        W37526   0.365   2.442   0.187 -0.0707  0.1974 -0.0592
24113W        W37527  14.726  15.868  12.101  0.1021  0.2136  0.0546
24114W        W37528  10.221   2.604   4.547  0.0684 -0.1841  0.1072
24115W        W37529   0.714   0.593  11.915 -0.0992  0.3153 -0.2472
24116W        W37530  15.628  17.290   2.765 -0.0091  0.1383  0.0250
24117W        W37531   6.774  12.286  14.587  0.2610 -0.1087  0.2511
24118W        W37532  18.325   8.816   0.496 -0.3083 -0.1391 -0.0320
24119W        W37533   4.882  17.131   4.526  0.1112 -0.2030 -0.0624
24120W        W37534   4.914  13.257   2.363 -0.0196  0.0751 -0.0039
24121W        W37535  10.133  13.567   0.352 -0.0252 -0.1754  0.0042
24122W        W37536  12.510  10.387  12.875 -0.0175  0.2018  0.4234
24123W        W37537  10.529  11.959  12.058  0.3582 -0.0120 -0.3506
24124W        W37538  18.234  13.968   1.944  0.1424  0.1631 -0.0037
24125W        W37539  16.059   5.218  11.205  0.0663 -0.0995 -0.1950
24126W        W37540  12.990  13.272  14.222 -0.1190 -0.0200  0.0290
24127W        W37541   8.154   1.752   0.578  0.1124  0.0119 -0.2676
24128W        W37542  15.021  14.662  16.400  0.0050 -0.1062 -0.0538
24129W        W37543   5.764   5.694  16.334 -0.0443  0.1155 -0.2559
24130W        W37544   4.604   0.016   2.059  0.0249 -0.0757  0.0393
24131W        W37545   2.255   7.492  15.480  0.0099 -0.2760 -0.3038
24132W        W37546   8.685   2.558   1.121 -0.1770 -0.3187 -0.1442
24133W        W37547   0.564  10.034  14.901 -0.0638 -0.2020  0.0585
24134W        W37548   9.613   6.212   1.078 -0.0497  0.2612  0.0181
24135W        W37549   8.330   0.321   3.794 -0.2580 -0.1445  0.0550
24136W        W37550   5.100   2.333   5.222 -0.0763 -0.1177  0.0814
24137W        W37551   9.981  18.090   4.248  0.1267  0.0443 -0.2002
24138W        W37552   0.620   7.679  11.899 -0.0054  0.0547 -0.1936
24139W        W37553   3.323  15.402   3.473  0.0890 -0.0241 -0.2266
24140W        W37554   1.865  11.738   5.435  0.1182  0.0932 -0.0388
24141W        W37555  12.570   7.358  15.916 -0.0736  0.0929  0.1962
24142W        W37556   1.417   4.074   2.657  0.2392  0.0395 -0.2076
24143W        W37557  15.157  13.978  15.059  0.2277  0.0855  0.1256
24144W        W37558  16.377   6.721  16.347 -0.0858 -0.0445 -0.1083
24145W        W37559  12.566   5.602  12.398 -0.0251 -0.0046 -0.1483
24146W        W37560  11.296  18.284  13.378  0.1426  0.1966  0.0809
24147W        W37561   4.583   1.038  14.660 -0.2448 -0.2287 -0.1414
24148W        W37562   8.215   2.292  13.172  0.1658 -0.1677 -0.0986
24149W        W37563   9.269  18.098  12.271  0.0635  0.0638 -0.3881
24150W        W37564  17.219   0.465   2.915  0.1038 -0.2767 -0.0031
24151W        W37565   3.969   6.338   5.311  0.2700 -0.3455  0.0825
24152W        W37566   1.281  15.890   5.735 -0.1951  0.1260 -0.2460
24153W        W37567  11.254  16.169  13.714  0.1354 -0.1112 -0.0517
24154W        W37568   1.549   7.706   0.581 -0.0043  0.2103 -0.0065
24155W        W37569  16.191  10.405  15.411  0.2508 -0.1014 -0.0491
24156W        W37570   8.384   9.496  16.495  0.1681  0.2409  0.1348
24157W        W37571  15.139   6.418  12.930 -0.0621  0.0021 -0.1005
24158W        W37572   8.036   5.851   0.402 -0.1671 -0.3064 -0.0322
24159W        W37573  14.258  14.207   4.902 -0.2201  0.2466  0.2342
24160W        W37574  16.056   8.612   2.565 -0.0504  0.1579  0.1393
24161W        W37575   7.213  12.068  10.626 -0.0549 -0.1321  0.0538
24162W        W37576   3.676   4.118   2.433  0.0253 -0.1135  0.0658
24163W        W37577  11.043  16.370  15.477 -0.1785 -0.0305  0.1618
24164W        W37578   1.150   0.646  10.733  0.1492 -0.1057  0.1144
24165W        W37579   3.455  15.894   4.532  0.1578  0.0629  0.1101
24166W        W37580   1.452  12.786  16.412 -0.4179 -0.2409  0.0924
24167W        W37581   3.074  15.390  15.746 -0.0696 -0.0028  0.0504
24168W        W37582  10.400   5.851  10.704  0.1044  0.0276  0.0224
24169W        W37583   5.837  12.244  13.325  0.0580 -0.0244  0.1133
24170W        W37584   2.797  12.872  11.904  0.3100 -0.1893  0.0442
24171W        W37585   6.361   3.109   0.681  0.0567 -0.3708  0.1556
24172W        W37586  11.369   8.833  13.071 -0.1051  0.1805 -0.3100
24173W        W37587  15.988   5.011   0.524 -0.0571  0.1505  0.0693
24174W        W37588   4.971   6.572   3.740  0.1958 -0.1343 -0.0419
24175W        W37589  15.128  15.876  13.390 -0.0164 -0.0630  0.0908
24176W        W37590   1.459  10.029  12.080  0.2317  0.0645  0.1852
24177W        W37591   3.901   6.186   1.442  0.0987 -0.0330  0.1967
24178W        W37592  14.830   4.498  13.614  0.2277 -0.0048 -0.0938
24179W        W37593   5.048   9.307   2.661 -0.1812  0.1664  0.1624
24180W        W37594  13.938   2.653  13.744  0.2827  0.2235 -0.1151
24181W        W37595  13.114  14.408  15.838  0.0314 -0.1273 -0.4034
24182W        W37596  11.783  17.618   4.106  0.0047  0.1763 -0.0129
24183W        W37597  15.923  12.642   2.498 -0.2287 -0.0224  0.0112
24184W        W37598  10.093   3.865  11.237  0.0171  0.0640 -0.3063
24185W        W37599   6.015   9.845   0.870 -0.1435  0.1291 -0.0182
24186W        W37600   0.808  17.417  11.192 -0.1221 -0.2702  0.0362
24187W        W37601   0.596  15.316  12.655 -0.0969 -0.0834 -0.1512
24188W        W37602  13.468   9.533  14.783  0.0872  0.1460  0.0021
24189W        W37603  17.931  10.171  11.332 -0.2890 -0.4151  0.1372
24190W        W37604   1.286  13.399  12.212 -0.0230 -0.0146 -0.2879
24191W        W37605   4.862  14.768   5.436 -0.2490 -0.2597 -0.0509
24192W        W37606  15.229   5.924   2.486  0.0911 -0.5423 -0.0723
24193W        W37607  12.547  12.073  12.671  0.0419 -0.1110 -0.0711
24194W        W37608   7.497   0.329   2.165  0.0770 -0.0443 -0.2416
24195W        W37609   8.165  18.386  11.649 -0.0011  0.3658 -0.0229
24196W        W37610  10.597   2.270   4.539  0.0446  0.0588 -0.1558
24197W        W37611   7.770   8.051  11.547 -0.1745 -0.2135 -0.0194
24198W        W37612  15.419  15.979   5.735  0.0684  0.0674  0.4562
24199W        W37613  14.696   3.771  13.271  0.3246  0.1768  0.2772
24200W        W37614   3.051   0.509   5.325  0.2987 -0.3507  0.2082
24201W        W37615   3.058  10.834  13.647 -0.4081  0.4058  0.1369
24202W        W37616  15.172  11.240  14.547  0.0431 -0.0127 -0.0347
24203W        W37617  11.898  13.886   1.717  0.1762  0.2059  0.1735
24204W        W37618  13.207   3.685   2.356  0.4022 -0.0512 -0.2410
24205W        W37619   6.796   1.525  11.937  0.0980 -0.2967 -0.3124
24206W        W37620  17.920  14.435   4.221  0.2818  0.0312  0.0555
24207W        W37621  12.361   9.529   1.122  0.1949  0.1283 -0.1195
24208W        W37622   2.949  10.885   2.657  0.0068 -0.0251 -0.1667
24209W        W37623   9.013  14.667  11.039  0.4679 -0.1257  0.1472
24210W        W37624  16.878  14.130   1.655 -0.0896 -0.0343  0.1968
24211W        W37625  16.097   7.826  14.623 -0.1034 -0.0171 -0.2096
24212W        W37626  16.403  11.907   1.009 -0.2028 -0.3432 -0.3845
24213W        W37627   8.494   3.307  15.712 -0.0748  0.2981 -0.2756
24214W        W37628   6.500   3.331   5.073 -0.2379 -0.2720 -0.0714
24215W        W37629   9.411  10.101  15.445  0.1726  0.1594  0.1105
24216W        W37630  17.524   1.022   0.118 -0.2131  0.1495  0.0826
24217W        W37631   1.204   7.981   3.489 -0.1315  0.2729 -0.0862
24218W        W37632   0.327   1.058   0.662 -0.1861 -0.4381 -0.0650
24219W        W37633  15.621  15.638  13.659 -0.1553 -0.2659 -0.0310
24220W        W37634  12.525   8.391  16.283  0.0265 -0.0567 -0.0050
24221W        W37635  16.931  11.969   0.768  0.3338 -0.1501 -0.1357
24222W        W37636   1.456   4.789   2.014 -0.1135 -0.5031  0.1896
24223W        W37637   9.802  17.782  11.089 -0.1257  0.0088  0.3259
24224W        W37638   4.508   1.976  14.304  0.3085 -0.0887  0.1720
24225W        W37639   5.152   5.208   1.599 -0.0097 -0.0037 -0.2595
24226W        W37640  16.210   4.781   0.902 -0.0496  0.0094 -0.2140
24227W        W37641   0.873  13.334  12.446 -0.0895 -0.0576  0.2016
24228W        W37642   2.457   7.498   2.844  0.4795  0.1679  0.2969
24229W        W37643   3.532  12.309  12.179  0.0794  0.2681  0.0712
24230W        W37644   9.722   7.382  15.929 -0.0289  0.0240  0.1246
24231W        W37645  11.235   0.131   0.793  0.0900 -0.0688 -0.1905
24232W        W37646  11.841   5.821  15.951 -0.1607 -0.3904  0.5283
24233W        W37647  16.860   5.145  12.494 -0.1034 -0.1839 -0.3752
24234W        W37648  14.334  13.184   4.530 -0.1258  0.0122  0.1373
24235W        W37649  17.816   0.980   0.515 -0.1407  0.3697 -0.1749
24236W        W37650  12.683   3.593  12.608 -0.2260 -0.0635 -0.6094
24237W        W37651  12.314  12.655  13.901  0.0834  0.0940 -0.2360
24238W        W37652   5.294  12.373   0.376  0.0113 -0.0537 -0.1408
24239W        W37653   8.468  16.705   2.143  0.3497  0.0464  0.0123
24240W        W37654  14.406  16.566   2.386 -0.1007  0.0452 -0.4634
24241W        W37655   4.917  15.146  14.583  0.2701 -0.0665 -0.0288
24242W        W37656   6.194   0.565  15.943  0.1765 -0.0205 -0.1760
24243W        W37657  16.005  17.170  13.421 -0.2062 -0.2531  0.1467
24244W        W37658   4.499  15.942  15.954 -0.0102  0.1693 -0.3192
24245W        W37659   2.336  17.660   0.220  0.0578 -0.0613  0.0949
24246W        W37660   2.617   5.623   4.854 -0.0411  0.0842  0.1368
24247W        W37661  17.533   6.697  10.345  0.1239  0.4798 -0.1544
24248W        W37662  13.617   0.528  12.979  0.0420  0.1412  0.0993
24249W        W37663   5.550  13.901  10.592  0.0821  0.1391 -0.0105
24250W        W37664   2.643  12.189   3.942 -0.2175 -0.0329  0.0184
24251W        W37665   2.530  18.391  15.777 -0.3241 -0.0325  0.0219
24252W        W37666   1.013   1.851  16.104  0.1281  0.0448  0.0345
24253W        W37667  11.666  10.962   4.215 -0.2765  0.3013  0.0664
24254W        W37668  15.578  18.374  11.902 -0.0192  0.2077 -0.3219
24255W        W37669  12.591   1.617   1.787 -0.1601  0.1800 -0.0198
24256W        W37670   2.347   9.852  15.427  0.0173 -0.1260  0.1927
24257W        W37671  14.406   6.447  11.705  0.0912 -0.0110 -0.0337
24258W        W37672   1.229  17.065  13.231  0.3222  0.0470  0.2408
24259W        W37673  16.362   9.763   3.442 -0.0298 -0.1854 -0.2769
24260W        W37674   4.008   6.234   5.955  0.2748  0.1735  0.0211
24261W        W37675   4.832  11.359  15.642  0.1300 -0.0326  0.1681
24262W        W37676   9.611   4.604   3.323 -0.0694  0.2265 -0.3049
24263W        W37677  17.141   8.990   3.143 -0.0452  0.0765  0.3973
24264W        W37678   8.883  15.540   1.140 -0.2271  0.0884 -0.2944
24265W        W37679   8.712  10.839  16.162  0.4360  0.1849 -0.1816
24266W        W37680  11.180   6.987  15.567  0.3574  0.0873  0.0983
24267W        W37681   2.854   9.674  15.051 -0.0057 -0.2130  0.0398
24268W        W37682   3.040   8.794   1.253 -0.0718  0.4144  0.2625
24269W        W37683  17.922  12.427   1.646 -0.0445  0.0662  0.2607
24270W        W37684   2.945   9.923  14.630  0.0586  0.3247 -0.2151
24271W        W37685   2.621   4.128  13.521  0.3897  0.1352 -0.4417
24272W        W37686  18.107   9.299   6.285  0.2672  0.1175  0.0635
24273W        W37687  10.338   5.101  15.098 -0.0753  0.0671 -0.2239
24274W        W37688  16.343  14.934  15.126 -0.3235 -0.1371  0.1205
24275W        W37689  16.768  17.053   4.358 -0.0009 -0.0980 -0.1562
24276W        W37690   3.970  18.284  14.661  0.2882 -0.0206 -0.2161
24277W        W37691  14.895  12.904  15.502  0.0943  0.0328  0.2728
24278W        W37692   4.063  11.981  11.285 -0.0211 -0.1385  0.0014
24279W        W37693   1.642   3.606  12.058  0.3741  0.0465  0.0728
24280W        W37694  13.442  13.059   5.525  0.0701  0.2901  0.1727
24281W        W37695   5.159  16.724   1.367  0.0971 -0.1343  0.0392
24282W        W37696   4.549  17.764   5.891 -0.0484 -0.0768 -0.0843
24283W        W37697   6.261  16.342  14.476  0.2118 -0.0193 -0.2076
24284W        W37698  14.692  11.209  15.947 -0.0202  0.1112  0.1880
24285W        W37699  11.602  15.395  15.144 -0.1075  0.0334 -0.0381
24286W        W37700   7.408   6.332   5.448 -0.2253 -0.0676  0.3222
24287W        W37701  11.217   6.757   4.103 -0.2586 -0.1916 -0.2492
24288W        W37702  14.130  17.192  14.696  0.1738  0.0416 -0.0859
24289W        W37703   2.469  10.259   4.336 -0.0408 -0.0226  0.1253
24290W        W37704  13.377   3.194   4.330  0.0128 -0.1733  0.0719
24291W        W37705   7.722   1.705  15.312 -0.0747  0.1182  0.2797
24292W        W37706   2.505   0.920   6.179 -0.1462 -0.2449 -0.1764
24293W        W37707   9.984   5.703   2.054 -0.4461  0.0295 -0.0263
24294W        W37708  13.980   8.705   5.286  0.2415  0.1807 -0.2333
24295W        W37709   4.266   7.400  12.266 -0.0928  0.2485 -0.4488
24296W        W37710   4.945  10.932   0.006  0.5339 -0.0124  0.1389
24297W        W37711   4.125  10.221  12.473 -0.1993 -0.2774  0.3238
24298W        W37712  14.293  12.963   6.271 -0.0472 -0.0646 -0.0132
24299W        W37713  11.057  10.538   2.110  0.4108 -0.1448  0.1257
24300W        W37714  15.141   3.807  15.265 -0.0122  0.1042 -0.0845
24301W        W37715  13.741   4.888  15.541  0.1461  0.0947 -0.0848
24302W        W37716   3.462  14.533   2.672 -0.0365 -0.0209  0.2070
24303W        W37717   7.208  16.853  13.559 -0.1082  0.0218 -0.2304
24304W        W37718  17.655  18.218   0.743 -0.3113  0.1854 -0.1296
24305W        W37719  17.869  17.413   4.187  0.1506  0.0137 -0.1177
24306W        W37720   2.872  17.213   4.263  0.0952  0.2004 -0.0597
24307W        W37721  11.760   6.851   3.252  0.2350  0.0950 -0.0041
24308W        W37722   0.902   9.326  15.810  0.0418 -0.1048  0.1247
24309W        W37723  10.817  12.342  16.406 -0.1564 -0.0660  0.1343
24310W        W37724  16.782   3.056   5.700  0.0187  0.0596 -0.0211
24311W        W37725  17.166  13.074  15.406 -0.1465  0.0639  0.2968
24312W        W37726  10.495  10.777   2.582  0.1234  0.0723 -0.2562
24313W        W37727   7.222   7.332  11.729  0.3252 -0.0597 -0.2832
24314W        W37728   2.726   0.486  12.764  0.1270  0.1922  0.0222
24315W        W37729  10.388  16.732   4.645  0.0442 -0.0338 -0.1100
24316W        W37730   3.869  14.630  13.643  0.4490  0.1482  0.1233
24317W        W37731  10.308  12.331  10.081 -0.1792 -0.0485  0.2249
24318W        W37732  11.509   2.627  14.823 -0.2477 -0.5131  0.0735
24319W        W37733  13.577   8.928   2.725  0.1676 -0.3644 -0.2467
24320W        W37734   3.952  14.588   0.495  0.0586 -0.3393  0.2241
24321W        W37735   0.108   4.807  15.110  0.1612 -0.2414 -0.2274
24322W        W37736  14.526   3.065  14.320  0.1810  0.1767  0.0691
24323W        W37737   7.605   2.717   3.002  0.0629  0.3913 -0.1464
24324W        W37738   9.284  12.991   2.122  0.2652 -0.0910 -0.0818
24325W        W37739   4.107  12.024  14.740 -0.1891  0.0612  0.0854
24326W        W37740   3.200   4.511   4.118  0.1775 -0.0752  0.1051
24327W        W37741   6.593  11.200  12.295 -0.2263 -0.2123  0.2213
24328W        W37742   7.232  15.825  15.245  0.0770  0.0062 -0.0050
24329W        W37743  15.724  10.807  12.758  0.0213 -0.0231 -0.0463
24330W        W37744  13.425   2.776  10.449 -0.0857 -0.3249  0.0007
24331W        W37745  14.066  10.333   6.121  0.0947  0.0208 -0.0554
24332W        W37746   8.659   8.775   4.779  0.2821 -0.0092 -0.0391
24333W        W37747  14.386  11.521   4.724 -0.3148  0.0036 -0.1290
24334W        W37748   1.892  11.723  14.621 -0.3119 -0.0996 -0.3240
24335W        W37749  12.578  17.592  14.253  0.0256  0.0332 -0.2607
24336W        W37750   4.543  11.506  14.449 -0.0478  0.0773 -0.2109
24337W        W37751   0.179   0.677   2.904 -0.0057  0.0387  0.1304
24338W        W37752   3.220  14.076  13.111 -0.0758 -0.0629 -0.0478
24339W        W37753   6.475   6.028   4.672 -0.4592  0.1243 -0.1251
24340W        W37754   3.432   5.404  13.156 -0.1031  0.2824 -0.2104
24341W        W37755   2.179  14.104  11.364 -0.2039  0.1877 -0.2367
24342W        W37756   7.728   7.117   1.311  0.0344  0.1485 -0.1457
24343W        W37757   9.694  15.140  16.221 -0.0400  0.0227  0.2673
24344W        W37758  11.208  11.791   1.268  0.0145  0.2766 -0.0689
24345W        W37759  13.567   7.472   3.376 -0.3342  0.0438  0.0945
24346W        W37760   6.946   7.582  15.491 -0.2916  0.1399 -0.2867
24347W        W37761  15.820   6.836  11.016  0.3025 -0.1034 -0.1449
24348W        W37762  11.736   6.927  16.275 -0.3100  0.0490 -0.1639
24349W        W37763  10.994   3.550   2.622  0.3759  0.0291  0.0247
24350W        W37764   5.871   1.775  13.733 -0.1210 -0.1677 -0.0362
24351W        W37765   3.599  17.120  14.161 -0.0598  0.4141 -0.1919
24352W        W37766  18.227  14.172   6.655  0.0110 -0.0742  0.0360
24353W        W37767   6.177   1.380  10.078  0.1388 -0.1488  0.2158
24354W        W37768   0.212  10.859  11.422 -0.1631  0.1264 -0.1837
24355W        W37769   6.521   4.191  10.914 -0.0841 -0.0838 -0.0842
24356W        W37770   6.513  13.377   0.983 -0.0013 -0.2414  0.0978
24357W        W37771  12.314   5.503   5.838  0.2270 -0.2900  0.0154
24358W        W37772  15.410  15.775   5.057 -0.1307  0.0386 -0.3847
24359W        W37773  14.690  15.776   1.024  0.0434  0.1075 -0.2495
24360W        W37774   0.487   7.286   4.338  0.1515  0.0601 -0.1978
24361W        W37775   6.339  13.144  11.388 -0.1253  0.0160  0.0703
24362W        W37776   2.605  15.048   4.316  0.1579  0.1015  0.1882
24363W        W37777  14.360  12.874  15.892 -0.2043  0.0714 -0.0801
24364W        W37778  16.437  12.320   2.133  0.0420  0.1833  0.3537
24365W        W37779  17.930   8.213   5.195 -0.0655 -0.0627 -0.3350
24366W        W37780  15.370   5.562   2.192  0.1204 -0.0057  0.0560
24367W        W37781   7.033   0.636  12.087 -0.1605 -0.0334 -0.2650
24368W        W37782   3.193  16.657   4.118 -0.1341  0.1837 -0.0026
24369W        W37783   7.400   7.670  15.161 -0.0019  0.2538 -0.0080
24370W        W37784  15.105  16.311   5.073 -0.0771 -0.3771 -0.2376
24371W        W37785  13.011  14.546   6.633 -0.0206 -0.4034  0.1924
24372W        W37786  11.319   8.150  14.613 -0.4354  0.4491 -0.2014
24373W        W37787   1.956   0.671   4.309 -0.1415 -0.1815  0.1259
24374W        W37788   3.691   8.871  12.476 -0.0972  0.0879  0.1289
24375W        W37789  15.355   6.522  10.182  0.3747 -0.0331  0.3976
24376W        W37790   9.027   0.198  11.914 -0.0068 -0.0350  0.1748
24377W        W37791   2.268   2.906  11.171 -0.3412 -0.0841  0.0288
24378W        W37792   8.497   5.751   0.277 -0.0837  0.2930 -0.2856
24379W        W37793  12.065  17.901  12.088  0.1270  0.3097  0.0466
24380W        W37794  17.743   1.395  15.731 -0.0497  0.3832 -0.0097
24381W        W37795   8.464   2.973   0.347 -0.2040 -0.1508  0.2633
24382W        W37796   9.101   6.104   3.985 -0.1151  0.0421 -0.1718
24383W        W37797  12.484   0.371  11.163 -0.3154 -0.0592 -0.1256
24384W        W37798  12.068   5.527   1.683 -0.1022 -0.1106  0.3747
24385W        W37799   3.782   3.800  15.881  0.0620 -0.0518  0.4186
24386W        W37800   1.687  11.944   9.869  0.0579 -0.0691  0.0710
24387W        W37801   0.316  10.298   4.084  0.1605  0.0750 -0.1206
24388W        W37802  16.273  15.801   2.242 -0.0977 -0.1336  0.2697
24389W        W37803   9.890  11.100  11.742  0.0166 -0.1483 -0.1540
24390W        W37804   0.717  17.987  12.624 -0.2859 -0.1158 -0.1425
24391W        W37805  13.988   6.773  14.657  0.2515 -0.2128 -0.0226
24392W        W37806   4.758   6.759   4.132  0.2015 -0.0699 -0.0034
24393W        W37807   4.540   0.261   5.260 -0.3054 -0.0583 -0.0954
24394W        W37808  11.982  15.559   3.316  0.1869 -0.1902  0.0113
24395W        W37809   6.678   8.106   4.476  0.2196 -0.4801  0.2547
24396W        W37810  11.202  16.293   5.267  0.0577 -0.0794 -0.0681
24397W        W37811   6.668   4.392  12.745 -0.2448  0.2729  0.0904
24398W        W37812   4.286  10.093  13.975 -0.0395 -0.0832  0.2299
24399W        W37813  15.359   4.369   5.738  0.2036 -0.0230  0.0292
24400W        W37814   4.858  13.156   6.097  0.2451  0.1160  0.0572
24401W        W37815  12.974   5.337   2.502  0.2256  0.0475  0.2208
24402W        W37816   9.156  16.960   0.368 -0.4080 -0.1613 -0.1327
24403W        W37817   4.559   9.908   5.589  0.0215 -0.1064  0.1499
24404W        W37818   7.671   2.246   2.100 -0.0830 -0.0307  0.2127
24405W        W37819  10.862  17.842  15.168 -0.0079 -0.3262  0.0966
24406W        W37820   8.218  16.483   2.605  0.2588 -0.1223 -0.0527
24407W        W37821  14.553   1.563   6.170  0.0274  0.0872  0.1559
24408W        W37822   0.299  15.693  12.800  0.2494 -0.2165 -0.0582
24409W        W37823   8.229   9.551   4.439  0.0074  0.4267  0.0819
24410W        W37824   2.758   2.729  14.053  0.1102  0.0037  0.3039
24411W        W37825  16.305  10.265   3.083  0.1429  0.0719  0.2375
24412W        W37826   2.497  12.417  11.902 -0.2251 -0.1020  0.0602
24413W        W37827  12.956  12.355   2.481  0.0689 -0.0408 -0.3223
24414W        W37828  14.514   8.165   2.099 -0.0335 -0.0058 -0.1373
24415W        W37829  13.798   4.264   4.461  0.1700  0.1202  0.1080
24416W        W37830   2.741   5.583   3.295 -0.0289  0.0840  0.0924
24417W        W37831  10.776  10.947  10.198 -0.3349  0.3652 -0.0421
24418W        W37832   3.510   4.533   3.626 -0.0791  0.1922 -0.0154
24419W        W37833   9.625   7.750  15.615 -0.1746 -0.2820 -0.1230
24420W        W37834   1.530   9.037  14.760  0.1021  0.0974 -0.1105
24421W        W37835  14.417   6.072  15.900 -0.1104  0.0890  0.0826
24422W        W37836  14.141   9.448  11.593  0.1208  0.0095 -0.1150
24423W        W37837  13.715  10.412  13.058  0.2466 -0.0732  0.0313
24424W        W37838   7.130   3.261  15.893  0.0604  0.1420  0.0277
24425W        W37839  11.578  12.298   2.662  0.0475 -0.0772 -0.3286
24426W        W37840   1.621  11.324  10.953 -0.1039  0.0248 -0.2442
24427W        W37841  17.182   3.057   4.366  0.1774  0.2263 -0.2334
24428W        W37842  15.355  13.792   0.725  0.3179 -0.1483  0.1918
24429W        W37843   8.337  13.379  15.330 -0.0251  0.1490  0.1089
24430W        W37844  15.645   1.091  14.280 -0.1043 -0.1327 -0.2681
24431W        W37845   2.425   7.998   5.969  0.0840  0.1429 -0.1118
24432W        W37846  10.215   2.697  16.178 -0.0921  0.0624  0.1903
24433W        W37847  16.991   3.763  12.340 -0.4140  0.0897 -0.2334
24434W        W37848  17.695   0.449   2.764  0.2073 -0.0857  0.1945
24435W        W37849   1.043  10.813  13.929  0.2824 -0.3179 -0.1297
24436W        W37850  15.876  17.242   0.372  0.0514  0.1740  0.1589
24437W        W37851  10.360   1.272   1.093 -0.1634  0.0861 -0.1477
24438W        W37852   8.680   9.390   1.934  0.2309  0.1117 -0.0547
24439W        W37853  15.100   3.803  12.906  0.2426 -0.0533  0.1504
24440W        W37854   5.453   9.589  10.484  0.1296  0.0495  0.2276
24441W        W37855   4.395   5.897   4.007  0.1857 -0.3654  0.2824
24442W        W37856  12.064  17.294   5.773  0.2258  0.0049  0.0187
24443W        W37857   5.932  11.687   5.776  0.0969  0.1986  0.0006
24444W        W37858   6.902   4.050  13.142 -0.3040 -0.1369 -0.0813
24445W        W37859   8.212  11.694   4.435 -0.0771 -0.1016 -0.4504
24446W        W37860   6.113   4.746  10.069 -0.1587  0.0217  0.2065
24447W        W37861  11.166  10.633  11.824  0.3641 -0.1035  0.0751
24448W        W37862  15.604  14.363   5.597 -0.3125  0.2231 -0.1290
24449W        W37863  10.536   2.019  10.710 -0.1425 -0.1498 -0.0389
24450W        W37864   6.214  16.761   4.954 -0.0651 -0.0254 -0.2159
24451W        W37865  12.134   4.084   4.204  0.1347 -0.2233  0.2490
24452W        W37866  14.581   2.844  12.026  0.0519  0.0703  0.2852
24453W        W37867  16.412   5.546  15.704 -0.2861  0.0843 -0.1600
24454W        W37868   0.187  16.673  11.344  0.2158  0.3126 -0.1867
24455W        W37869  15.700  10.130  15.515 -0.1986 -0.1284 -0.1253
24456W        W37870   3.634  12.258   2.622 -0.1414 -0.1442 -0.1242
24457W        W37871   6.579   4.357  14.488 -0.2490 -0.1111  0.0931
24458W        W37872   3.719  14.694   6.385  0.1826 -0.0753  0.0928
24459W        W37873   6.056  16.449  11.364  0.0291 -0.0712  0.0928
24460W        W37874  18.119   2.112  11.526  0.1127 -0.0449 -0.2704
24461W        W37875   1.244  17.019   2.509  0.1059  0.2514 -0.0799
24462W        W37876  16.269   1.374   4.221 -0.3041  0.1044  0.1978
24463W        W37877   0.554   2.231  10.947 -0.1228  0.0243  0.1494
24464W        W37878   8.960   5.811   1.382  0.1294  0.0769  0.0965
24465W        W37879  17.495  11.916  11.669 -0.1666 -0.0610  0.1884
24466W        W37880  10.054   5.129  12.051  0.1513  0.0553 -0.1114
24467W        W37881  10.850  17.938   5.946 -0.0865  0.1231 -0.0210
24468W        W37882  15.210  11.298  15.069  0.0902 -0.0649  0.1223
24469W        W37883  11.767  12.288  15.752  0.1339  0.4734 -0.1832
24470W        W37884   7.548  13.865   3.124  0.1230  0.0861  0.0392
24471W        W37885   4.783   4.741   2.520  0.0756 -0.1210  0.1159
24472W        W37886   1.772  16.014  14.457 -0.2528 -0.1017 -0.1616
24473W        W37887   2.769   7.174   0.467  0.1489  0.0120 -0.1377
24474W        W37888   2.897  14.240  15.831  0.0368 -0.0930 -0.0996
24475W        W37889  18.319  10.631  15.392 -0.1555 -0.1220  0.0823
24476W        W37890  16.400  17.874   5.817 -0.0354 -0.0522  0.0725
24477W        W37891  15.978   9.795   1.465  0.2348 -0.1977  0.0436
24478W        W37892   5.385   0.578  12.053 -0.0800  0.1057  0.2874
24479W        W37893   6.207   4.458   0.802 -0.0638 -0.0493 -0.2032
24480W        W37894  10.152   9.501   3.895  0.6095  0.1493  0.0324
24481W        W37895   8.751  18.306  15.990  0.4264 -0.0045 -0.1030
24482W        W37896  10.413  15.875   3.703  0.0450 -0.0977 -0.1831
24483W        W37897  13.037  13.802   6.016  0.1022  0.1833  0.3026
24484W        W37898   8.358   6.431   5.280  0.0900 -0.1819 -0.2633
24485W        W37899   9.394  15.285   4.338  0.3012  0.3045 -0.0035
24486W        W37900   8.790  18.107  12.097 -0.0704  0.0738  0.3028
24487W        W37901  12.602   4.138  15.861  0.0049  0.0416 -0.2304
24488W        W37902  12.769   9.291  14.330  0.0530  0.1271 -0.1091
24489W        W37903  17.365   1.033  14.461 -0.0297 -0.3321  0.2722
24490W        W37904   5.321  14.522  12.190 -0.1577 -0.0256 -0.0095
24491W        W37905   6.998  17.803  10.780 -0.0042  0.3575  0.0066
24492W        W37906  12.596  18.376   1.841 -0.1876  0.1034 -0.1609
24493W        W37907   1.254  16.802  14.192 -0.2108 -0.0511  0.2025
24494W        W37908  11.504  12.277  11.320 -0.1107  0.3229 -0.2027
24495W        W37909   2.204  14.892   0.090  0.1832 -0.4409  0.1322
24496W        W37910   7.983   9.411  12.158 -0.1425 -0.0091  0.1337
24497W        W37911  10.390  14.862  11.150 -0.0999 -0.2327  0.0541
24498W        W37912  10.207   2.396  15.193 -0.0173 -0.4048 -0.0299
24499W        W37913  10.624  12.926   0.547  0.0766  0.0618  0.2197
24500W        W37914  14.803   8.150   4.248 -0.3138  0.2539  0.2101
24501W        W37915   8.034  16.551  13.813  0.3886  0.0645  0.0787
24502W        W37916  15.078  12.468  13.096 -0.0561  0.0940 -0.1847
24503W        W37917  14.258  12.310  15.124  0.0421 -0.3542  0.2559
24504W        W37918  16.608   6.353  14.775  0.0172 -0.1441 -0.3451
24505W        W37919   3.825   4.277   1.960 -0.0869 -0.0825 -0.3629
24506W        W37920  16.849   5.376   4.419 -0.1533 -0.3399 -0.1402
24507W        W37921  12.393   9.906   1.466  0.1006  0.3505 -0.0272
24508W        W37922   1.352  10.029  16.343 -0.2413  0.0688 -0.2234
24509W        W37923   3.687  11.418   5.127  0.2704  0.0339  0.1776
24510W        W37924  13.573  10.053  14.851 -0.0459 -0.1032 -0.0317
24511W        W37925   7.120   7.818   3.333  0.3203  0.3335 -0.0189
24512W        W37926   4.061   5.578   4.390  0.4675  0.0661 -0.1548
24513W        W37927   6.416  14.297   0.022 -0.3106  0.2448  0.4532
24514W        W37928  15.929  16.793  15.249  0.1894  0.0374 -0.0283
24515W        W37929   5.928   3.633  12.081 -0.3310  0.0377  0.0987
24516W        W37930   6.588  14.872   6.049  0.0489  0.2011 -0.2202
24517W        W37931  10.991   6.651   4.521 -0.4170  0.3909 -0.0950
24518W        W37932   6.964  17.533  15.720  0.0822  0.1888 -0.3163
24519W        W37933   9.746   1.518   0.491  0.0377  0.3620  0.0447
24520W        W37934  17.390   6.598   3.585 -0.0361 -0.3385 -0.3452
24521W        W37935   2.857  10.277   5.506 -0.5718 -0.0690 -0.0150
24522W        W37936  17.452   0.931   2.005 -0.5698 -0.0771  0.0936
24523W        W37937  12.768   8.827   2.145  0.6003  0.1151  0.1180
24524W        W37938   7.200  10.892   5.147  0.0192  0.0030 -0.3638
24525W        W37939  13.697  11.204  13.861 -0.0894  0.0882  0.3018
24526W        W37940  12.708   0.978  14.970 -0.0777 -0.0009 -0.2342
24527W        W37941  14.800   1.865   4.198 -0.0925 -0.1281  0.1060
24528W        W37942  15.439  17.170   3.275  0.0411 -0.0771 -0.1384
24529W        W37943   0.978  17.627   4.423  0.0655  0.0068  0.0011
24530W        W37944   5.575  16.754   2.192 -0.1524 -0.0041 -0.0473
24531W        W37945   7.687  15.193  11.276  0.1755  0.1017 -0.0471
24532W        W37946   0.595  16.841   6.924 -0.4127 -0.0011 -0.2274
24533W        W37947   0.993  14.919  14.803 -0.0765 -0.0551 -0.1392
24534W        W37948   0.921  10.412  13.054 -0.1913  0.3197  0.2980
24535W        W37949   2.746   8.263   2.370  0.0935  0.1568 -0.0919
24536W        W37950   3.694  11.537  13.940 -0.0893  0.0851  0.0518
24537W        W37951  17.041   3.769   1.246 -0.2234  0.1420 -0.3133
24538W        W37952   6.551  10.225  15.865 -0.2310 -0.0953  0.0004
24539W        W37953   9.070  14.758  12.430  0.0897  0.0619 -0.2608
24540W        W37954   4.798  12.163   5.700  0.1153 -0.0245 -0.2000
24541W        W37955  10.486   1.080   4.283  0.0006  0.0900  0.1694
24542W        W37956   7.354   3.036   1.537  0.0570 -0.1019  0.0371
24543W        W37957   7.208  13.727  15.172 -0.0401 -0.1678  0.1000
24544W        W37958   9.729   5.650   5.180  0.2886  0.4853 -0.1397
24545W        W37959   4.298  18.204  13.160 -0.1804  0.2414  0.4050
24546W        W37960  14.551  12.925   5.862 -0.2158  0.0487  0.0731
24547W        W37961  16.863  11.169  13.792  0.0511  0.2427  0.0563
24548W        W37962   1.828   3.065  16.350  0.2619 -0.0533 -0.1877
24549W        W37963  16.768  17.514  16.368  0.0429  0.1658  0.1380
24550W        W37964   4.248  12.501   5.255  0.1260 -0.1985  0.5412
24551W        W37965  11.205   4.144  14.836 -0.1277 -0.1898  0.1239
24552W        W37966   1.413   7.681  13.201 -0.3249  0.0156 -0.0471
24553W        W37967   1.600  17.694   2.526  0.0176  0.1958  0.0162
24554W        W37968   1.496   6.055   2.263  0.2350 -0.1062  0.0205
24555W        W37969   8.026   0.470  12.277 -0.1038 -0.1110 -0.1294
24556W        W37970   6.842   4.780  13.378 -0.0161 -0.0348 -0.1457
24557W        W37971  17.120   6.625   0.092  0.0304  0.0318  0.0333
24558W        W37972   6.115   6.467   2.482  0.1447 -0.1118 -0.3634
24559W        W37973   0.155  15.816  12.345 -0.0552  0.0703 -0.1000
24560W        W37974   0.762   1.869  13.157  0.3623 -0.2791 -0.3064
24561W        W37975   7.342   4.603   3.464 -0.3085 -0.1855 -0.0157
24562W        W37976   2.742   5.930   1.694 -0.0315  0.0230 -0.2148
24563W        W37977   1.426  12.321   4.040  0.0779  0.0858 -0.0342
24564W        W37978   4.609   7.761   1.752  0.1601  0.1253 -0.0772
24565W        W37979  13.267   4.329  14.930 -0.2216 -0.0066  0.0803
24566W        W37980  17.559   8.253   1.602 -0.1438 -0.2019 -0.1180
24567W        W37981   0.309  17.339  13.284  0.2139 -0.0615  0.0682
24568W        W37982   7.544  10.758  12.383  0.2388  0.0059 -0.2595
24569W        W37983  11.049   1.824   0.480 -0.1475  0.2817  0.1537
24570W        W37984  12.786   0.105  13.287  0.3085 -0.3406  0.1094
24571W        W37985  11.641   8.809  11.352  0.0697 -0.1408  0.0931
24572W        W37986   5.050  11.042  12.301 -0.3665  0.1011 -0.0944
24573W        W37987  10.927   1.948  11.091 -0.0857 -0.2441  0.1238
24574W        W37988  17.764  10.288  13.535 -0.0811  0.2112  0.1578
24575W        W37989   4.082   1.821  11.824  0.0979 -0.0225  0.0622
24576W        W37990  10.375   6.942   0.293  0.1188 -0.0440 -0.0656
24577W        W37991  17.716   7.477  12.523  0.1881 -0.2566 -0.0665
24578W        W37992   0.794  15.729   5.786 -0.2659  0.1484  0.0885
24579W        W37993   1.870   1.997  16.485 -0.1531 -0.2566  0.1609
24580W        W37994   0.838  12.987   5.668  0.0949  0.2399 -0.2772
24581W        W37995   5.228  12.246  16.297  0.0692 -0.0455 -0.2556
24582W        W37996  12.344   5.403  14.233 -0.1615 -0.2350  0.0947
24583W        W37997   7.376  11.176  12.154  0.2087 -0.1659 -0.4677
24584W        W37998   7.684  12.212   5.801  0.1157 -0.0325 -0.0266
24585W        W37999   4.172  18.372  15.962  0.0358 -0.1342  0.2051
24586W        W38000  14.858  17.616   0.708 -0.1413  0.1373 -0.0876
24587W        W38001   6.751   3.078  12.887 -0.0864  0.0657  0.0745
24588W        W38002  17.375  14.101  13.955 -0.0654 -0.0572 -0.4957
24589W        W38003   2.015  13.852  13.264  0.2196  0.3372 -0.0722
24590W        W38004  14.475   2.840  16.225 -0.0111 -0.1254 -0.4688
24591W        W38005   3.717   4.181  12.590  0.0024 -0.0456  0.1000
24592W        W38006  12.761   7.201   1.817  0.0334 -0.1800 -0.0290
24593W        W38007   5.700   4.747   1.383 -0.1405 -0.0062 -0.1240
24594W        W38008   2.768   4.980  11.670 -0.0090  0.1877 -0.0658
24595W        W38009  12.596   8.150   1.912  0.0015 -0.0937  0.0579
24596W        W38010  11.367   4.010   4.543  0.0781 -0.1637 -0.1585
24597W        W38011   3.318   0.400  15.341 -0.2989 -0.0915 -0.3220
24598W        W38012   8.458   6.086  15.410  0.1513 -0.0987  0.0920
24599W        W38013   7.973  10.324  11.175  0.1034 -0.1736  0.0043
24600W        W38014   4.490  18.230   4.961  0.0750 -0.0098  0.0092
24601W        W38015   9.456   5.149   4.014 -0.2808 -0.1251  0.0355
24602W        W38016  10.141  13.184  11.115  0.2977 -0.2580 -0.1762
24603W        W38017   9.185   0.410  12.810  0.0598 -0.1394 -0.0960
24604W        W38018   6.757  17.628   4.860 -0.0115 -0.1558 -0.0183
24605W        W38019   1.925  13.422   2.059 -0.2927 -0.0732 -0.1373
24606W        W38020  17.157   2.115  11.665 -0.4427 -0.0048  0.1766
24607W        W38021   5.156  16.148  14.461 -0.4243  0.2703 -0.0604
24608W        W38022   7.037  18.263  12.345 -0.0970 -0.0135 -0.0054
24609W        W38023   4.046  16.127   6.128  0.3718  0.0758 -0.0828
24610W        W38024   5.255   0.992  11.132  0.2241 -0.1750 -0.0797
24611W        W38025   6.618  10.712   3.827  0.1963  0.0795  0.1066
24612W        W38026  12.121   9.978   3.613 -0.0205 -0.0907 -0.0700
24613W        W38027   7.605  11.661  14.758  0.1630 -0.0918  0.1762
24614W        W38028  11.169   7.705  11.564  0.2246 -0.0141 -0.0904
24615W        W38029   3.820  12.836  15.299 -0.0675 -0.1813  0.2226
24616W        W38030   1.121   4.459  11.371 -0.1695  0.0908  0.0902
24617W        W38031  11.877  17.504   6.188  0.3578 -0.0664 -0.1860
24618W        W38032   5.412  10.409   0.259  0.0848  0.1835  0.0195
24619W        W38033   0.108   5.749  10.955  0.0009 -0.3385  0.1229
24620W        W38034   3.474   9.387  16.203  0.2271  0.1230  0.1138
24621W        W38035  13.221  17.187   2.692  0.0490 -0.1253 -0.1203
24622W        W38036  12.761  10.569   3.952 -0.1591 -0.1122  0.2467
24623W        W38037  15.367  10.814  13.299  0.5085 -0.0597  0.2172
24624W        W38038   9.994   0.331  14.588 -0.2175  0.0598  0.3120
24625W        W38039  15.853   1.097  15.575  0.4202  0.1607  0.2510
24626W        W38040  13.469   8.434  14.043 -0.0558 -0.4539 -0.1959
24627W        W38041  18.200   1.860   2.264 -0.3409 -0.0890  0.1382
24628W        W38042   2.384   3.801   1.499  0.0996  0.1651 -0.1907
24629W        W38043  11.062   3.684  12.378  0.0202  0.2603 -0.0932
24630W        W38044   8.258  15.731  16.492 -0.0390 -0.1381  0.3862
24631W        W38045   5.224  15.453   3.878  0.0571  0.1921  0.3514
24632W        W38046   8.624  14.103  10.327  0.3086 -0.1387  0.0469
24633W        W38047   4.459  16.969   4.789  0.2678  0.0769  0.1260
24634W        W38048   5.025  18.344  16.494  0.1885 -0.0477 -0.2398
24635W        W38049   5.834  12.437  14.789 -0.1690 -0.0473 -0.0093
24636W        W38050   0.106  14.322   2.266 -0.0283 -0.1138  0.3691
24637W        W38051   4.840  15.109   3.983 -0.0788 -0.2184 -0.0490
24638W        W38052   6.300   0.884   1.463 -0.1069 -0.1702 -0.2897
24639W        W38053   3.454  13.434   1.290 -0.0073 -0.2116 -0.0785
24640W        W38054   1.437  11.005   3.770  0.2007  0.0230 -0.0691
24641W        W38055  16.359   6.342   4.376  0.1137  0.0887 -0.1496
24642W        W38056  16.111   7.290  13.336  0.0435  0.4019 -0.1871
24643W        W38057  15.484  14.889   1.813 -0.1677 -0.1249  0.0985
24644W        W38058   9.414  18.055  10.360  0.2747  0.2416 -0.0414
24645W        W38059  17.829   8.076   4.097 -0.2787  0.1389 -0.1949
24646W        W38060   7.765  15.135   1.516  0.1063  0.2374 -0.2358
24647W        W38061  17.048  12.374   0.517 -0.1476 -0.2018 -0.0776
24648W        W38062   8.304   0.993  11.094  0.2611 -0.0397 -0.1706
24649W        W38063  13.115  10.522  14.095  0.1157  0.3115 -0.0460
24650W        W38064  11.345   1.658   2.056  0.3476  0.1654  0.2264
24651W        W38065  18.333   6.832   1.173 -0.0555  0.0851 -0.1546
24652W        W38066   5.111   3.852   4.509 -0.1540 -0.1390 -0.0071
24653W        W38067  17.722  17.210   4.636 -0.1270  0.0278  0.1824
24654W        W38068  15.482   8.924  11.958  0.0822 -0.0364  0.1595
24655W        W38069   4.543  16.848  13.887  0.1398 -0.0120 -0.0411
24656W        W38070   8.821  12.856  12.133  0.0672  0.0966 -0.0046
24657W        W38071   9.019   3.139  13.208  0.0771  0.2673  0.0332
24658W        W38072  10.954   3.277  15.015 -0.0714  0.1432  0.0312
24659W        W38073  14.747  14.144  15.371  0.0127  0.0394  0.0131
24660W        W38074   7.162   8.064   2.930 -0.0964 -0.0562  0.0787
24661W        W38075  17.666  12.652  12.712 -0.1851 -0.1560 -0.0629
24662W        W38076  15.803  18.155  14.855  0.1989  0.1486  0.1108
24663W        W38077   1.504   3.302  11.094 -0.0084  0.2244 -0.1709
24664W        W38078  11.382  10.225  13.842  0.3490  0.0997 -0.1172
24665W        W38079  15.505   7.957   5.678 -0.0911  0.0475 -0.1344
24666W        W38080  16.046  17.851  12.519 -0.1473 -0.2055 -0.0252
24667W        W38081   8.670  11.925   4.434 -0.2743 -0.1655  0.3658
24668W        W38082  17.181   1.089   5.661  0.4068 -0.0087 -0.0601
24669W        W38083   2.313   1.599  13.450  0.0611  0.1241  0.0258
24670W        W38084  13.828  15.836   0.645  0.2404 -0.2810  0.2260
24671W        W38085  10.391   2.447  13.156  0.1232  0.0623 -0.1692
24672W        W38086  16.478  16.178   0.885 -0.2257  0.0274  0.1166
24673W        W38087  15.298  10.475  15.745 -0.0520 -0.0010  0.2057
24674W        W38088  12.995   4.248  13.831 -0.0428  0.0582  0.3715
24675W        W38089   5.124   0.119   1.842 -0.1730 -0.0261 -0.1702
24676W        W38090  10.975   7.390   0.288 -0.0107  0.1952 -0.1110
24677W        W38091  15.305   1.263  13.900  0.2164 -0.2576 -0.0009
24678W        W38092  12.041  13.021   0.497  0.0812 -0.0116 -0.4119
24679W        W38093   5.501  15.742   5.471 -0.1476 -0.1533 -0.1438
24680W        W38094  12.482   4.182  16.424 -0.2524 -0.6368 -0.0557
24681W        W38095   9.387  14.203  10.435  0.2223 -0.1364 -0.0816
24682W        W38096   0.074   4.664   1.529  0.1099  0.1196 -0.0870
24683W        W38097  18.087  14.364  12.441  0.1296  0.1542  0.1928
24684W        W38098  12.062  17.369  12.170 -0.0186 -0.2099  0.2474
24685W        W38099   7.002  16.282  15.026 -0.1750  0.0844  0.0130
24686W        W38100   1.988  15.700  15.914  0.3114  0.3122  0.1796
24687W        W38101   5.112   0.360  12.415 -0.0022  0.0747  0.0996
24688W        W38102   0.914   6.437   4.764  0.2139  0.0108  0.0866
24689W        W38103   9.798  13.096  13.091 -0.0515  0.2589 -0.0660
24690W        W38104   5.851   4.978   2.233 -0.1827 -0.1443 -0.2716
24691W        W38105   6.051   6.865   4.352 -0.0144 -0.0872 -0.0137
24692W        W38106  12.405   2.733  15.065  0.1637  0.0044 -0.1942
24693W        W38107  12.511  15.030   6.193  0.1552 -0.0124 -0.0364
24694W        W38108   3.495   7.891   2.572 -0.1583 -0.4759 -0.1718
24695W        W38109   0.624   3.286   3.534  0.1050  0.0806  0.0268
24696W        W38110  14.006   1.131   2.895  0.0527  0.2824  0.1040
24697W        W38111   5.507   0.780   5.873  0.3158  0.1997 -0.0908
24698W        W38112   6.215  14.135   2.334  0.2650 -0.2156 -0.0393
24699W        W38113  14.045  14.741  11.396  0.0318  0.3149 -0.1658
24700W        W38114  11.722  11.575  10.808  0.2513 -0.0121  0.1081
24701W        W38115  16.116  18.176  16.365 -0.2149  0.0326 -0.1710
24702W        W38116   9.552   8.194   9.838 -0.1539 -0.1623 -0.0024
24703W        W38117  12.816  13.251   1.789 -0.1058 -0.3036  0.0115
24704W        W38118  14.290  11.940  14.468  0.4546 -0.1359 -0.1309
24705W        W38119   3.749  16.540   4.817  0.1030 -0.5047  0.3747
24706W        W38120  14.213   1.469   1.955  0.2001  0.1436  0.5560
24707W        W38121  12.285   6.532   2.745  0.1810  0.0562  0.1054
24708W        W38122   8.895   5.019   1.665 -0.0348 -0.1218  0.0820
24709W        W38123   9.734   9.563   2.429  0.0476 -0.1560 -0.1438
24710W        W38124   1.012  15.427  14.616  0.0769  0.1580 -0.4337
24711W        W38125   9.972  15.342  10.624  0.1031 -0.0789 -0.0363
24712W        W38126   8.184  12.941   0.008 -0.3283 -0.2442  0.1677
24713W        W38127  12.702   0.102  16.210 -0.1471 -0.1030 -0.1140
24714W        W38128  16.833   0.431   4.975  0.1706  0.0085  0.1598
24715W        W38129  15.891   7.817  10.753  0.2593 -0.1228 -0.1660
24716W        W38130  17.416   2.436  10.853  0.0529 -0.0565 -0.1863
24717W        W38131  16.746   0.677  14.814 -0.2687  0.4792  0.0081
24718W        W38132  16.934   5.004   4.881 -0.2978 -0.1959  0.1513
24719W        W38133   1.057   8.534  10.011  0.1875 -0.1569  0.3140
24720W        W38134   3.700   1.305   4.303  0.0626 -0.3654 -0.2065
24721W        W38135  11.481   9.752  12.258 -0.1851 -0.0578  0.0485
24722W        W38136  18.285   2.532  16.348  0.0557 -0.0390 -0.2241
24723W        W38137  13.498  11.360  12.249  0.1394  0.4074 -0.0710
24724W        W38138   2.165  11.054   2.405  0.1391  0.1181 -0.1660
24725W        W38139   4.216   0.514   1.537 -0.0445  0.2278 -0.0253
24726W        W38140  15.427  13.543  11.244 -0.2287  0.4696 -0.2960
24727W        W38141   2.035  13.385  13.443  0.1455  0.0723 -0.0865
24728W        W38142  15.495   9.513   4.864  0.1442  0.0472 -0.1591
24729W        W38143  13.804  12.562  11.088  0.0838  0.0696 -0.0134
24730W        W38144  17.260  16.933  11.733  0.2628  0.3780 -0.2008
24731W        W38145   0.358   2.912  12.965 -0.0769 -0.0426  0.2045
24732W        W38146   2.722   8.334   0.596 -0.0851  0.0673 -0.1807
24733W        W38147  13.107  16.184  10.922  0.0187  0.1235 -0.0911
24734W        W38148  15.183  11.827  10.697 -0.2382  0.2636  0.0405
24735W        W38149   3.877   7.024  13.901  0.1895 -0.0149 -0.0934
24736W        W38150   3.639   6.903   3.562 -0.0342 -0.0419 -0.2036
24737W        W38151   5.008   7.909  15.933  0.1036 -0.1296  0.1058
24738W        W38152   1.770  16.757  15.965  0.2017  0.2872  0.1720
24739W        W38153   2.170   4.237   1.643 -0.2508  0.2685 -0.0044
24740W        W38154   7.453  16.001  12.202 -0.2138 -0.1622  0.0713
24741W        W38155   3.918  16.362   5.263 -0.1309 -0.1988  0.1781
24742W        W38156   0.397   6.719  11.113 -0.2329  0.0122 -0.0589
24743W        W38157   5.126  12.736   1.159  0.1146 -0.1914  0.0556
24744W        W38158  10.793   7.686  13.484 -0.0506  0.0778  0.2991
24745W        W38159   2.464   5.163   3.223 -0.0273  0.2853  0.0304
24746W        W38160   5.531  15.805  16.012  0.3065  0.0668 -0.0412
24747W        W38161   3.167  10.908  16.051  0.0434 -0.0180  0.2249
24748W        W38162   7.791  11.503   1.669  0.1769  0.0619  0.2525
24749W        W38163  13.855   8.942   4.821  0.0855 -0.2433 -0.2724
24750W        W38164   7.019   8.693  11.743  0.1759  0.1626  0.1019
24751W        W38165   1.992  15.859   0.856 -0.2896  0.1102 -0.3199
24752W        W38166  10.832   8.051  11.776  0.0811 -0.0218  0.2393
24753W        W38167   2.955   2.617   1.311  0.0995  0.2801 -0.2286
24754W        W38168  18.232   9.842  16.416 -0.1005  0.0681 -0.1434
24755W        W38169  11.924  12.685  12.239  0.0918 -0.3350  0.0025
24756W        W38170   6.874   6.243  13.457 -0.2021 -0.0706  0.0020
24757W        W38171  18.207  11.646   3.253 -0.1171  0.0318 -0.1864
24758W        W38172   6.576  14.275  13.675  0.0610 -0.1136  0.0918
24759W        W38173  10.419   3.304   4.903 -0.3880 -0.1512  0.1724
24760W        W38174   4.222   2.534   0.171  0.0629 -0.0189 -0.0388
24761W        W38175  12.761  16.152   2.063  0.2017 -0.0071  0.0789
24762W        W38176   2.229  11.692   3.063 -0.1241 -0.1063 -0.0832
24763W        W38177   8.399  12.301  15.173  0.2851 -0.0502  0.2062
24764W        W38178   1.325   5.740  11.519  0.2042  0.2986  0.0227
24765W        W38179   5.131   8.972  13.132 -0.0998 -0.3355  0.0894
24766W        W38180   8.821   8.254   2.283  0.0529 -0.1520 -0.0726
24767W        W38181  16.831   7.684   1.414 -0.0429  0.0572 -0.1878
24768W        W38182  16.133   2.259  14.767 -0.0146  0.3816  0.0830
24769W        W38183   9.253  12.908   3.548  0.0028  0.0902 -0.1429
24770W        W38184   2.069   1.011  15.517 -0.1369 -0.0618 -0.1552
24771W        W38185  11.334  14.621  10.783  0.0665 -0.1002 -0.0329
24772W        W38186   4.691  15.500   1.723  0.0149  0.0287 -0.2859
24773W        W38187   0.933   7.263  14.158  0.1859  0.1274  0.0711
24774W        W38188  13.618   9.831   2.274  0.4517 -0.2885 -0.3636
24775W        W38189   3.414  10.668  15.670 -0.0307  0.1430  0.0678
24776W        W38190   9.029   2.740   3.033  0.4310 -0.0234 -0.0526
24777W        W38191   1.925  17.849   3.815 -0.2393 -0.1014 -0.1130
24778W        W38192   8.371   4.872  13.527 -0.0314 -0.1475  0.0658
24779W        W38193   6.142   7.704   1.091  0.0784  0.0961 -0.2481
24780W        W38194   3.154  12.775   4.591 -0.0545 -0.0960 -0.1346
24781W        W38195  13.218  11.198  14.002  0.1381  0.0001 -0.0236
24782W        W38196   0.409  12.783   0.621 -0.3113 -0.1156  0.0484
24783W        W38197  11.811   6.896  13.703 -0.1110 -0.0173  0.0525
24784W        W38198  16.529   0.519  15.800  0.5128 -0.2387  0.5066
24785W        W38199   3.578   4.222  13.327 -0.0154  0.1836 -0.1285
24786W        W38200  16.659   5.447  15.300  0.0765 -0.2172  0.2215
24787W        W38201  13.518  14.662   7.347 -0.2555 -0.2822 -0.3492
24788W        W38202   9.309   4.027  13.096 -0.0146 -0.0240  0.1813
24789W        W38203  11.551   8.378   1.571  0.2114 -0.1625 -0.6489
24790W        W38204  17.459   5.313  13.193  0.1393 -0.1824  0.1529
24791W        W38205   8.051  12.448   2.086 -0.0038  0.0796 -0.3109
24792W        W38206  10.076   5.900  12.560  0.1376  0.2849 -0.2106
24793W        W38207   4.672   5.022  12.987 -0.0910  0.0794 -0.0961
24794W        W38208  16.204  11.269   2.233 -0.1074 -0.2484  0.2336
24795W        W38209  18.202   5.201   4.515 -0.2103  0.1278  0.1946
24796W        W38210  13.719  11.417  13.074 -0.1861  0.1078  0.0607
24797W        W38211  16.594  11.484  15.144  0.1498  0.0545 -0.1546
24798W        W38212   7.618   8.163  15.174  0.0083 -0.0157  0.1414
24799W        W38213   6.121  17.673   2.171 -0.5329  0.1474 -0.0842
24800W        W38214   1.077   7.132   2.152 -0.2581  0.3816  0.2000
24801W        W38215   2.789   3.907   4.002 -0.1658 -0.0856 -0.2105
24802W        W38216   6.411   4.019   0.868 -0.2620  0.1188  0.0505
24803W        W38217   8.079   3.111  10.293  0.0742 -0.3467  0.0523
24804W        W38218   2.169  13.488   5.028  0.2641 -0.2861 -0.0862
24805W        W38219   8.390  17.817  15.539 -0.0438  0.1710  0.0904
24806W        W38220  17.810   3.134   6.358  0.0449  0.1263  0.1255
24807W        W38221  15.706  15.732   1.296  0.0093  0.4429 -0.1382
24808W        W38222  17.844   2.239  10.899 -0.0856  0.1198  0.1655
24809W        W38223  14.761  15.435   4.309 -0.4947 -0.3053 -0.2950
24810W        W38224   2.429  18.389  15.131  0.1977  0.1058 -0.2935
24811W        W38225  17.605   5.436  16.214  0.3504  0.1411  0.5902
24812W        W38226  16.448   0.946   0.567 -0.0204 -0.0046 -0.0430
24813W        W38227   7.963   9.362  14.602 -0.0194  0.0974 -0.0077
24814W        W38228   7.886   1.825  12.617  0.0624  0.0881  0.1917
24815W        W38229   0.577  12.196   6.045 -0.0443  0.3226  0.0702
24816W        W38230   9.991   8.750   3.685 -0.0508 -0.0952  0.2264
24817W        W38231   8.004  11.464   5.680 -0.2010  0.1409 -0.1661
24818W        W38232  16.482  15.228  12.776  0.0721  0.1898 -0.2379
24819W        W38233   1.241  16.961  12.008  0.0082 -0.1305 -0.0356
24820W        W38234  14.740   8.645   2.648  0.0712  0.0103 -0.0338
24821W        W38235   8.904  12.710  13.316  0.1547  0.0448 -0.0026
24822W        W38236  10.945   6.429  11.806 -0.0886 -0.0035  0.0617
24823W        W38237  10.243  14.067   3.383 -0.2250 -0.3068  0.2716
24824W        W38238   0.193  14.311  12.149  0.0484 -0.0017 -0.0151
24825W        W38239  12.554  16.706  12.302  0.0286 -0.3702 -0.4591
24826W        W38240   8.295   7.412   5.231  0.4621 -0.2649  0.0292
24827W        W38241  12.216   6.203  10.235  0.1511  0.2589  0.0082
24828W        W38242   6.912  15.482  11.032 -0.2470  0.1099  0.2931
24829W        W38243   1.043   2.203   0.306  0.2276  0.0922 -0.0193
24830W        W38244   8.362  12.539  11.268 -0.0661 -0.1423  0.0540
24831W        W38245   7.599  16.829  15.588  0.3396  0.1374  0.4062
24832W        W38246   7.325   4.509   9.849  0.1740 -0.3702 -0.2058
24833W        W38247  17.614   2.300   3.535 -0.1436  0.1011  0.1403
24834W        W38248   2.752   9.047  13.582 -0.0779 -0.2500 -0.0978
24835W        W38249  13.858   6.255   9.740 -0.3045  0.0261  0.2968
24836W        W38250  16.494  10.469   5.821 -0.1517  0.0122 -0.2063
24837W        W38251  17.954   9.119   0.784 -0.0464  0.3253 -0.1534
24838W        W38252  13.310  18.341  11.435 -0.1924  0.1590 -0.1515
24839W        W38253  15.176  14.212   5.914 -0.1224 -0.0116  0.1175
24840W        W38254   4.022   6.033   0.341 -0.1018  0.0038 -0.2505
24841W        W38255  13.955   2.018  15.456 -0.0253 -0.0865 -0.0312
24842W        W38256  12.410  17.148  10.464  0.0607  0.0343  0.1305
24843W        W38257   8.123  13.688  15.008 -0.1602 -0.0527 -0.1869
24844W        W38258  16.432   4.575  10.791 -0.1140 -0.4755 -0.1234
24845W        W38259   6.390  18.091   9.866 -0.1053 -0.2250 -0.3246
24846W        W38260   0.147   1.872   3.897  0.1000 -0.0184  0.1723
24847W        W38261   4.789   2.811  13.978  0.1602  0.2888 -0.4089
24848W        W38262   8.595   0.709   0.230  0.2151 -0.0651 -0.0493
24849W        W38263   3.457   8.600   4.748 -0.1023 -0.0525 -0.3551
24850W        W38264   0.067   7.363  14.060  0.0322  0.1616  0.0255
24851W        W38265   3.549  10.471   4.286  0.3573 -0.1054 -0.0563
24852W        W38266   1.782   0.080   2.994 -0.0053  0.3965  0.3113
24853W        W38267   1.511  16.634  11.663  0.1452 -0.0005 -0.1070
24854W        W38268  16.350   0.999  14.922  0.2557  0.2164 -0.0824
24855W        W38269   0.861   5.100   4.759  0.0665  0.0678  0.2820
24856W        W38270   8.803   5.027   9.900 -0.2092  0.1575 -0.1346
24857W        W38271   5.191  12.006  10.391  0.0011  0.0829 -0.1616
24858W        W38272   4.825  17.717   4.892 -0.0281 -0.1228  0.0373
24859W        W38273   2.103   9.945  10.352 -0.3007  0.1460 -0.3841
24860W        W38274  12.596   9.103   1.435 -0.1862 -0.1790 -0.0341
24861W        W38275   7.140   4.608  16.126  0.0294  0.4793  0.2585
24862W        W38276  12.883   9.166   5.013  0.0145  0.2114  0.0124
24863W        W38277   6.899   1.022   3.340 -0.0632  0.1009 -0.1237
24864W        W38278   3.269  16.333   5.906 -0.0695  0.1270 -0.2899
24865W        W38279   3.423   6.500  10.854 -0.2607 -0.0974  0.1024
24866W        W38280   4.623  13.214   4.896  0.0739 -0.0204 -0.1357
24867W        W38281  12.291   1.244   2.109  0.0612  0.1516 -0.2754
24868W        W38282  18.283  10.373   2.003  0.2595  0.0782 -0.1508
24869W        W38283   7.927   4.893   5.274  0.1616  0.0005 -0.3690
24870W        W38284   9.433  11.643   4.345 -0.1390 -0.2514  0.1331
24871W        W38285   9.938   8.291  16.182  0.0307 -0.0113 -0.1895
24872W        W38286   0.785  14.589  16.214 -0.2016  0.0580  0.1872
24873W        W38287   4.671   2.182   6.063  0.1168 -0.3840 -0.0365
24874W        W38288   4.241   7.325  13.708 -0.2060  0.1708  0.2070
24875W        W38289   4.140   9.767   5.301  0.2853  0.0389  0.0135
24876W        W38290  10.645  15.883   2.767  0.2542  0.0332 -0.0718
24877W        W38291   3.519  16.121  11.167  0.0453 -0.0015 -0.2530
24878W        W38292   4.508   1.642  12.194 -0.0201  0.0792  0.2921
24879W        W38293   9.865   9.295   3.581  0.1374 -0.3778  0.0090
24880W        W38294  11.835  11.746   3.740  0.2413 -0.2224  0.2168
24881W        W38295   4.101   4.146   6.168  0.2360  0.1380  0.0628
24882W        W38296  11.375  12.113   4.784  0.0880 -0.0846  0.4211
24883W        W38297   8.837  18.213   6.102  0.1945  0.0513 -0.1632
24884W        W38298   6.981   9.465   1.184 -0.0683 -0.1856 -0.0170
24885W        W38299   5.852   7.935   3.621 -0.0056  0.3047 -0.1806
24886W        W38300   9.778   7.838   0.687 -0.0157 -0.2197 -0.0469
24887W        W38301   8.975   0.136   5.655  0.0577  0.0907 -0.1665
24888W        W38302  16.934   5.233  13.205  0.0093 -0.2219  0.0217
24889W        W38303   9.310  15.930   3.508 -0.2617 -0.0822  0.0693
24890W        W38304  16.049   0.446   0.462 -0.1292  0.3595  0.2507
24891W        W38305  16.439  10.598   6.350  0.1176 -0.1446  0.1026
24892W        W38306  10.034  17.295   2.515  0.0842  0.0452  0.4174
24893W        W38307  18.159   7.977  14.515 -0.1197  0.2066  0.1743
24894W        W38308   9.694  12.224  15.955  0.1160  0.1944 -0.0049
24895W        W38309   6.917   9.951  11.336  0.0587 -0.0981  0.1082
24896W        W38310  13.823   5.036   5.559  0.0580 -0.1817  0.2994
24897W        W38311   8.824   4.742  14.466 -0.0836 -0.3925 -0.0815
24898W        W38312   7.158  17.683  16.440 -0.1390  0.3060 -0.2305
24899W        W38313  16.334   5.710   2.996  0.1311  0.1095 -0.1221
24900W        W38314   8.709  17.824   0.883 -0.0462 -0.3588 -0.0688
24901W        W38315  16.482  13.724   1.663 -0.1870  0.2195  0.0154
24902W        W38316  18.186  14.994  11.363 -0.0308 -0.0048 -0.1685
24903W        W38317   2.448   0.280  12.376 -0.3542 -0.0688 -0.0560
24904W        W38318   9.644   8.635   1.392 -0.1497  0.1311 -0.2898
24905W        W38319  18.296  10.963  14.115  0.2743  0.0954 -0.1208
24906W        W38320  16.000   2.028  15.555  0.0787 -0.0560  0.0739
24907W        W38321   9.548   6.115   2.200 -0.0166  0.1354  0.0678
24908W        W38322  13.782   4.282  10.714  0.1213  0.1024 -0.2233
24909W        W38323   1.905  12.169   1.472 -0.0408  0.1354 -0.0519
24910W        W38324   1.529  13.509  14.894 -0.2313  0.2623  0.1479
24911W        W38325  11.844   8.916  15.411  0.1310 -0.0890  0.2452
24912W        W38326   4.910  17.135  10.932 -0.3555  0.2708  0.3410
24913W        W38327  15.451  16.149  13.701 -0.1260  0.1503 -0.1508
24914W        W38328   1.977  13.501  16.171 -0.0733 -0.1491 -0.3420
24915W        W38329  16.019  17.638   3.748 -0.1549  0.0643 -0.0362
24916W        W38330   1.512   6.000  13.321 -0.1530 -0.3256 -0.0765
24917W        W38331   4.609   7.789   4.669  0.0309  0.1744 -0.0571
24918W        W38332   2.552   6.914   2.515  0.1336 -0.0759  0.4229
24919W        W38333  10.939   9.788   0.179 -0.2583  0.2393  0.0143
24920W        W38334   8.520   5.732  12.979 -0.0187  0.3003  0.1959
24921W        W38335   0.820   6.906   3.339  0.0671 -0.0237  0.1014
24922W        W38336  17.854   4.643   1.263  0.3060  0.0184  0.2432
24923W        W38337   6.553   8.567  13.625 -0.2646 -0.5275  0.5360
24924W        W38338  16.526  16.353  14.033 -0.2439 -0.2650 -0.2761
24925W        W38339  12.622   2.413  16.062  0.0607 -0.3471  0.0746
24926W        W38340  16.515  15.118   1.102  0.2020  0.1892 -0.0519
24927W        W38341   2.295   2.446  11.886  0.2280  0.1243 -0.2328
24928W        W38342  15.387   7.777  13.459  0.2202  0.0819  0.0221
24929W        W38343   3.171   4.105  15.512  0.2469 -0.4693 -0.1567
24930W        W38344   9.430   2.633   0.053 -0.0969 -0.0719  0.1696
24931W        W38345  12.746  13.735   6.545 -0.0198  0.0616 -0.0410
24932W        W38346   3.280  10.125  15.651 -0.3606 -0.1417  0.1797
24933W        W38347  17.979   5.244  16.439 -0.1469  0.0867  0.1478
24934W        W38348   6.791  17.460  14.320  0.3358 -0.3793 -0.3074
24935W        W38349  17.721   1.930   5.082 -0.0890 -0.0320  0.2964
24936W        W38350  13.950   9.358  14.872 -0.0815  0.0277 -0.1584
24937W        W38351   5.619   1.721   4.943 -0.0793  0.0625 -0.1601
24938W        W38352   5.342  11.483  15.571  0.0698 -0.0652 -0.2809
24939W        W38353   3.754   0.184   0.936 -0.1317  0.1098  0.0971
24940W        W38354  14.835   0.616  13.876 -0.0174 -0.0681 -0.0341
24941W        W38355  11.625   2.994   3.723  0.1643 -0.2671 -0.0794
24942W        W38356  13.485   5.955  14.558 -0.0945 -0.5284 -0.1567
24943W        W38357   9.046   7.074   1.652 -0.3697  0.1652  0.2690
24944W        W38358   1.909   8.374  15.826 -0.0641  0.0673  0.1479
24945W        W38359   8.502   4.501  10.535  0.2384  0.2000 -0.0254
24946W        W38360  14.743   2.267  14.632 -0.0541 -0.1715  0.0048
24947W        W38361   7.322   1.319   2.070  0.1201  0.3331  0.2647
24948W        W38362   1.633   2.553   5.808  0.0617 -0.1573  0.2851
24949W        W38363   3.735   7.863   4.244 -0.1843  0.0113 -0.3473
24950W        W38364  11.605   9.845   6.086 -0.6164 -0.1354  0.2303
24951W        W38365   6.757  17.941   3.886  0.3415 -0.1535 -0.1196
24952W        W38366   1.927   9.175   3.859 -0.1659 -0.2368 -0.0351
24953W        W38367  11.880   2.176  14.097 -0.1332  0.1830  0.1077
24954W        W38368   0.098   7.148   1.776 -0.0508  0.0787 -0.1676
24955W        W38369  17.489  15.280   1.243 -0.0361  0.0694  0.4194
24956W        W38370   9.188  16.136  15.231 -0.1888  0.1248 -0.0869
24957W        W38371   1.747  10.745  14.879  0.2216 -0.0636 -0.0202
24958W        W38372  11.943   0.152   3.529 -0.1713  0.2341 -0.2424
24959W        W38373  11.057  16.382  12.369  0.2527  0.2649  0.0594
24960W        W38374  14.559   6.076   1.928 -0.0333 -0.0201  0.2889
24961W        W38375   2.870   7.096  12.132 -0.1651  0.1067 -0.0737
24962W        W38376   4.644   0.718   6.126  0.1395 -0.4630  0.0304
24963W        W38377  10.597  13.286  11.484 -0.1653  0.0291 -0.1508
24964W        W38378   0.984  13.828   2.753 -0.2060  0.1673  0.1719
24965W        W38379   5.069   3.968  14.113 -0.2209  0.0195 -0.4475
24966W        W38380   7.428  11.789  14.329 -0.3066  0.1060  0.0238
24967W        W38381   7.599  12.654   0.847  0.2868  0.0267  0.2634
24968W        W38382   6.161  14.215  15.269  0.0291  0.1242 -0.1682
24969W        W38383   9.123   8.003  16.173 -0.1834  0.0129  0.1114
24970W        W38384   5.508   0.474   2.887 -0.1373  0.0913  0.2256
24971W        W38385   8.285   4.578  12.336  0.3663  0.2270 -0.0793
24972W        W38386   8.682   8.211  12.004 -0.2637  0.1183 -0.1382
24973W        W38387  18.094  10.198   0.674  0.3628  0.0751 -0.0477
24974W        W38388   6.781  14.356   4.374  0.1333  0.2362  0.0115
24975W        W38389   1.709   8.885  15.751 -0.0856 -0.0334  0.1366
24976W        W38390  18.304   0.477   2.047  0.1754  0.0284 -0.3626
24977W        W38391  16.390   1.305  12.303  0.1313 -0.0256 -0.3250
24978W        W38392   0.514  13.323   4.447  0.0675  0.0641 -0.3205
24979W        W38393  14.058   6.138  13.041  0.1453  0.2844  0.0638
24980W        W38394   6.372   7.151   0.109  0.1846 -0.2033 -0.4191
24981W        W38395   0.499   1.937   0.231 -0.1026 -0.4638 -0.3084
24982W        W38396  13.208  15.568   2.770 -0.0125 -0.1487  0.1090
24983W        W38397  15.497   5.781  11.316 -0.2953  0.2763 -0.1564
24984W        W38398  11.389  16.982  16.172  0.2064  0.1894  0.3850
24985W        W38399  18.303   4.849   1.110  0.0925 -0.1911 -0.3062
24986W        W38400  12.950   1.859   5.743  0.0856  0.0413 -0.0054
24987W        W38401   9.330  15.345  15.428  0.0735  0.1160 -0.0173
24988W        W38402   5.539  14.538   6.234  0.3340  0.1378 -0.1382
24989W        W38403   2.121   1.605  12.990  0.2756 -0.2275 -0.1364
24990W        W38404  16.565   8.340   1.805 -0.2016  0.2338  0.0336
24991W        W38405  17.129  12.580  10.449 -0.0932  0.1665 -0.1084
24992W        W38406   9.268   7.336   4.895 -0.0125 -0.4182  0.2482
24993W        W38407   1.491  14.733  15.028  0.0512 -0.3643  0.0559
24994W        W38408   7.603   7.703   0.658  0.2391  0.1117 -0.0656
24995W        W38409   1.428   8.080   5.583 -0.1109  0.0363 -0.2215
24996W        W38410  11.697   5.983  14.146  0.1015 -0.2854 -0.5203
24997W        W38411   7.003  17.546  15.205 -0.0953 -0.1438 -0.1674
24998W        W38412  13.608  17.042   1.929 -0.1995  0.0274  0.3006
24999W        W38413   8.472   8.509   2.540  0.0055 -0.1691 -0.3099
25000W        W38414   1.191  10.692   2.969 -0.1856 -0.1715  0.1168
25001W        W38415   2.512  17.244  16.221 -0.2237  0.1255 -0.2609
25002W        W38416   8.853   2.839  13.677 -0.2252 -0.2341 -0.0065
25003W        W38417   3.272   5.142   2.837 -0.0246  0.2817 -0.1697
25004W        W38418   0.499  16.706  13.634 -0.0514 -0.2775  0.2628
25005W        W38419   3.752   7.612   3.413 -0.2282 -0.2512 -0.0250
25006W        W38420  14.797  10.994  13.634 -0.0955  0.1188  0.0157
25007W        W38421   7.393   0.334   3.107 -0.0838 -0.0198 -0.0182
25008W        W38422  15.161  14.778  12.557 -0.0313  0.0691 -0.0730
25009W        W38423   6.772   6.417   3.248 -0.2681  0.1537 -0.1346
25010W        W38424   1.649  11.857  15.717 -0.1176 -0.0647  0.2449
25011W        W38425   5.607   1.328  13.578 -0.0890 -0.2041 -0.3916
25012W        W38426   6.953   0.228  13.293 -0.1605 -0.0491 -0.0068
25013W        W38427  17.549   5.951  12.012 -0.0955  0.0966  0.2821
25014W        W38428  15.914   0.718  14.702 -0.1329 -0.2031  0.1469
25015W        W38429  12.315  18.351   2.707  0.1697 -0.2783  0.4529
25016W        W38430  17.775  17.053   5.396  0.0075  0.1645  0.0525
25017W        W38431   0.422  11.458   4.418  0.1323 -0.3279 -0.1744
25018W        W38432  17.667   7.709   3.688  0.3487 -0.0732  0.0703
25019W        W38433  11.528   8.759  13.764  0.0942 -0.0734 -0.2645
25020W        W38434  12.792  13.839   1.888  0.1123  0.0169  0.0084
25021W        W38435   2.683  14.160   0.609  0.0251  0.2506  0.0605
25022W        W38436  14.942   0.028   2.112  0.1804  0.0466  0.3800
25023W        W38437   8.917   7.113   0.582  0.4097  0.0634  0.0980
25024W        W38438   5.234   6.909   0.508 -0.1457  0.0714 -0.0321
25025W        W38439   1.340  10.246  10.964  0.0673  0.0882  0.1243
25026W        W38440   1.798   9.322  11.837 -0.1467 -0.1538 -0.0197
25027W        W38441   1.414  18.207   2.758  0.3558 -0.2794 -0.4331
25028W        W38442  17.628   8.185  13.551  0.1351 -0.1763 -0.1942
25029W        W38443  11.410  14.667  13.957  0.1582 -0.2837 -0.2057
25030W        W38444  15.165   1.163   1.917  0.0810  0.2128  0.0909
25031W        W38445   6.032  17.336   3.018  0.1868 -0.1176 -0.4608
25032W        W38446  12.905  14.159   6.390  0.2263  0.1305 -0.1002
25033W        W38447  15.530   0.617   0.843 -0.1276 -0.0542  0.0800
25034W        W38448   4.009   2.783   2.582 -0.3554  0.0615  0.2946
25035W        W38449  17.726   7.438   4.806  0.0321 -0.1747  0.0299
25036W        W38450   6.677   5.778   2.964  0.0623 -0.0423 -0.1576
25037W        W38451  15.369  11.497  11.989  0.1737 -0.2546 -0.0184
25038W        W38452   6.577   6.136  11.981 -0.1776 -0.0163  0.0657
25039W        W38453   0.325  12.072  15.987  0.0726 -0.0915 -0.4048
25040W        W38454  11.202   4.345  15.732  0.1392  0.0285  0.4469
25041W        W38455   3.064  11.216   5.876 -0.0037 -0.1079 -0.0381
25042W        W38456   6.489   2.436  13.563 -0.2502 -0.3556 -0.0159
25043W        W38457   9.494  15.987  13.580  0.1691 -0.0442 -0.1496
25044W        W38458   2.152  17.338  10.533 -0.1022 -0.2696 -0.2388
25045W        W38459   8.908  12.270   0.434  0.3500  0.4682  0.0592
25046W        W38460  15.824  10.767  14.560  0.1420  0.0667  0.2017
25047W        W38461   9.970  13.907  14.845 -0.1827 -0.0491 -0.2026
25048W        W38462   3.014  12.358  15.953  0.0522  0.0233  0.1080
25049W        W38463  10.223  14.137   2.544 -0.3740 -0.1138 -0.1437
25050W        W38464   7.435   4.978   5.316  0.2823 -0.1781  0.1888
25051W        W38465   0.276  18.378  12.896 -0.0380  0.0426  0.0982
25052W        W38466   0.160  16.719  14.529  0.2318 -0.0014 -0.1165
25053W        W38467   3.366   2.126  14.237 -0.0325  0.2011  0.0241
25054W        W38468  13.184  17.374  12.642 -0.0318 -0.0324 -0.2342
25055W        W38469   0.015  10.699  12.768  0.1267 -0.0948  0.0457
25056W        W38470  14.223   5.059  11.691  0.0185 -0.0161 -0.1331
25057W        W38471   4.160   9.801  12.109  0.2094  0.1378  0.0045
25058W        W38472  15.946   3.568   1.013  0.0502 -0.3676 -0.1649
25059W        W38473   2.390   9.401  10.302  0.2000  0.0747 -0.1096
25060W        W38474   9.242  15.350  10.269  0.0804 -0.2046  0.1074
25061W        W38475  12.508  14.366  14.616 -0.0464 -0.2668  0.3529
25062W        W38476  10.404   3.877   4.198 -0.0239  0.1403  0.1713
25063W        W38477   4.013  14.060   1.673 -0.0633  0.0871  0.2159
25064W        W38478  16.551   4.621  11.553 -0.1991 -0.0004 -0.1921
25065W        W38479   0.844  10.418  10.868 -0.3193 -0.2419  0.0119
25066W        W38480  15.586   8.596   0.842  0.0029  0.4280  0.1514
25067W        W38481  17.705   4.448  12.615  0.0270 -0.0983  0.2480
25068W        W38482   6.771   7.156   1.524  0.1145 -0.2320 -0.0901
25069W        W38483  13.895  14.433  14.777  0.3575  0.0649 -0.0270
25070W        W38484   1.083   7.398  13.707  0.0218  0.0188  0.1570
25071W        W38485  13.543   0.231   3.232  0.1360 -0.2353  0.1344
25072W        W38486   4.825  16.991  12.450  0.1710  0.3148  0.0085
25073W        W38487   6.088   4.800  12.309  0.0864  0.0461 -0.2084
25074W        W38488   3.236   1.373   4.483  0.0960 -0.0080  0.2567
25075W        W38489   3.370  16.148   4.050  0.3366 -0.1733 -0.1647
25076W        W38490   9.995  16.975  11.671  0.0084 -0.0329  0.2200
25077W        W38491  10.450  13.744  11.652 -0.0848 -0.0516 -0.0180
25078W        W38492  17.327   8.816   4.236  0.1374  0.0404  0.2036
25079W        W38493   5.002  14.368  12.531 -0.1362  0.1592  0.4485
25080W        W38494  15.731  17.637  13.438 -0.0456  0.2970  0.2232
25081W        W38495  11.199   1.786  16.122 -0.0891 -0.1623  0.1570
25082W        W38496  12.855  12.247  11.398 -0.2147  0.3681 -0.2073
25083W        W38497   0.698   9.881   0.292 -0.1334  0.0862 -0.0981
25084W        W38498  16.177  13.791   0.147 -0.1469 -0.0145 -0.0517
25085W        W38499  13.718  13.955   6.726 -0.0330  0.0036  0.0011
25086W        W38500   1.523  15.748   2.308 -0.0509 -0.2962 -0.0222
25087W        W38501   5.836  17.941   1.801  0.1361 -0.2705  0.1870
25088W        W38502   2.203  12.651   3.303 -0.0464  0.4607 -0.2146
25089W        W38503  10.368   1.689  14.626  0.1667 -0.0300  0.0810
25090W        W38504   3.408  13.037  14.957  0.2348  0.0557 -0.1297
25091W        W38505  16.786  16.537   3.797  0.3296  0.3372 -0.0383
25092W        W38506   4.938   7.330  13.523  0.2827  0.0723 -0.1408
25093W        W38507   6.333   1.078  16.110  0.1232  0.1669  0.0870
25094W        W38508  13.680   0.705   2.827  0.0883 -0.2722  0.0711
25095W        W38509  11.635   0.724  10.505 -0.1623  0.1058 -0.4972
25096W        W38510   0.238  16.252   3.248 -0.2559  0.1279 -0.0546
25097W        W38511  13.698   5.305   9.947 -0.1797 -0.1240 -0.0478
25098W        W38512   7.483   2.964   0.690 -0.1202  0.1325 -0.2307
25099W        W38513  16.727   1.674  12.141 -0.2780  0.0174  0.0868
25100W        W38514   6.946   7.931  10.817 -0.1030  0.1395  0.3668
25101W        W38515  14.432  10.402  10.808  0.0998  0.0183 -0.0818
25102W        W38516   0.701   0.139   4.179 -0.3402 -0.1581  0.2084
25103W        W38517   9.855  17.010  16.448 -0.0856  0.0712 -0.1031
25104W        W38518   1.870  14.919   0.888 -0.0245 -0.0332  0.1133
25105W        W38519   8.713   3.893   4.870 -0.0851  0.1812 -0.0040
25106W        W38520   8.639   9.092   1.151 -0.0968  0.1995 -0.2320
25107W        W38521   6.785  15.338  12.076 -0.2450 -0.2105  0.0499
25108W        W38522   1.386   8.523   2.299  0.0420 -0.0330 -0.0297
25109W        W38523  13.958   4.565  14.234 -0.2006  0.1688  0.1513
25110W        W38524   7.526   7.578   3.441  0.1370 -0.0864 -0.0711
25111W        W38525   2.566   5.569   5.418  0.2725 -0.1750 -0.0658
25112W        W38526  13.717   0.824  15.572  0.0622 -0.0249  0.0976
25113W        W38527  16.770  15.389  15.950 -0.1337 -0.0294  0.1609
25114W        W38528   9.755   4.110  10.918 -0.2720 -0.1550  0.0802
25115W        W38529   6.373  12.076   2.337 -0.0903  0.3221  0.1952
25116W        W38530   4.508  12.607  12.960  0.0220 -0.1402 -0.0624
25117W        W38531  18.171   1.107  13.479 -0.0818  0.1350 -0.3851
25118W        W38532   7.541   1.426  12.604 -0.2077  0.1325  0.2881
25119W        W38533  13.044   6.588   5.345 -0.0848  0.0153 -0.0452
25120W        W38534  15.574  17.076   4.511  0.0251 -0.1225  0.0670
25121W        W38535  15.092  16.662  12.221  0.1404  0.1589  0.2223
25122W        W38536   2.439   2.968  10.644 -0.1349  0.0096 -0.1237
25123W        W38537  16.393   6.493  15.721 -0.0623 -0.1193  0.1528
25124W        W38538   6.905  11.655  10.407  0.2534  0.1068 -0.0842
25125W        W38539   5.319   4.163   0.319 -0.0115  0.4095  0.0251
25126W        W38540  17.890  14.479   1.088  0.1558  0.0510  0.1267
25127W        W38541  14.328   7.568  16.460  0.0088 -0.1989 -0.2067
25128W        W38542   8.174  17.343   0.929  0.0696 -0.0855  0.3451
25129W        W38543   7.148  16.274  13.522  0.2345  0.0775 -0.2677
25130W        W38544   0.514   8.513   3.394 -0.0912  0.2055 -0.0536
25131W        W38545  10.050   5.254   5.339  0.0891 -0.4663  0.0723
25132W        W38546   0.707   8.003   1.179  0.1140  0.4400  0.1309
25133W        W38547   2.062   3.253   0.339 -0.3373 -0.2216  0.0206
25134W        W38548   6.995   8.542  12.637  0.2535  0.1504 -0.2211
25135W        W38549   1.748  17.680  12.114 -0.0591  0.0172  0.1221
25136W        W38550   9.158  16.286   4.297 -0.1065 -0.2770  0.1456
25137W        W38551  13.843  12.970   1.717  0.2669  0.0655  0.1310
25138W        W38552   1.888   8.338   0.595 -0.0525  0.0297 -0.3149
25139W        W38553   2.024   8.990  10.182 -0.3286  0.3501  0.0214
25140W        W38554   8.979   8.774  15.886 -0.2506 -0.0602 -0.1144
25141W        W38555   0.080  12.532  13.196  0.0512  0.1708 -0.0001
25142W        W38556  15.115  13.825  15.613  0.0214 -0.2847  0.1510
25143W        W38557   6.818   0.603   3.702  0.0646  0.0579 -0.3018
25144W        W38558  11.188   7.413   3.959 -0.1583  0.0823 -0.0640
25145W        W38559   6.972   4.556  12.301  0.1134 -0.0685 -0.1051
25146W        W38560   5.652   2.202   4.457 -0.1228 -0.0084  0.1599
25147W        W38561  14.802  10.194  15.897 -0.1299  0.4677 -0.0073
25148W        W38562   8.167   5.503   5.857  0.0479 -0.2762  0.1054
25149W        W38563  14.789   5.850  13.290  0.0112  0.1088  0.1066
25150W        W38564   7.080  13.955  11.490 -0.0886 -0.1555  0.1090
25151W        W38565  13.136   9.062   9.835 -0.2351  0.2146  0.0730
25152W        W38566   1.704   0.713  11.423 -0.1023  0.3627  0.1821
25153W        W38567   6.243  18.250   1.795 -0.6687 -0.3422  0.3087
25154W        W38568   3.190  15.351   6.802  0.1117  0.1933  0.0880
25155W        W38569   6.030   1.014   9.788  0.2156 -0.0265  0.1978
25156W        W38570   4.180   9.033  10.313  0.1261  0.0182  0.0309
25157W        W38571   6.500   4.123  15.835  0.0553  0.0056 -0.1036
25158W        W38572   6.723  15.707  13.624 -0.1418  0.0462 -0.0774
25159W        W38573   9.003   5.763  12.593 -0.2722  0.0485  0.0898
25160W        W38574  11.909   0.476   4.233 -0.0498 -0.1087  0.1763
25161W        W38575   1.343   9.077  13.029  0.1608  0.2272  0.4521
25162W        W38576   4.084   8.704   5.424  0.1353  0.3312  0.2213
25163W        W38577  14.670   1.275  16.460 -0.1875  0.0388 -0.2119
25164W        W38578   2.188   9.308  14.433  0.0980 -0.0448  0.1259
25165W        W38579   4.577   6.263   2.182  0.0801  0.3635 -0.0627
25166W        W38580   0.556  16.881   6.066 -0.2752  0.0301  0.0065
25167W        W38581  15.755  15.177   5.882 -0.0521  0.0119  0.2469
25168W        W38582  17.162   9.973  12.743 -0.1831 -0.1172 -0.3198
25169W        W38583   9.106   9.585  13.743  0.1412 -0.0765  0.1421
25170W        W38584   6.949   2.809  15.557 -0.1394  0.0842  0.1008
25171W        W38585   1.319   9.913  14.413  0.2966 -0.3772  0.0467
25172W        W38586   7.335   3.391   3.739  0.0758 -0.0398 -0.1437
25173W        W38587   3.470   3.247  14.901  0.1713 -0.1584  0.1806
25174W        W38588  11.470  12.887  13.579 -0.0190  0.1837 -0.0108
25175W        W38589   0.683  13.465  15.170 -0.5633  0.0373  0.3198
25176W        W38590  10.935  10.812  14.416 -0.1020 -0.1413 -0.1627
25177W        W38591  14.851   8.554   2.155 -0.0658  0.0788 -0.4778
25178W        W38592  16.280   0.313   3.456 -0.0112  0.2238 -0.0053
25179W        W38593  16.986  11.552   2.728  0.3842  0.2009 -0.0437
25180W        W38594  14.104   5.955   1.824  0.1431  0.0185 -0.3113
25181W        W38595   1.010   0.045   5.916  0.0444 -0.0304 -0.2362
25182W        W38596   4.482  14.979  15.871 -0.1820  0.0286 -0.4753
25183W        W38597   6.681   9.212   2.052 -0.0819 -0.3678 -0.0940
25184W        W38598   9.627  16.018  15.695 -0.1240 -0.0183  0.1911
25185W        W38599  15.119   2.786   2.446  0.0658  0.1016 -0.3151
25186W        W38600   8.490  17.281   2.358  0.1420 -0.1244 -0.1049
25187W        W38601   0.773  11.628  14.028  0.0668  0.3363  0.0687
25188W        W38602   7.062   0.773   4.353  0.1721 -0.2588 -0.2049
25189W        W38603  16.062   3.363  14.039 -0.0096  0.2721  0.4498
25190W        W38604   4.824   8.191  12.848  0.0259  0.1363 -0.2073
25191W        W38605  12.025  12.618   4.291 -0.0808 -0.0368  0.1367
25192W        W38606  15.810  13.595   0.992  0.2275 -0.2665 -0.1569
25193W        W38607  12.426  13.600   1.638 -0.0949  0.3764  0.1487
25194W        W38608   2.983   1.697  14.039 -0.0919  0.3632 -0.0693
25195W        W38609  17.035   2.209  12.157 -0.1740  0.0448  0.0411
25196W        W38610  10.762   1.948  14.425 -0.1830  0.0633  0.1660
25197W        W38611   0.174   3.169   3.831  0.1726  0.1836  0.0991
25198W        W38612  12.302   6.027  11.531  0.1561 -0.2045 -0.0846
25199W        W38613  17.582   7.661  12.069  0.0939 -0.2827 -0.0816
25200W        W38614   4.393   3.792  16.420 -0.2558  0.0424  0.0216
25201W        W38615  14.637   0.384   2.835 -0.0717 -0.1099 -0.0404
25202W        W38616  15.972   3.229   4.811  0.2036  0.0137  0.1697
25203W        W38617  11.847  16.930  15.971  0.0940  0.0328 -0.3591
25204W        W38618   0.597   2.022  15.800  0.0601 -0.2360 -0.1009
25205W        W38619   9.281  14.273  11.194  0.0289 -0.2011 -0.3384
25206W        W38620   7.788   7.553   1.134  0.1746  0.1271  0.0481
25207W        W38621   3.473  11.033   2.707 -0.2358  0.1742 -0.1893
25208W        W38622  17.963   0.051   5.710  0.1287 -0.0957 -0.0499
25209W        W38623  13.313  12.060  11.540  0.2325  0.0118 -0.1388
25210W        W38624  12.751  10.711  14.421 -0.0911 -0.1347  0.0615
25211W        W38625  11.371   6.940  12.577  0.0476  0.1756  0.2262
25212W        W38626   8.877  13.364   2.261 -0.1353 -0.0175 -0.0160
25213W        W38627   2.775   8.977   3.514 -0.3659  0.1214 -0.2009
25214W        W38628   9.557  15.283  14.814 -0.0342  0.1219  0.0740
25215W        W38629  17.822   5.560  11.057 -0.0430  0.0043  0.0638
25216W        W38630   3.316  14.905   5.376  0.1183  0.0354 -0.0245
25217W        W38631   9.473  13.284  13.721  0.0273 -0.2198  0.2014
25218W        W38632  16.870  15.797  11.152  0.1699 -0.1259 -0.1017
25219W        W38633  18.218   7.315   1.393  0.0535 -0.1528 -0.0565
25220W        W38634   1.340   8.116  13.441  0.2692  0.3703  0.1344
25221W        W38635  13.528   5.895   0.067 -0.2798  0.4586 -0.0576
25222W        W38636  13.897  12.768  12.046  0.0665  0.1304  0.3177
25223W        W38637  18.056  13.640   2.404  0.3555 -0.0513  0.2751
25224W        W38638   1.461  11.525  11.867 -0.1255  0.6154 -0.2363
25225W        W38639   2.794  16.729   3.390 -0.0348 -0.1929 -0.1444
25226W        W38640  10.913   3.872   1.797 -0.4216 -0.1045  0.0235
25227W        W38641   0.472   8.739  13.669  0.0934 -0.2364  0.2227
25228W        W38642   6.608   1.795  15.616  0.0443 -0.1104  0.2450
25229W        W38643   8.419  15.910   0.450  0.0696 -0.0998  0.1369
25230W        W38644   8.805  12.692  14.093 -0.2271  0.1254  0.0524
25231W        W38645   1.461  10.492  15.211 -0.4154  0.1442 -0.1116
25232W        W38646   9.992   6.040  11.046  0.0902 -0.2801 -0.2437
25233W        W38647   7.346  11.833   4.285  0.2861  0.3088  0.2720
25234W        W38648  14.530   4.360  10.234  0.1229 -0.5533 -0.1298
25235W        W38649  17.954   3.992   1.034 -0.0211  0.0900 -0.0082
25236W        W38650  10.695   4.034  12.923  0.2343  0.1739  0.1457
25237W        W38651   9.486  13.962  14.563  0.0031  0.1125  0.1252
25238W        W38652   3.872   6.102   0.937  0.0145  0.0998  0.1554
25239W        W38653  17.654  13.390   6.050 -0.1327  0.3471 -0.1642
25240W        W38654  10.036  10.146   3.999 -0.0600  0.2698 -0.1467
25241W        W38655  12.010   9.583   4.863 -0.2166  0.1370  0.0593
25242W        W38656  16.048   9.199  14.988 -0.2633 -0.0770  0.0150
25243W        W38657  16.970   5.036  15.302 -0.1750 -0.3474 -0.4180
25244W        W38658   9.861  10.534  11.096  0.0991  0.0020 -0.0601
25245W        W38659   4.253  13.667   4.346 -0.2221 -0.0408  0.1842
25246W        W38660  16.518  18.061  11.566 -0.0491 -0.0867 -0.4641
25247W        W38661  11.513   9.867   6.588 -0.0274 -0.2863  0.3157
25248W        W38662  16.723   3.984   0.457  0.3221 -0.2502  0.1287
25249W        W38663   8.310   4.196  15.063 -0.0648 -0.3177 -0.2570
25250W        W38664   0.523   5.298  11.558  0.0863  0.2201  0.1529
25251W        W38665  14.642   3.156  13.000 -0.1490  0.0400  0.0893
25252W        W38666   7.880  13.316  13.205 -0.1811 -0.4022  0.0674
25253W        W38667  17.332   3.708  14.308 -0.0515 -0.0722 -0.1807
25254W        W38668   9.799  10.022   0.625  0.0350  0.2227 -0.0198
25255W        W38669   5.502  10.018   2.493  0.0978 -0.2835 -0.1604
25256W        W38670   8.877  16.248   5.760  0.2700 -0.3526 -0.0714
25257W        W38671  14.381  18.102   4.859 -0.0130  0.2908 -0.1308
25258W        W38672   9.356  13.443   0.724  0.0827 -0.1366 -0.1927
25259W        W38673  15.779  12.449  13.344  0.2274 -0.0581 -0.2118
25260W        W38674  17.923  16.581   0.774 -0.1629  0.0311  0.2262
25261W        W38675   3.850   6.850   0.428  0.3300 -0.1750 -0.1225
25262W        W38676  11.232  12.042  13.448  0.0588  0.1169 -0.1021
25263W        W38677   1.720   9.835  13.085  0.0694 -0.0757 -0.1286
25264W        W38678  12.282  12.622   5.823  0.4552 -0.1402  0.2346
25265W        W38679   5.500   8.262   1.301  0.2603 -0.0485 -0.4092
25266W        W38680   7.106   5.925   3.194 -0.2338  0.2160 -0.0182
25267W        W38681   5.355   0.821   4.119  0.2943 -0.2069 -0.0790
25268W        W38682  16.369  15.930  11.236 -0.1596  0.0397 -0.0597
25269W        W38683  11.589   2.903  12.621  0.0277 -0.0202 -0.0365
25270W        W38684   2.072  10.079  12.748 -0.1212  0.0211 -0.2765
25271W        W38685   6.488   8.567   3.598  0.0561 -0.0884  0.2317
25272W        W38686   2.470  12.127   1.727 -0.1786 -0.0171 -0.3221
25273W        W38687  18.323  15.786   1.926 -0.1904 -0.0237  0.1326
25274W        W38688   2.627   7.264  11.713  0.2172  0.3953  0.2969
25275W        W38689  13.369   1.694   2.565  0.2925  0.0349  0.0844
25276W        W38690   8.545   3.159  10.069  0.4100  0.0166 -0.2015
25277W        W38691   1.386  12.807   4.082 -0.0953  0.1109 -0.0858
25278W        W38692  14.673   4.422  10.687 -0.2263 -0.0448  0.0495
25279W        W38693   4.144   0.724   3.472 -0.0451 -0.0206  0.0520
25280W        W38694  16.581   1.987   2.858  0.2088  0.1094  0.0477
25281W        W38695  13.760   3.315  13.695  0.1663  0.3595  0.2070
25282W        W38696  14.232   7.917   0.344  0.1595  0.2803 -0.0464
25283W        W38697  15.768  10.950   4.285 -0.1390 -0.0283 -0.1730
25284W        W38698   2.267   1.110  14.534 -0.2429  0.0366 -0.2466
25285W        W38699  16.641   4.679  15.509  0.1950  0.1431  0.0330
25286W        W38700  13.225  15.645  10.693 -0.1023  0.1574 -0.2583
25287W        W38701  13.063   0.118   0.618  0.0047  0.1073  0.0399
25288W        W38702   5.065   7.677  11.439 -0.1483 -0.0598 -0.1649
25289W        W38703  12.809  17.485   0.802 -0.3972 -0.0662  0.0572
25290W        W38704   1.981  16.351  10.410  0.0778 -0.0021  0.0323
25291W        W38705   4.350  12.739   1.911  0.0786 -0.0196  0.0073
25292W        W38706  14.184  12.753   3.840 -0.1057 -0.1270  0.1806
25293W        W38707   5.522   6.558   0.784 -0.2152  0.0923 -0.1173
25294W        W38708  15.600  11.182  12.346  0.1283 -0.1460 -0.0845
25295W        W38709   0.821   8.452  11.269 -0.3692  0.3737  0.1318
25296W        W38710   1.537   2.762   4.384 -0.0868  0.0489  0.4625
25297W        W38711  17.522   7.470  14.534 -0.1238  0.2297 -0.3884
25298W        W38712   5.045  18.070   2.051 -0.1522 -0.1479  0.2799
25299W        W38713   2.531   3.779   3.033 -0.1716  0.1378  0.0689
25300W        W38714  16.612  11.659   5.394  0.1059 -0.3358  0.0596
25301W        W38715  11.887   1.679  11.294  0.0308  0.0343 -0.0774
25302W        W38716   7.199  12.538   3.385  0.3223  0.1609 -0.0747
25303W        W38717  17.532  13.008  14.543 -0.1506  0.0429  0.0015
25304W        W38718  13.569   4.185  15.286  0.1293 -0.0986  0.0723
25305W        W38719   8.747   2.706  11.879 -0.0096  0.0012 -0.0640
25306W        W38720   7.394   4.235  13.081  0.2064 -0.0176 -0.1712
25307W        W38721  12.678   6.671  15.326 -0.0756  0.0493  0.3149
25308W        W38722  11.708  13.481  16.230 -0.1449  0.0112  0.1635
25309W        W38723  12.823  14.116  14.378  0.1677 -0.0101  0.0499
25310W        W38724   0.695  16.917  11.871 -0.1087  0.0778  0.2916
25311W        W38725   3.054   8.808  15.409  0.2892 -0.0620 -0.3196
25312W        W38726   9.049  15.952   2.413  0.0283 -0.0482 -0.1109
25313W        W38727  17.691   0.628  15.130  0.0197 -0.1254 -0.0035
25314W        W38728  17.914   6.056  15.787 -0.0769 -0.0674 -0.2586
25315W        W38729   2.575  15.437   0.534 -0.0517  0.2161 -0.1936
25316W        W38730   6.690   7.035   3.309 -0.3509  0.1636  0.2360
25317W        W38731   2.340  16.850  13.879 -0.1680  0.1251  0.2479
25318W        W38732  11.734   5.521   2.107  0.0381  0.2269 -0.0090
25319W        W38733  17.521   3.327   0.654 -0.1544  0.1148 -0.2666
25320W        W38734  14.206   5.900  11.697 -0.1871 -0.0085  0.2726
25321W        W38735   5.267   2.728   5.541 -0.2293  0.0935  0.3277
25322W        W38736   9.824   6.585   5.290  0.1190 -0.0643  0.1980
25323W        W38737   2.594  11.377  13.021  0.1437  0.1918 -0.1134
25324W        W38738   8.351  18.328  13.229  0.0409  0.3819  0.2945
25325W        W38739  17.913   2.419   1.914  0.1603  0.1367  0.0495
25326W        W38740  11.815  13.477   2.024  0.2000 -0.0645  0.0699
25327W        W38741   5.795   2.700   1.239  0.5398  0.1205 -0.1092
25328W        W38742  17.642  13.314  15.381  0.1831  0.0975 -0.1513
25329W        W38743  11.536  16.090   0.681 -0.1669  0.1581  0.1126
25330W        W38744   2.296  17.046  15.515 -0.0911  0.0253  0.0776
25331W        W38745   8.256  13.498  15.822  0.1654  0.1934  0.2294
25332W        W38746   9.354   3.585  13.951  0.2697  0.0857  0.1507
25333W        W38747   0.276  17.281  15.244  0.0226  0.3526  0.0604
25334W        W38748   9.689  15.451   0.601 -0.0568  0.0731  0.0367
25335W        W38749   3.890   9.021  11.996  0.0801  0.0592 -0.0348
25336W        W38750   2.368  17.940  15.483 -0.0441 -0.0633 -0.1421
25337W        W38751  14.910   3.975   3.703 -0.1881 -0.0814 -0.1669
25338W        W38752  13.551   6.631   2.270 -0.1066  0.3278  0.2739
25339W        W38753   5.460   9.366  14.691 -0.1215 -0.0505  0.0306
25340W        W38754  17.817  11.350  10.818 -0.0177 -0.0840  0.3100
25341W        W38755   4.279   8.489   2.753  0.3693  0.0800 -0.0929
25342W        W38756  11.787   4.468   4.231 -0.1786 -0.0854 -0.0933
25343W        W38757   6.917   8.597  10.947 -0.1785  0.0715 -0.1058
25344W        W38758   1.354   4.861   1.498 -0.1266 -0.0680 -0.1957
25345W        W38759   8.770  12.118   3.010 -0.0902 -0.1673  0.0472
25346W        W38760  15.743   7.666   3.516 -0.0200  0.1501  0.0944
25347W        W38761   1.358  18.035   2.264  0.0362  0.0990 -0.0176
25348W        W38762   4.902  17.512   0.160 -0.4733 -0.2287  0.1595
25349W        W38763   9.018   7.227   5.327 -0.3201  0.2372 -0.0425
25350W        W38764   0.792   7.140  15.168 -0.0310 -0.0337  0.1598
25351W        W38765   3.367  13.333  10.717  0.2782 -0.0073 -0.0712
25352W        W38766   2.648   1.826   4.576 -0.2079  0.1340  0.0254
25353W        W38767   1.589  13.142   2.329 -0.0065 -0.0428 -0.1595
25354W        W38768  14.504   9.242  16.100 -0.0104  0.2370  0.4545
25355W        W38769   4.882   3.225  12.993 -0.0642  0.1047  0.0279
25356W        W38770  12.740  13.755   4.212 -0.1253 -0.1635 -0.0131
25357W        W38771   5.432   3.065   4.496  0.0198 -0.1922 -0.0015
25358W        W38772  11.304   4.042  12.042  0.3630  0.0980 -0.0542
25359W        W38773  11.645   3.524   3.403  0.0108  0.2212 -0.0388
25360W        W38774   7.828  12.155  12.638 -0.4955  0.0991  0.3252
25361W        W38775  17.764  17.361   0.760 -0.0258 -0.0374  0.0266
25362W        W38776  11.466   6.901  14.662  0.1185 -0.3209  0.2516
25363W        W38777   6.628  16.116  11.761  0.1015  0.0217 -0.1484
25364W        W38778   5.902   3.957   0.938  0.3311 -0.0862  0.0100
25365W        W38779   4.354   3.376  11.565 -0.1390  0.2266  0.0268
25366W        W38780  18.368  17.096  15.655 -0.1008  0.2529 -0.2991
25367W        W38781   4.613  16.695   4.250  0.0770 -0.1894 -0.1985
25368W        W38782  10.923  15.432   2.638  0.0551 -0.0388 -0.1285
25369W        W38783   0.877  15.600   4.407  0.1094  0.2643 -0.0830
25370W        W38784   6.236  10.779  14.593  0.0066 -0.2071 -0.0195
25371W        W38785   5.982  17.301  12.037 -0.2443  0.0531 -0.2449
25372W        W38786  17.137  14.170  12.195 -0.1117  0.1226  0.2145
25373W        W38787   3.390  12.514   5.947 -0.0921  0.1021  0.5089
25374W        W38788  12.778  16.648  11.158 -0.2725  0.0955  0.1829
25375W        W38789  15.581   9.001  12.812 -0.1025 -0.0331 -0.3036
25376W        W38790  10.060   4.540   2.959 -0.0753 -0.2777  0.0204
25377W        W38791  14.997   7.583  14.317 -0.0953  0.2891  0.1498
25378W        W38792   4.309  11.365   2.467 -0.1106  0.0795  0.1949
25379W        W38793  10.646   6.866  15.715  0.4170  0.0987 -0.2842
25380W        W38794   1.604   0.767   5.189  0.0647  0.0764  0.3548
25381W        W38795   5.580  11.264  12.603 -0.2097 -0.1669 -0.0747
25382W        W38796  12.779  11.890   4.330 -0.0374 -0.2360 -0.1906
25383W        W38797   6.070   2.135   0.580 -0.2168  0.4388  0.2187
25384W        W38798  17.068  12.800  13.840 -0.0486  0.0211  0.0340
25385W        W38799  18.300  10.532   3.357  0.2227  0.1973  0.0404
25386W        W38800  13.679   2.956   2.486  0.1573  0.0338  0.2821
25387W        W38801  16.438   9.139   4.804 -0.3552  0.4163 -0.1940
25388W        W38802   4.700  12.686  15.243 -0.5376  0.0060  0.1321
25389W        W38803   2.590   4.572   6.124  0.2012 -0.0085 -0.2646
25390W        W38804  10.856   9.841  13.037  0.0593  0.0549  0.1544
25391W        W38805  15.887  13.293  15.700  0.0285  0.0567 -0.0770
25392W        W38806  10.352  14.028   1.990 -0.1096 -0.0360 -0.1457
25393W        W38807   0.603   5.501   9.960 -0.1710  0.2183 -0.1725
25394W        W38808   0.686   7.250   0.408 -0.3135 -0.1610  0.2565
25395W        W38809  11.626   7.730  13.628  0.0107  0.2109 -0.2161
25396W        W38810  15.118   4.047  10.900  0.0739  0.2056  0.0809
25397W        W38811  12.377   8.899  15.396 -0.1809 -0.1269  0.0483
25398W        W38812  12.992  13.053  13.666  0.2376 -0.0398  0.1265
25399W        W38813   2.538   5.631  15.795  0.3313 -0.0184  0.0729
25400W        W38814  15.746  15.172   2.745 -0.1858  0.1845  0.0517
25401W        W38815  18.202  12.976   1.462  0.0260  0.3161  0.0151
25402W        W38816   7.409   4.295   0.878 -0.0455 -0.3792  0.1556
25403W        W38817   6.203  11.792  11.550  0.0985  0.1038  0.0256
25404W        W38818   2.546  12.261  15.597 -0.0737 -0.0831 -0.1130
25405W        W38819  16.912  14.545   5.862  0.0068  0.2401  0.2610
25406W        W38820   5.348   7.567   9.635 -0.1947  0.0717  0.1503
25407W        W38821   8.731   5.505  12.075 -0.0021 -0.0367  0.0527
25408W        W38822   3.256  18.042  14.869  0.2100  0.3557  0.2739
25409W        W38823   6.181   1.230  14.744 -0.0902 -0.1197 -0.1922
25410W        W38824  13.497  17.472   5.865 -0.0415 -0.2331 -0.0291
25411W        W38825  16.299  13.054   1.050 -0.0567 -0.1612 -0.1288
25412W        W38826  15.845   2.270   2.722  0.2092  0.0067  0.0596
25413W        W38827  10.559  17.954  14.159 -0.0300  0.0213 -0.1242
25414W        W38828  10.318  10.507   4.758  0.1667 -0.1880 -0.2428
25415W        W38829  11.854   2.816  12.033 -0.0289  0.3218 -0.0337
25416W        W38830  14.227   3.164   0.419  0.0796  0.0089  0.2501
25417W        W38831   9.578   6.928  15.530 -0.1524 -0.0540 -0.4223
25418W        W38832  10.357  14.377  11.358 -0.1549  0.1110 -0.0395
25419W        W38833   0.366  11.208   1.454 -0.0195 -0.2342  0.4984
25420W        W38834  15.743  18.053   0.957 -0.0294 -0.1118 -0.0423
25421W        W38835  15.352   3.457   1.892 -0.1689 -0.1684  0.0459
25422W        W38836  11.956  12.365   3.032 -0.0547 -0.0683 -0.0614
25423W        W38837  15.041  10.076  13.774  0.1593 -0.4369  0.3344
25424W        W38838   9.225  11.550  14.208 -0.0561 -0.3332 -0.0353
25425W        W38839   8.761  16.160   0.117 -0.0761  0.0741  0.0744
25426W        W38840   6.890  15.325  13.943 -0.0709  0.0140  0.0425
25427W        W38841  17.724   9.561   2.169 -0.1241  0.1184  0.2550
25428W        W38842  16.864   7.850  15.885 -0.0764  0.2472  0.0835
25429W        W38843   3.029   4.257   1.807 -0.0672  0.0406 -0.2222
25430W        W38844  16.013  14.871   1.887 -0.0207 -0.0171 -0.0427
25431W        W38845   1.203  12.536  14.984 -0.0164  0.0485  0.3315
25432W        W38846  10.444  11.803   5.262 -0.1799 -0.0658 -0.0056
25433W        W38847  16.204   3.097   4.127  0.1249  0.2539  0.0051
25434W        W38848   2.390  15.526  11.158 -0.4882 -0.2409  0.1876
25435W        W38849   6.764  13.033   4.537 -0.0659  0.1215  0.0511
25436W        W38850   2.129  17.674   6.178 -0.0709 -0.2055 -0.0478
25437W        W38851   7.609  17.888  10.652  0.0415  0.3023  0.0595
25438W        W38852  15.958  17.386   3.239 -0.2327 -0.0704  0.0437
25439W        W38853   2.402   8.326  15.963 -0.1061  0.2461 -0.1554
25440W        W38854  13.735   2.638   1.672  0.1493 -0.0989 -0.6871
25441W        W38855   9.430   4.784  10.638 -0.0405 -0.2620  0.0450
25442W        W38856  12.030   2.146  13.106 -0.1691 -0.1780  0.1408
25443W        W38857   7.540  11.898   0.432  0.0678 -0.0450  0.1462
25444W        W38858  10.510   6.975   5.289  0.0283  0.1440 -0.0544
25445W        W38859  16.476  13.948  13.547 -0.1589 -0.0967  0.2432
25446W        W38860   1.195   1.608   2.481  0.0538 -0.0973  0.2652
25447W        W38861   9.498   9.761  14.681  0.0198  0.1348  0.0969
25448W        W38862  12.347   2.604  13.188 -0.0455 -0.0517  0.0017
25449W        W38863   3.711   0.976  15.503 -0.0183 -0.1301  0.1018
25450W        W38864   2.403  11.793   0.369  0.1370 -0.0361 -0.0549
25451W        W38865   3.781   0.165  11.898  0.0762  0.0021 -0.7647
25452W        W38866  11.680  14.925  10.644 -0.0458  0.1147  0.0953
25453W        W38867   8.370  10.593   0.122 -0.2042 -0.1717  0.3349
25454W        W38868   6.936   5.295  10.490 -0.0086 -0.1323 -0.0588
25455W        W38869   9.567  10.709   5.577 -0.2156  0.2800 -0.0964
25456W        W38870  10.845  10.950  11.380  0.1798  0.1303  0.0388
25457W        W38871   6.490   3.409  11.875  0.0070 -0.2395 -0.0585
25458W        W38872  16.164   5.394  10.195 -0.0743 -0.2790  0.0656
25459W        W38873  15.262  12.106  14.211 -0.1649  0.3234  0.0034
25460W        W38874   9.570   4.929  13.488  0.0663 -0.2339 -0.1543
25461W        W38875  18.322   0.287   6.066 -0.3503  0.2434 -0.0340
25462W        W38876   2.525  15.076  15.882 -0.2033  0.1170 -0.0079
25463W        W38877  13.327   2.256  12.990 -0.1275 -0.1387 -0.2373
25464W        W38878  17.860  12.869   0.056  0.5048 -0.2156 -0.1040
25465W        W38879   0.202  16.549   4.367  0.1248 -0.0904  0.0126
25466W        W38880   1.837   2.240  11.817  0.1969  0.1823 -0.1427
25467W        W38881  15.130  18.352   1.303 -0.0313  0.1475  0.0403
25468W        W38882  12.581  16.864  16.067 -0.3508  0.2504 -0.0352
25469W        W38883   1.904   2.540  16.430  0.0022  0.0231  0.0511
25470W        W38884   4.700   6.760   0.487  0.0776  0.3146  0.0108
25471W        W38885   5.764  11.923  10.705  0.0001  0.3221  0.0492
25472W        W38886   1.054   2.216   5.678  0.0392  0.5164  0.0102
25473W        W38887   0.135  10.610   4.893  0.3095 -0.1839 -0.1073
25474W        W38888  17.969  17.912   0.981  0.3563 -0.0276 -0.1502
25475W        W38889   2.429   2.363   4.709  0.0678 -0.0874 -0.1718
25476W        W38890   8.502   2.313   5.116 -0.1843 -0.4067  0.1262
25477W        W38891   3.972  11.456   1.194 -0.0385  0.2047 -0.0865
25478W        W38892  10.154   1.671  10.499  0.0048 -0.1175  0.2614
25479W        W38893   0.554   8.090   5.985  0.2448 -0.1892 -0.1864
25480W        W38894   8.457  11.090   4.815  0.0194 -0.0442 -0.0967
25481W        W38895  11.218  11.301   1.751  0.1183 -0.1206  0.1442
25482W        W38896  15.961   0.529   4.394 -0.0110  0.2298 -0.1949
25483W        W38897   1.620   7.965  11.690  0.0115 -0.0466 -0.0159
25484W        W38898   6.042   7.167  15.429 -0.0564 -0.0559  0.2196
25485W        W38899   5.898   0.143  14.223 -0.2341 -0.1086 -0.3031
25486W        W38900  12.228   3.835  12.319 -0.1550 -0.1463  0.1443
25487W        W38901  10.952  13.697   5.822 -0.0728 -0.0940  0.1467
25488W        W38902   3.286   0.092  15.927 -0.3734 -0.0539  0.3204
25489W        W38903   0.918   0.241   4.994 -0.1866 -0.1381 -0.6804
25490W        W38904  11.427   2.857   0.473  0.0992  0.1059  0.1789
25491W        W38905  16.969   1.721   2.180  0.1332  0.3421  0.0191
25492W        W38906   4.914   1.041  13.660  0.2328 -0.0171  0.0941
25493W        W38907  12.004   2.096   0.678 -0.2815 -0.0721  0.0117
25494W        W38908   9.307  11.489  15.492 -0.1241  0.0321  0.0154
25495W        W38909   6.707   7.956  16.345 -0.2096 -0.1081 -0.2651
25496W        W38910   9.868   9.612  13.815 -0.0083 -0.1280  0.1659
25497W        W38911   2.599  17.890  12.643  0.6606 -0.1944 -0.0061
25498W        W38912   3.313  11.298   3.541 -0.4446  0.1536  0.1996
25499W        W38913   1.117   4.609   5.551 -0.0555  0.1310  0.3993
25500W        W38914  14.942   8.466   0.704  0.0543  0.1327 -0.3780
25501W        W38915   7.939   6.542  13.746  0.3713 -0.2011  0.0451
25502W        W38916   5.090   7.089   0.079  0.2277 -0.0118 -0.0412
25503W        W38917   6.675   2.214   4.382  0.2229  0.0119  0.1881
25504W        W38918  16.461  11.503  10.946  0.1380 -0.2578 -0.0469
25505W        W38919  17.881  10.143   4.531  0.3398 -0.1157  0.1223
25506W        W38920  10.250  18.207   0.974  0.0643 -0.4480 -0.3034
25507W        W38921  12.895   2.973   1.934  0.3100  0.1932  0.1188
25508W        W38922   1.464   6.722   3.960 -0.0344  0.3048  0.2565
25509W        W38923   8.617   0.710  16.096 -0.0613  0.1978  0.1638
25510W        W38924   7.848  17.551   1.313  0.2723  0.0276  0.0673
25511W        W38925   7.989  18.125  13.449 -0.0925  0.3197  0.0445
25512W        W38926   7.045   1.022   1.475  0.0554  0.0158  0.2197
25513W        W38927   1.860   6.084  13.766  0.0293  0.1977  0.4134
25514W        W38928   2.450  13.232   3.349 -0.0543 -0.0734  0.1885
25515W        W38929  17.476  12.597   5.090  0.0895 -0.1281 -0.0136
25516W        W38930   4.223   5.315  13.123 -0.2108  0.0040  0.0336
25517W        W38931   6.877  12.017   3.770  0.0318  0.0028 -0.0285
25518W        W38932   2.592  11.372  15.183  0.3914  0.0177  0.0050
25519W        W38933   8.351   8.053   2.429 -0.1020  0.0936  0.4296
25520W        W38934   8.812  11.403   5.141  0.0865 -0.0720 -0.1682
25521W        W38935   7.304   2.140   1.242 -0.0983  0.0705  0.3590
25522W        W38936  15.763  17.071   1.389  0.1769 -0.0437  0.0548
25523W        W38937   5.970   0.705   0.439  0.1549 -0.1506 -0.1007
25524W        W38938   5.966   5.975   2.480  0.0996  0.0758 -0.1184
25525W        W38939   6.829   1.301   2.754  0.1578 -0.0982  0.0030
25526W        W38940  10.441   9.852   4.066  0.0134  0.1549  0.0804
25527W        W38941   9.008  15.453  14.838  0.3985 -0.0370 -0.1289
25528W        W38942   8.346  11.288  15.710  0.3205  0.2728 -0.0163
25529W        W38943   5.048   4.908  12.088 -0.1449 -0.4765  0.1527
25530W        W38944   4.862   8.524   9.818  0.3888  0.0624 -0.2261
25531W        W38945   6.709  11.749  15.599 -0.0186 -0.3257  0.2468
25532W        W38946  17.743  10.534  10.831 -0.2070 -0.0446 -0.0151
25533W        W38947  11.982  17.236  11.653 -0.3674 -0.2111  0.1629
25534W        W38948  10.386  14.240  13.618 -0.0066 -0.3213 -0.0825
25535W        W38949   5.323  17.720   0.106  0.2596 -0.1012  0.0159
25536W        W38950   2.127  11.463   1.654 -0.1002  0.2036  0.2355
25537W        W38951   1.273  11.112  13.094 -0.2075  0.0619  0.1783
25538W        W38952   9.656  11.640   5.963 -0.2073  0.1077 -0.3747
25539W        W38953   4.397   5.791  12.982  0.0433  0.0466  0.1179
25540W        W38954   1.018  13.714   0.122  0.4126  0.1890 -0.1766
25541W        W38955  13.876  14.706  12.268  0.0813 -0.0421 -0.1168
25542W        W38956   3.372   1.802  14.787 -0.0578 -0.2293  0.0156
25543W        W38957  15.754   4.784   1.567  0.1317  0.0260  0.0861
25544W        W38958  14.351  18.075   3.543 -0.0505 -0.0860 -0.0850
25545W        W38959   2.105  16.910   1.045 -0.1879 -0.2853 -0.0830
25546W        W38960   0.450   4.925   1.092 -0.0387 -0.2231  0.3490
25547W        W38961   3.198   2.354  16.210  0.3483  0.1249  0.0502
25548W        W38962  15.047  17.633  12.837  0.2145  0.0424  0.1154
25549W        W38963  16.556  17.821  12.302 -0.0350 -0.2117  0.0698
25550W        W38964   5.834   8.230  16.500 -0.0030  0.2006  0.0110
25551W        W38965  14.402  12.542  12.552  0.0693 -0.1454 -0.2016
25552W        W38966  13.638   6.541  14.101  0.2039 -0.0124 -0.1213
25553W        W38967  15.562   9.667  10.505  0.4238 -0.2747  0.3079
25554W        W38968   4.121   2.129  13.331 -0.2336 -0.4605  0.0944
25555W        W38969   4.322   2.809   1.260  0.0464  0.1395 -0.0004
25556W        W38970   8.020   5.377  10.649 -0.0200  0.0384  0.0481
25557W        W38971  14.136  17.537   0.816 -0.0341  0.0730 -0.0849
25558W        W38972  14.990  11.342  11.517  0.3702 -0.0920  0.0732
25559W        W38973  11.714   3.426   2.131  0.2064 -0.1662 -0.0120
25560W        W38974   7.552   4.725  14.563  0.0741  0.0272 -0.0895
25561W        W38975  18.176  12.732   2.820  0.0296 -0.0512 -0.0884
25562W        W38976   2.779   8.574   2.923  0.2548 -0.0024  0.2023
25563W        W38977  17.010   5.538  12.847  0.0175 -0.0716  0.0102
25564W        W38978   4.623  15.429   1.210  0.0479  0.0096 -0.1237
25565W        W38979   3.345   3.696   5.118 -0.0150  0.3567  0.2485
25566W        W38980   7.928   0.425   1.836 -0.3317 -0.2652  0.2581
25567W        W38981  15.512   1.638   5.353 -0.2856  0.0020 -0.0132
25568W        W38982  16.392   0.442   4.081  0.0241  0.3515 -0.2706
25569W        W38983   4.528  10.591  12.595  0.1087 -0.0903  0.0849
25570W        W38984   2.773   4.618  16.092  0.1402 -0.0958  0.0086
25571W        W38985  16.037   7.093  16.288  0.0201 -0.0494  0.1406
25572W        W38986   1.797  18.154  13.892 -0.0109  0.0089  0.0868
25573W        W38987  14.298   2.533  13.486  0.1859 -0.0422  0.1857
25574W        W38988   8.453   3.751  12.112  0.0482 -0.1872 -0.3348
25575W        W38989   2.764   9.330  12.174 -0.2324  0.1472 -0.0871
25576W        W38990   3.560   0.701  11.129  0.0621 -0.2216  0.2462
25577W        W38991  14.810   1.133  13.849  0.0470  0.0071  0.0239
25578W        W38992  10.350   8.115  14.352 -0.0001 -0.1550  0.0533
25579W        W38993   5.787   9.933  14.722  0.3452  0.3274 -0.0576
25580W        W38994   9.117  11.710  12.265  0.0160  0.0707  0.2909
25581W        W38995   0.796  17.128  12.835 -0.0632  0.2376  0.1274
25582W        W38996  17.550   4.551  13.708 -0.0206 -0.0470 -0.1463
25583W        W38997   8.363   4.647  15.749  0.3293 -0.0435  0.0016
25584W        W38998  14.068   8.201  14.866 -0.0465  0.1770  0.1059
25585W        W38999  10.978   0.159   5.260 -0.1824 -0.1805  0.0913
25586W        W39000   1.555   3.370   5.276 -0.1295 -0.1197 -0.1073
25587W        W39001  13.393  11.261  15.596 -0.2503  0.1033  0.2074
25588W        W39002   7.968  16.054   5.815  0.0019  0.0055 -0.0436
25589W        W39003   9.002   6.520   5.999 -0.3669  0.0933  0.1867
25590W        W39004   7.143  12.047   5.282 -0.2941  0.0845 -0.4928
25591W        W39005   1.505  17.085  14.753 -0.1135  0.3384  0.1837
25592W        W39006   9.609   6.029   3.727 -0.3704 -0.0441  0.0532
25593W        W39007   7.493  13.029  14.536 -0.1407 -0.2219  0.0591
25594W        W39008   6.740  12.131   2.654 -0.2724 -0.4122 -0.1072
25595W        W39009   7.844  17.747  12.041  0.1515  0.1477 -0.3476
25596W        W39010   9.887   5.835   3.354  0.0195  0.2408  0.2503
25597W        W39011   0.228   9.077   0.887 -0.0550  0.1522 -0.0615
25598W        W39012  13.912   6.251  14.484  0.2269 -0.1105 -0.0024
25599W        W39013   3.572  10.531   2.823 -0.0023 -0.1234  0.0102
25600W        W39014  15.615  14.273   1.565 -0.1824  0.1364  0.1153
25601W        W39015   1.177   3.579  14.172  0.0569  0.0499  0.0713
25602W        W39016   5.581   5.817  15.548  0.3969 -0.1875  0.1374
25603W        W39017   2.706   9.572  15.668 -0.2385 -0.2466  0.0067
25604W        W39018  16.047   4.280  13.247 -0.0600  0.0617 -0.1639
25605W        W39019  10.305   6.279   4.144  0.0891  0.1275  0.1979
25606W        W39020   0.526  13.473  12.058  0.1876  0.1205 -0.0324
25607W        W39021  16.881   8.473  13.065 -0.0511  0.0090 -0.1076
25608W        W39022   4.305   8.421   3.623 -0.3265 -0.0680  0.2440
25609W        W39023  13.111  14.846  11.222 -0.1327 -0.2163 -0.2609
25610W        W39024   8.049   8.916  15.450  0.1380 -0.0767 -0.1942
25611W        W39025  17.976   1.768   0.608  0.3296 -0.3211  0.3691
25612W        W39026   2.184   4.800  10.130  0.2142 -0.3054 -0.0763
25613W        W39027   4.524   0.703   5.499  0.1563 -0.3471  0.2536
25614W        W39028   5.842   5.263  11.606 -0.2845  0.1783 -0.0577
25615W        W39029  14.813   6.961  10.859  0.1134 -0.0097  0.2225
25616W        W39030   7.737   7.792  13.322 -0.0158 -0.1036  0.0096
25617W        W39031  14.712  14.572   1.658  0.0438 -0.0399  0.0288
25618W        W39032   3.040  13.000   4.052  0.2324 -0.0681 -0.0251
25619W        W39033   8.501   3.842   3.591  0.0454 -0.0798 -0.1353
25620W        W39034   5.976   0.917   3.250  0.1927  0.2111 -0.0786
25621W        W39035   5.098  17.464   5.628  0.1748 -0.3490  0.1245
25622W        W39036   2.859   1.754  14.972  0.0294 -0.1927 -0.0766
25623W        W39037  18.113   4.207   2.983 -0.1016  0.0390  0.0188
25624W        W39038  11.209   1.993  15.379 -0.2133 -0.0443  0.1027
25625W        W39039  11.038  17.643  14.079  0.3218 -0.1983 -0.2604
25626W        W39040   9.668  17.258  11.988  0.2722  0.3042 -0.0536
25627W        W39041   8.462   9.524   3.970  0.0479 -0.2747 -0.1910
25628W        W39042   0.228  15.159   0.670  0.1193 -0.3408  0.2189
25629W        W39043  14.820   1.172   5.000 -0.1802  0.1646 -0.0656
25630W        W39044  16.047  14.795   3.797  0.3763 -0.0698 -0.2394
25631W        W39045   7.310   0.886  16.443  0.2370  0.0803  0.3934
25632W        W39046   4.657   0.119  12.531  0.0823 -0.3062  0.0320
25633W        W39047   9.647   2.766  16.109 -0.1505  0.0475 -0.0297
25634W        W39048   0.484   0.641  15.467 -0.2321  0.0246 -0.2041
25635W        W39049   9.052   7.164   4.449 -0.0229  0.1831  0.2948
25636W        W39050  10.964  10.357  14.123 -0.0638 -0.0233  0.1875
25637W        W39051  13.587  16.651  15.947 -0.1645  0.0778 -0.0993
25638W        W39052   7.982  11.718   2.878 -0.1865  0.3608  0.0300
25639W        W39053   5.951  10.755  11.507  0.1286 -0.0452  0.1442
25640W        W39054   5.137   7.042   9.938 -0.1991 -0.0650 -0.0515
25641W        W39055   9.515  10.974  12.653  0.1350 -0.2273  0.3410
25642W        W39056  16.285   7.534  11.434 -0.0393 -0.2465 -0.0073
25643W        W39057  13.279  14.732  15.378 -0.2012  0.0527  0.0019
25644W        W39058  12.578  14.084  15.226 -0.3708  0.0092 -0.2069
25645W        W39059  17.860  13.915  15.324 -0.0001 -0.0721 -0.0284
25646W        W39060   2.316  15.089  14.481 -0.0061 -0.1951 -0.2031
25647W        W39061  16.120  13.333  10.780  0.0988 -0.0446 -0.1929
25648W        W39062  14.168   1.566  15.629 -0.0113  0.0515 -0.0410
25649W        W39063  11.458   6.414   5.237 -0.1861 -0.2014 -0.0998
25650W        W39064   6.428   2.175  15.087 -0.1611 -0.0314 -0.2981
25651W        W39065  13.455  18.199  14.860  0.1807  0.0371  0.1842
25652W        W39066   5.292   2.363  14.453  0.0878 -0.2695  0.2508
25653W        W39067  13.545  15.462  12.440  0.1838 -0.2020 -0.0295
25654W        W39068  10.058  12.264  12.973  0.1002  0.0647 -0.0727
25655W        W39069   7.994   2.268   5.435 -0.5376  0.3961  0.0359
25656W        W39070   8.312   0.464   0.892 -0.1264  0.1139  0.1228
25657W        W39071   6.105  14.719   3.221  0.0859 -0.1095  0.0929
25658W        W39072  17.064   1.229   1.992  0.0032 -0.0060  0.2887
25659W        W39073  15.289  12.822   1.058  0.1919  0.0162 -0.0928
25660W        W39074   3.490   6.619   4.655 -0.0466 -0.1772 -0.0943
25661W        W39075   3.329  14.188   4.936  0.0410  0.2108 -0.1972
25662W        W39076  17.084   9.544  10.187  0.1386  0.0926  0.1151
25663W        W39077  12.452  10.136  14.898 -0.2269 -0.2146  0.1260
25664W        W39078   3.256  14.594   3.111  0.0145  0.0735  0.0290
25665W        W39079   3.818  17.488  12.731 -0.2645 -0.0684  0.0381
25666W        W39080  16.010   8.930   1.083 -0.1123  0.2400 -0.0308
25667W        W39081   6.333  16.913  13.201  0.2903  0.1850  0.0236
25668W        W39082   4.878  15.914   0.262  0.0815 -0.2627 -0.1778
25669W        W39083  17.421  16.105  13.977  0.1420 -0.1592 -0.1399
25670W        W39084   3.092  15.922  16.402 -0.2231  0.0883  0.1558
25671W        W39085   0.858   7.242   1.467  0.2480  0.0372  0.0578
25672W        W39086   7.375  17.951  16.076  0.0964  0.0820 -0.3035
25673W        W39087   8.076   7.533  16.100  0.1030  0.1034  0.2503
25674W        W39088   8.933   6.427  15.233 -0.1053  0.1121 -0.0698
25675W        W39089  12.659  16.123   3.334  0.1555  0.2526 -0.0193
25676W        W39090  17.800   1.908   5.738 -0.0657 -0.1471  0.3253
25677W        W39091  17.549  12.946  16.155 -0.1206  0.2300 -0.1822
25678W        W39092   5.833  13.438  12.851 -0.0214  0.3717  0.2237
25679W        W39093   8.880   5.300  15.107  0.1143 -0.0833 -0.2829
25680W        W39094   0.255   0.579   2.364 -0.1346 -0.0077 -0.0248
25681W        W39095   3.636  18.376   6.077  0.0603  0.1109  0.0199
25682W        W39096  14.523   6.578   0.771  0.1080 -0.0619  0.0056
25683W        W39097  10.137   2.271   0.457  0.1674 -0.1166  0.2425
25684W        W39098   1.973   1.134   3.458 -0.2562  0.1867 -0.3994
25685W        W39099   7.561   5.045  15.895  0.1426 -0.2002 -0.1182
25686W        W39100  10.171   9.999  13.810 -0.2524 -0.0486 -0.2631
25687W        W39101   1.245  11.621   4.588 -0.1706  0.2324  0.0002
25688W        W39102  15.660   8.899  14.899 -0.0957 -0.1540  0.1036
25689W        W39103  17.953  18.327   6.160  0.0305  0.2563 -0.2141
25690W        W39104   9.816  14.970   5.144 -0.1694  0.0784 -0.1045
25691W        W39105  12.573   2.005  16.403 -0.0381  0.1230  0.0908
25692W        W39106   2.119  16.857   6.423 -0.0472  0.0907  0.3234
25693W        W39107   6.968   6.909   5.291  0.0712 -0.1801 -0.0057
25694W        W39108  16.902  16.919   6.238  0.2461 -0.3193  0.1933
25695W        W39109  14.402  14.958   4.593  0.3558  0.3189 -0.0233
25696W        W39110  11.293  13.305   2.779  0.1748 -0.0390 -0.0023
25697W        W39111   4.120  11.009   1.397 -0.3372 -0.2744  0.0886
25698W        W39112  14.143  16.127   0.002 -0.0567 -0.0455 -0.2539
25699W        W39113  11.133  12.134  16.061  0.1797 -0.3195 -0.1009
25700W        W39114   0.140   7.567   2.969  0.1168  0.0137 -0.0011
25701W        W39115   3.009  18.099  16.258 -0.0448  0.0720 -0.2395
25702W        W39116  14.726   0.137   5.083 -0.0032  0.2849 -0.0168
25703W        W39117   5.832   4.866   0.281 -0.0307  0.0697 -0.0965
25704W        W39118  17.134   0.032  15.742  0.6108  0.2479  0.0347
25705W        W39119   3.523  14.976  13.130  0.0320  0.0454  0.0188
25706W        W39120   6.029   5.209  16.286  0.0276 -0.1238  0.0549
25707W        W39121   4.730  16.427  14.652 -0.1748 -0.4547 -0.0374
25708W        W39122   0.392   7.482   0.012 -0.1315  0.0323  0.0661
25709W        W39123   1.870   4.301  13.970  0.0813  0.1850 -0.0054
25710W        W39124  11.270   6.951   3.666 -0.0766 -0.0698  0.0441
25711W        W39125   3.956  10.625  11.869  0.0664 -0.0452  0.0335
25712W        W39126   9.196   3.070  15.329  0.2286  0.2623  0.0193
25713W        W39127   1.141   2.475  10.005 -0.1118 -0.1115 -0.0083
25714W        W39128   2.140  14.132   4.227  0.0829 -0.0093 -0.2207
25715W        W39129   3.740   3.820   4.377  0.1052  0.0880  0.2885
25716W        W39130   7.541   5.124   1.814 -0.2450 -0.3256 -0.1851
25717W        W39131   1.210  18.008  15.658  0.1892  0.0425  0.0344
25718W        W39132  14.285   1.244  11.820 -0.0081 -0.1352 -0.4601
25719W        W39133  16.264  16.639   3.621  0.1665 -0.1160 -0.1193
25720W        W39134   1.704  15.295  15.939 -0.0520 -0.1231 -0.3426
25721W        W39135  13.006   4.817   5.067 -0.0300  0.0232 -0.0349
25722W        W39136   6.009   0.593  14.056 -0.1126 -0.1064 -0.0029
25723W        W39137  13.928   5.148  10.365  0.2291 -0.0466  0.2708
25724W        W39138   2.539   2.047  13.295 -0.1487  0.0968  0.0653
25725W        W39139   5.181  13.821   3.726 -0.2235  0.1792  0.1154
25726W        W39140   6.144   6.842  10.305 -0.0366  0.1548 -0.4665
25727W        W39141  10.561  14.597   1.191 -0.0471  0.1325 -0.0879
25728W        W39142   9.269  17.558  14.691  0.0929 -0.2384  0.2262
25729W        W39143  13.244   1.298  11.456 -0.0792 -0.2223 -0.0714
25730W        W39144   3.808   1.307   3.363  0.1341  0.1886 -0.1403
25731W        W39145  17.346  11.425   4.431 -0.1052 -0.5841 -0.1927
25732W        W39146   6.034   2.623  14.865 -0.2351  0.0545 -0.1922
25733W        W39147   1.245   4.246   3.084 -0.1097 -0.1025 -0.1120
25734W        W39148   0.442   9.369  11.405 -0.0197 -0.1511  0.0717
25735W        W39149   6.762  14.515  10.828  0.0677 -0.1228 -0.2633
25736W        W39150  16.526   6.850   1.957 -0.3116 -0.1808 -0.0398
25737W        W39151   6.854  13.720   2.721 -0.2117  0.0851  0.0916
25738W        W39152  14.230  10.228  13.341 -0.2557 -0.0927  0.1438
25739W        W39153  14.928  11.279   5.423 -0.1098 -0.0068  0.0817
25740W        W39154   8.324   8.738  12.653 -0.0704  0.0235  0.0093
25741W        W39155   3.432   7.538  14.830 -0.1053 -0.3128  0.3138
25742W        W39156   5.215   6.358   4.800 -0.2586 -0.0350  0.1160
25743W        W39157   5.517   9.315   3.723 -0.2133 -0.1279 -0.2013
25744W        W39158  16.314   9.433   0.238 -0.0817 -0.0907 -0.1256
25745W        W39159  11.117  16.048   5.740  0.2656 -0.1688  0.0994
25746W        W39160  12.427  12.800   3.594  0.1546  0.1107  0.0300
25747W        W39161  12.858   7.275  11.397  0.0037 -0.0814  0.0811
25748W        W39162   8.104   1.625   4.837  0.2034  0.0693 -0.0263
25749W        W39163   8.310  14.641  13.141  0.2329 -0.2346  0.1930
25750W        W39164   3.980   1.901  16.457  0.0521  0.2389  0.3742
25751W        W39165   2.583   9.598   3.747 -0.0025 -0.1050 -0.1449
25752W        W39166  13.774  11.087  11.807  0.2905  0.0329  0.0515
25753W        W39167   3.207   0.290  11.187 -0.0171  0.0208 -0.0536
25754W        W39168  15.556  11.938  11.128 -0.1599  0.0058  0.1684
25755W        W39169   2.635  14.391  11.673 -0.0535  0.1495 -0.0669
25756W        W39170  11.081  15.104  12.674  0.0427 -0.0659  0.0274
25757W        W39171  14.182  18.349  12.017  0.0714  0.1704  0.0820
25758W        W39172  16.171   2.693   1.151 -0.4372 -0.2085 -0.1315
25759W        W39173   6.124   9.624   5.002 -0.0637  0.2292 -0.2903
25760W        W39174  17.597  17.712   3.942  0.1130  0.0101  0.1424
25761W        W39175   4.652  14.052   4.295 -0.0418 -0.2301 -0.1253
25762W        W39176  17.193   5.144  13.641  0.1872  0.0468 -0.1493
25763W        W39177   0.678   2.146  14.071 -0.0770  0.0426 -0.0127
25764W        W39178   3.273   5.024   5.589  0.1701  0.3415  0.2604
25765W        W39179   0.955  12.086   4.192 -0.1770  0.2244  0.4142
25766W        W39180   7.360  12.730  15.886  0.4950 -0.0353 -0.5128
25767W        W39181  10.186  15.044   3.281 -0.1400 -0.2488 -0.1517
25768W        W39182  13.611  11.640   5.936 -0.0909 -0.0587  0.2410
25769W        W39183  17.390   3.244   3.976 -0.2264 -0.0984 -0.1016
25770W        W39184  16.707   8.185  15.578  0.1264 -0.3445 -0.1875
25771W        W39185  16.647   2.611  16.355  0.0634 -0.4069 -0.0225
25772W        W39186   3.884   2.184   3.164 -0.0881 -0.3626  0.0521
25773W        W39187  10.260  16.494  14.363 -0.1858  0.1559  0.3113
25774W        W39188   7.471  15.749   1.878 -0.1283  0.1989  0.2486
25775W        W39189   1.252  11.565  15.997  0.0544  0.0576  0.1574
25776W        W39190   5.957   1.967   2.419  0.2239  0.0649  0.2349
25777W        W39191  15.705   9.539  14.056  0.0650 -0.2440  0.0198
25778W        W39192  14.002  13.071  13.088  0.1781  0.1466 -0.0047
25779W        W39193  12.825   9.475   5.453  0.1988 -0.0088  0.0730
25780W        W39194  10.562  11.336   3.699 -0.1663  0.0295  0.1337
25781W        W39195  12.531  15.230  15.134  0.0822  0.0746 -0.0486
25782W        W39196   7.802  13.079   3.716  0.0749 -0.0357 -0.1536
25783W        W39197   4.076  10.267   4.350  0.0368  0.0590  0.1411
25784W        W39198  15.521   9.613  15.538 -0.1254 -0.0584  0.0891
25785W        W39199  17.439   3.930   2.274  0.2431  0.1204  0.0016
25786W        W39200  12.340  14.425  11.187  0.2068  0.0624  0.1562
25787W        W39201   5.819  11.257  10.695  0.1682 -0.0151 -0.0751
25788W        W39202   2.730  10.923  16.385 -0.2102 -0.2221 -0.0401
25789W        W39203   4.122   1.639  14.019 -0.0324  0.1648 -0.5046
25790W        W39204   6.540   2.845  14.712 -0.0334 -0.4250 -0.0847
25791W        W39205   8.458   6.924  12.054 -0.1473  0.3054  0.0167
25792W        W39206  15.063   3.787  15.811  0.1670 -0.3571  0.1284
25793W        W39207  14.004  14.875  13.228  0.0151 -0.5279 -0.1422
25794W        W39208   6.315   1.351   1.170 -0.1818  0.2189 -0.1168
25795W        W39209   8.253   8.529  16.193 -0.2812  0.0319 -0.0662
25796W        W39210   6.045  13.451  15.846  0.0633 -0.0521 -0.1887
25797W        W39211   0.048   3.274   0.476 -0.1815  0.1835  0.4618
25798W        W39212   9.251   5.278  10.538  0.0533 -0.0143  0.1685
25799W        W39213   0.242  13.202   4.009 -0.0295  0.0433 -0.5127
25800W        W39214   0.293   6.291   2.870 -0.0686 -0.0557  0.1010
25801W        W39215   1.370   1.916  11.316  0.1957 -0.0165  0.2888
25802W        W39216  14.157   4.583  10.483 -0.0180  0.2217 -0.2553
25803W        W39217   8.898  17.380   0.579  0.1311  0.0229 -0.1462
25804W        W39218   4.527  13.153   0.029 -0.0775  0.0873  0.1314
25805W        W39219  18.224   5.079   0.414 -0.3099 -0.2462  0.1678
25806W        W39220  16.062   2.432  15.255  0.1586 -0.4860 -0.0366
25807W        W39221   3.692   3.160   2.894  0.0581 -0.1132 -0.1493
25808W        W39222   7.125   5.839   0.134  0.1559 -0.1125  0.1488
25809W        W39223   6.380  16.253   1.284 -0.3620  0.0238 -0.0027
25810W        W39224   7.142   3.424   0.558 -0.2022  0.3913 -0.1849
25811W        W39225  17.361  13.028   2.429 -0.0525  0.0002  0.2722
25812W        W39226  17.526   2.928  13.947  0.2018 -0.3373  0.1371
25813W        W39227   8.483   0.545   2.335  0.0301 -0.1833  0.0573
25814W        W39228  13.726   5.965  11.851 -0.0092 -0.0085  0.1040
25815W        W39229  15.630  17.563   4.676  0.1311 -0.0184 -0.1958
25816W        W39230  10.704   3.063  14.642  0.0107  0.4988 -0.2061
25817W        W39231  13.909  13.640  11.476  0.0994  0.2241  0.0626
25818W        W39232   8.722  15.092   1.340  0.2100  0.2133  0.3630
25819W        W39233   2.545  10.699   2.391  0.0115 -0.1658 -0.1033
25820W        W39234   5.499  10.858  14.615 -0.0734  0.0438 -0.2663
25821W        W39235   4.395  10.579   0.150 -0.1865  0.2465  0.2724
25822W        W39236   4.678   4.294  12.680  0.3885 -0.1572 -0.4049
25823W        W39237   2.620  14.534   0.112  0.1199  0.3568  0.1745
25824W        W39238   8.753  13.443  12.039  0.1069  0.0430 -0.2604
25825W        W39239   2.208   0.426  12.836  0.1350  0.1380 -0.0260
25826W        W39240   0.831  11.320  13.191 -0.0926 -0.4780  0.0229
25827W        W39241  10.001   2.785  10.413  0.3532  0.0445  0.4395
25828W        W39242   2.179  14.435  14.229  0.0318  0.1643  0.1054
25829W        W39243   3.003   3.033   5.074  0.0250  0.1340  0.0451
25830W        W39244   5.210  17.296  12.647  0.1067 -0.0105  0.0362
25831W        W39245   6.933   1.119  11.702  0.1626  0.4700  0.0007
25832W        W39246   1.517   8.595   0.854  0.2856 -0.1236 -0.0512
25833W        W39247   6.758   7.522   3.114  0.0320 -0.0810  0.0178
25834W        W39248  10.168   4.048  16.191 -0.0706  0.2354 -0.0365
25835W        W39249   9.774  15.565   2.644  0.1730  0.1966 -0.0611
25836W        W39250  17.008   6.843   4.246 -0.1559  0.0388  0.2672
25837W        W39251  16.575  17.813   3.888  0.4883  0.0070  0.4017
25838W        W39252  10.534  15.276   2.325  0.0713 -0.0741  0.0194
25839W        W39253  10.561   0.670   3.525 -0.1558  0.2196  0.3229
25840W        W39254  18.042   8.546  10.370 -0.0525  0.1771  0.1376
25841W        W39255  12.144   3.184   6.161  0.0168  0.1077 -0.2232
25842W        W39256   9.213  11.545  13.706  0.2169 -0.4208  0.1393
25843W        W39257   0.901  15.500  13.657  0.3227  0.0665  0.1496
25844W        W39258  10.621   8.053  12.194 -0.2836 -0.0516  0.3051
25845W        W39259   9.278   6.886  13.548  0.0445 -0.0490  0.0718
25846W        W39260   5.172  17.378  12.107  0.0428  0.0069 -0.0051
25847W        W39261   7.462   9.218   3.421  0.1066 -0.1966  0.0651
25848W        W39262  14.041  15.387   2.838  0.2287  0.0739 -0.1406
25849W        W39263   4.959  12.293  12.902 -0.0068  0.1846  0.0995
25850W        W39264   8.335   8.885  14.108  0.0572  0.2161  0.0016
25851W        W39265  12.655   9.774   1.865  0.0829  0.1266  0.2087
25852W        W39266   7.272  12.617  10.824  0.0385 -0.1566 -0.1759
25853W        W39267  13.290   5.703  10.413  0.0669  0.1674 -0.1578
25854W        W39268   5.812   9.731  15.810 -0.0250 -0.4548 -0.0812
25855W        W39269  10.786  14.720  14.915 -0.1759 -0.2741 -0.2493
25856W        W39270   8.967  10.386   4.852 -0.4118 -0.2999 -0.0890
25857W        W39271   0.654   0.853  15.026 -0.3731 -0.3060  0.0174
25858W        W39272   0.895   8.168  14.974  0.3329  0.0988 -0.2302
25859W        W39273  12.524   7.533  10.167 -0.0986  0.2704 -0.0471
25860W        W39274  15.829  17.364   4.207  0.1980  0.0047 -0.3517
25861W        W39275  10.722   1.470  13.650 -0.2520  0.1791 -0.0776
25862W        W39276   8.055   0.588   9.923 -0.2496 -0.0734  0.1447
25863W        W39277  13.578  14.909   4.919  0.0140  0.0611 -0.2002
25864W        W39278   7.011   9.865  13.202 -0.0207  0.1843  0.2024
25865W        W39279   0.593  11.482   1.080 -0.0004 -0.0618 -0.7368
25866W        W39280   7.091   9.943   2.622 -0.3447 -0.0481  0.1690
25867W        W39281   2.139   4.860   0.418  0.4033  0.1079 -0.2926
25868W        W39282  11.247   0.039   3.221 -0.2376 -0.2801  0.1657
25869W        W39283   6.952  13.776  12.926  0.0811  0.0001 -0.0329
25870W        W39284  12.833   6.598   4.901 -0.4346  0.1213 -0.0164
25871W        W39285   4.691   6.019   4.951 -0.2511  0.1183  0.1183
25872W        W39286   4.141   6.169  11.870 -0.0316  0.2126 -0.0366
25873W        W39287   9.233   7.609   2.405 -0.0731 -0.2452  0.3385
25874W        W39288   8.548   5.696  11.194  0.1104 -0.1358  0.0029
25875W        W39289   2.458  14.919  11.714 -0.0277  0.0262 -0.0046
25876W        W39290  15.218  12.114   1.670  0.1921  0.0889 -0.1265
25877W        W39291  11.845  12.937   2.916 -0.1774  0.0945  0.1365
25878W        W39292  12.523   9.599   2.927  0.3902 -0.0413  0.0738
25879W        W39293   4.588  10.723  11.191 -0.2421  0.0012  0.0564
25880W        W39294   8.715   8.707  10.843 -0.1221  0.0789 -0.0439
25881W        W39295   9.458   1.958   4.343  0.2772  0.0129  0.2076
25882W        W39296   4.329  10.401  11.553  0.1122 -0.4947 -0.1069
25883W        W39297  13.617  17.322  13.380 -0.1462  0.1312  0.0184
25884W        W39298   7.841  11.956   4.646  0.0730 -0.0284 -0.2619
25885W        W39299  11.371  10.563   4.181 -0.2947  0.0172 -0.0316
25886W        W39300  18.126   6.931  12.881  0.2421  0.0522  0.1194
25887W        W39301   2.305   8.515   0.448 -0.1128  0.1107  0.0339
25888W        W39302  16.543   1.077  16.434 -0.1632 -0.1016 -0.0481
25889W        W39303  14.832   0.248   4.087  0.1229 -0.1919  0.2599
25890W        W39304  13.154   0.738  14.859  0.0788  0.2024 -0.0227
25891W        W39305   3.322  13.539  13.599 -0.1258  0.1041  0.3965
25892W        W39306  14.576  15.590  15.438 -0.0614  0.3286  0.1283
25893W        W39307   0.856   6.091   0.254  0.3179  0.1123 -0.0636
25894W        W39308   4.131  14.982   2.120 -0.1763  0.2837  0.1758
25895W        W39309  13.236  11.658   1.840  0.1140 -0.0693 -0.1584
25896W        W39310   8.751   7.697   2.674 -0.0452 -0.0598  0.0379
25897W        W39311   2.924   4.867   4.375  0.1525 -0.4802  0.1846
25898W        W39312   1.757   7.481   0.176  0.0267 -0.1799 -0.1780
25899W        W39313  14.264   1.055  11.316 -0.0795 -0.2011 -0.0740
25900W        W39314   9.910   6.272   2.993 -0.0649 -0.0667 -0.0116
25901W        W39315  12.402   6.280   0.631  0.0036 -0.2713 -0.1241
25902W        W39316   1.777   7.352  11.015 -0.1384 -0.2752 -0.1032
25903W        W39317   8.753   6.662  15.986  0.2641 -0.0538 -0.1153
25904W        W39318   3.438  10.384   3.338 -0.0328  0.2889 -0.1717
25905W        W39319  16.400  18.348  15.892  0.0356  0.0102  0.2275
25906W        W39320  16.016   2.707   5.783  0.0708 -0.0495  0.0126
25907W        W39321  17.497   0.741  15.815  0.0058  0.0527  0.2071
25908W        W39322  11.563   1.562  16.503 -0.0895  0.1056  0.0704
25909W        W39323  16.016   2.902  15.718  0.3689  0.1529 -0.2624
25910W        W39324  17.455  17.076   6.444 -0.1111 -0.2553 -0.2917
25911W        W39325   7.820  14.046  12.670 -0.3529  0.2932 -0.0287
25912W        W39326  12.103  17.177  10.890  0.2367 -0.0166 -0.1792
25913W        W39327  10.428   9.519  13.105 -0.0787 -0.2396 -0.1076
25914W        W39328   7.505  15.937   4.649  0.0659  0.1136 -0.0948
25915W        W39329  13.278  15.475   3.562 -0.0143 -0.0728  0.0033
25916W        W39330   3.502   3.998   3.520 -0.1013 -0.0070 -0.0685
25917W        W39331   2.117   9.623   5.501 -0.2216 -0.1064  0.0696
25918W        W39332  17.098  10.464  12.856 -0.0747 -0.1735 -0.1307
25919W        W39333   3.467   5.956  15.854 -0.3663  0.3339 -0.1816
25920W        W39334   5.746   1.826  12.004 -0.0188 -0.1270 -0.2166
25921W        W39335  10.249   2.694   9.971 -0.1369  0.0274 -0.0980
25922W        W39336   3.869   6.165  13.347 -0.1973  0.0716  0.0255
25923W        W39337  14.467  17.625   2.216  0.2672  0.0809 -0.0286
25924W        W39338  11.278  14.358  15.901  0.2034  0.3144  0.1956
25925W        W39339  16.003   7.057  11.413  0.2148  0.1119  0.1746
25926W        W39340   2.043   0.404   3.280  0.1325 -0.0036 -0.1774
25927W        W39341   4.956  11.869   3.895  0.1314  0.1739  0.0041
25928W        W39342   8.277   8.481  13.094  0.0314  0.1153 -0.0876
25929W        W39343   0.151   8.835  14.607 -0.5664  0.4223 -0.2077
25930W        W39344  11.088   3.321   5.348  0.3994 -0.0665  0.0327
25931W        W39345   3.394   4.983   4.177 -0.0376  0.3439 -0.5950
25932W        W39346  17.699   8.836   2.383  0.3038  0.1278  0.2842
25933W        W39347  14.817   0.149   0.783  0.0318  0.0796 -0.1150
25934W        W39348   5.220   9.727   2.930  0.5050  0.3208 -0.0808
25935W        W39349  16.445  17.808   2.354  0.0021 -0.5779 -0.2701
25936W        W39350   5.476   5.728   2.603 -0.3226 -0.0104 -0.2064
25937W        W39351  17.237  14.403   0.940 -0.1086 -0.1655  0.2725
25938W        W39352   7.467  17.121  14.955 -0.3762 -0.1676 -0.1512
25939W        W39353  11.258  11.649  12.504  0.1863  0.0025  0.2133
25940W        W39354   4.391   8.137   1.603  0.0736 -0.0424  0.0894
25941W        W39355   7.237  14.737  11.554 -0.0418  0.1629 -0.0017
25942W        W39356   6.479   5.520   3.822  0.0913 -0.0120 -0.2762
25943W        W39357   0.528   1.553  11.842  0.2525  0.0897  0.2484
25944W        W39358   8.667  15.537  11.058  0.0566 -0.0676 -0.2069
25945W        W39359   3.729   5.705   0.610 -0.0899  0.2377  0.0285
25946W        W39360  17.727  13.843  16.261  0.0291 -0.0338  0.0805
25947W        W39361   8.970   4.422   1.810 -0.1613  0.0376  0.1160
25948W        W39362  15.337   4.371   0.041  0.1473  0.1142  0.2734
25949W        W39363   8.692   7.717  14.961  0.0011  0.1167 -0.1619
25950W        W39364   8.322   3.731   1.839  0.1913 -0.0491 -0.0591
25951W        W39365   1.467   6.661  10.172 -0.1414  0.0727  0.1512
25952W        W39366   5.548  15.885  14.748 -0.1099 -0.0380 -0.0750
25953W        W39367   1.539   8.486  14.315  0.1475 -0.0214 -0.0616
25954W        W39368  11.107  15.296   0.975  0.1101 -0.0606  0.3032
25955W        W39369   9.916  16.136  13.835  0.3489 -0.0678  0.0018
25956W        W39370  16.749   0.368  14.373 -0.2601 -0.1812  0.4099
25957W        W39371   1.267   6.222  13.752  0.0580 -0.1708  0.0328
25958W        W39372  15.866  15.363  12.451 -0.3720 -0.0784  0.1435
25959W        W39373  17.990  11.749   1.048 -0.3503 -0.2576 -0.0424
25960W        W39374   0.909   1.289   5.225 -0.1767  0.0521 -0.0085
25961W        W39375  14.958  17.976   2.810  0.2707  0.2381  0.0892
25962W        W39376  14.512  14.478   0.691 -0.0119 -0.1076 -0.1560
25963W        W39377   2.905   6.432  10.873  0.2302 -0.1722  0.3209
25964W        W39378  12.192   7.017  13.056 -0.0412  0.0122  0.1490
25965W        W39379   1.008   0.880  16.111  0.0239 -0.1141  0.0062
25966W        W39380   7.992  11.276  12.937  0.2030 -0.0493  0.2399
25967W        W39381   5.220  12.846  12.201  0.1789  0.3027 -0.0699
25968W        W39382   1.163  12.068   3.176 -0.1858  0.3254  0.1028
25969W        W39383  14.368  10.686   0.623 -0.4845 -0.2612 -0.0123
25970W        W39384  15.783  14.820   5.411 -0.0720  0.0838  0.2569
25971W        W39385  13.400   6.153   3.588 -0.0251  0.3088  0.2171
25972W        W39386  16.323   7.684   0.079 -0.0264  0.1551 -0.2516
25973W        W39387   2.344   0.481  14.251 -0.0217 -0.3999  0.0807
25974W        W39388   1.802  11.020  12.866  0.0941 -0.1757 -0.2727
25975W        W39389  12.998   5.441  11.037 -0.1971  0.1657  0.0619
25976W        W39390   9.580  12.079  13.032 -0.3939 -0.1534  0.0496
25977W        W39391   4.357   3.822  13.600  0.1608 -0.1841  0.0266
25978W        W39392   9.175  15.570  13.245 -0.1769  0.0227 -0.0198
25979W        W39393  10.458   1.887  15.275 -0.0847  0.0895  0.0362
25980W        W39394   2.110   0.368  15.064  0.0450 -0.0236 -0.3933
25981W        W39395  11.601  14.225   4.007 -0.1330 -0.0232  0.1012
25982W        W39396  17.452  10.686   2.514 -0.1160  0.0242  0.1377
25983W        W39397  12.382   1.071   1.614  0.0681 -0.0650 -0.2565
25984W        W39398  18.304   5.435   2.201  0.0256 -0.0296  0.1475
25985W        W39399  12.133  13.184   5.857  0.1274 -0.2279 -0.2314
25986W        W39400   5.492  14.354  11.505  0.2280  0.0920 -0.0107
25987W        W39401  11.640   4.857   2.860  0.1958 -0.1647 -0.0502
25988W        W39402   5.938   1.686   0.297 -0.0696  0.3273  0.1861
25989W        W39403   1.614  14.723  13.952  0.2477 -0.1024  0.0258
25990W        W39404   6.839   2.817   1.457 -0.0824  0.0642  0.2116
25991W        W39405  12.247   8.091  11.741  0.1099 -0.0306 -0.0832
25992W        W39406  13.321   9.304   1.129 -0.1650  0.1508 -0.0843
25993W        W39407   0.478  16.260  14.110  0.0861  0.0974 -0.0086
25994W        W39408  14.382  17.347  12.166  0.1741 -0.1406  0.0232
25995W        W39409   9.474   0.775   3.911  0.2360 -0.5190  0.2588
25996W        W39410   8.817   1.746  12.901  0.2061  0.1026 -0.0816
25997W        W39411  14.201  10.576  10.303 -0.1273  0.1236  0.3305
25998W        W39412  12.392   7.669   0.360 -0.3718  0.4784 -0.0014
25999W        W39413   3.305   3.058  14.125 -0.3587 -0.1847  0.1019
26000W        W39414  14.843  10.422   0.837 -0.1133 -0.0030 -0.1874
26001W        W39415  14.664  14.509  11.947  0.0234  0.1634 -0.0464
26002W        W39416  13.111   1.817   3.965  0.0323 -0.3430  0.2683
26003W        W39417   3.711  16.209   5.722 -0.3629  0.1227 -0.1549
26004W        W39418   3.371   2.325  12.923  0.2537  0.1298  0.2065
26005W        W39419   7.273   1.435   4.825  0.2574 -0.1507  0.1206
26006W        W39420   5.838   4.427   2.183  0.5382  0.0965  0.1413
26007W        W39421   6.278   9.439   1.925 -0.0742  0.4392 -0.0321
26008W        W39422   9.129   3.791  14.947 -0.4517 -0.0227 -0.0679
26009W        W39423   3.520  13.065   4.210  0.1331 -0.0025  0.1756
26010W        W39424   7.114   9.358  13.407  0.2198  0.1807  0.2781
26011W        W39425  12.992  12.941  12.194 -0.5301  0.1092  0.1845
26012W        W39426   5.088  15.163  14.117  0.0928  0.0682  0.3390
26013W        W39427  13.416   2.555   3.206 -0.0593  0.1647  0.1213
26014W        W39428  17.899  10.670  11.847 -0.1963  0.2625  0.2231
26015W        W39429   1.248  12.908   3.089  0.0119 -0.0835 -0.3879
26016W        W39430  17.105   3.785  16.454  0.2711  0.2471  0.2026
26017W        W39431   3.964   7.095  11.242  0.2115  0.3465  0.0538
26018W        W39432  18.028  11.440   3.626 -0.2187 -0.1005  0.0311
26019W        W39433   1.801  10.394  11.134  0.0225  0.1578  0.0975
26020W        W39434  10.040  17.125   1.846 -0.2897 -0.0312 -0.2807
26021W        W39435  17.253   5.578  15.310  0.1174  0.1127  0.0646
26022W        W39436   3.860  10.058   3.011 -0.0148 -0.4572 -0.3872
26023W        W39437  16.407   5.136   4.647  0.2053  0.1584  0.4075
26024W        W39438  11.092  12.633  12.747 -0.0483 -0.3002 -0.2120
26025W        W39439   1.893  10.370  10.197 -0.4077 -0.1587 -0.0961
26026W        W39440   8.744  11.479  11.042  0.1181 -0.1827 -0.1970
26027W        W39441   4.327   0.234  14.807  0.0724  0.1003 -0.0775
26028W        W39442   0.075  17.993   1.164  0.0492  0.0467  0.0594
26029W        W39443  17.998   3.091   3.460 -0.1253 -0.1150  0.0577
26030W        W39444  13.787   3.416  13.224  0.1455 -0.0591  0.4009
26031W        W39445   0.079   0.215   2.705  0.0775  0.0863 -0.0963
26032W        W39446  16.399   3.603  12.226  0.1884 -0.0467 -0.1057
26033W        W39447   6.713   5.770   3.448  0.0874  0.0733 -0.2315
26034W        W39448  17.523   0.491  11.946  0.0370  0.0872 -0.4242
26035W        W39449   1.204   1.478  11.040  0.0619 -0.0746  0.0121
26036W        W39450   0.231   7.905   2.001 -0.0002  0.1162  0.2072
26037W        W39451   8.725   1.278   2.596  0.1057  0.0331 -0.2167
26038W        W39452  12.312   7.540  13.446  0.1907 -0.1331  0.1206
26039W        W39453  15.753   8.488   3.106 -0.0901  0.0444  0.1023
26040W        W39454  11.546   7.676   0.981 -0.1688 -0.2004  0.0789
26041W        W39455  16.487  12.490  13.230  0.0603  0.1359 -0.0794
26042W        W39456   3.855  15.815   2.622 -0.0219  0.0657  0.0328
26043W        W39457   6.935   2.991   2.215 -0.1882  0.0211 -0.3951
26044W        W39458   7.548  17.335   3.906 -0.1235  0.1010  0.1050
26045W        W39459  14.326   6.935   5.557  0.1824  0.1167  0.1019
26046W        W39460   1.438   4.043  11.553  0.0719 -0.0100 -0.0182
26047W        W39461   5.393   5.694  16.023  0.1301 -0.0324  0.1353
26048W        W39462  17.347  15.498  11.613 -0.2488  0.0881  0.0493
26049W        W39463  17.661   0.057   1.487  0.1041 -0.0112 -0.0131
26050W        W39464   3.174   9.402  11.531  0.1613  0.1726 -0.0918
26051W        W39465  17.791   3.463   6.752  0.0711  0.0891 -0.1376
26052W        W39466   3.757   2.299  15.170  0.2225  0.2062 -0.1584
26053W        W39467  16.004  13.842  14.199 -0.0050  0.0515  0.3730
26054W        W39468   4.135  14.180  12.165 -0.0971 -0.1518 -0.3135
26055W        W39469   5.961   9.439  16.392 -0.1272  0.1413 -0.1029
26056W        W39470   8.172   8.757   4.848 -0.0023  0.1491 -0.2680
26057W        W39471  16.179  14.219   2.819  0.1713  0.1350 -0.2142
26058W        W39472   5.462   4.679  14.149  0.0848  0.2277  0.1630
26059W        W39473   6.196  13.778  16.210 -0.3734 -0.1049 -0.1573
26060W        W39474   8.324  16.766  10.724  0.0966 -0.2411  0.1974
26061W        W39475  11.452   7.892  12.303  0.1409 -0.1493  0.0817
26062W        W39476   0.550   2.879  15.825  0.1978  0.1140  0.0248
26063W        W39477  10.938   2.563   3.026 -0.0376 -0.0074 -0.3558
26064W        W39478  11.161  11.034   3.263 -0.1248  0.0061 -0.1345
26065W        W39479   0.170  11.357   5.526  0.0133  0.1843  0.0148
26066W        W39480   6.854   0.722   0.275 -0.2282  0.0069  0.3335
26067W        W39481  10.292   8.494   1.004  0.1539  0.2057  0.0012
26068W        W39482  17.489  12.930  12.321  0.2113  0.0073 -0.1549
26069W        W39483  10.002  10.042  12.434 -0.0449 -0.3261 -0.1447
26070W        W39484  15.917   0.065  14.017 -0.1796  0.1758  0.1824
26071W        W39485   0.115  14.389   4.148  0.0307 -0.2580  0.0405
26072W        W39486  18.366   1.966  11.096 -0.2642 -0.0838  0.0453
26073W        W39487   7.990   5.147  11.096  0.2470  0.0828 -0.0496
26074W        W39488   2.661   7.254   5.516 -0.0182  0.0012  0.0900
26075W        W39489   1.380   6.691   0.679  0.1893  0.0295  0.1960
26076W        W39490  17.751   0.839  12.172 -0.0529 -0.5089 -0.3620
26077W        W39491   5.400  11.056  16.414 -0.1185 -0.0442 -0.0132
26078W        W39492  13.272   0.065  14.467  0.1318 -0.2801  0.0681
26079W        W39493  15.898  10.588   2.873 -0.1095 -0.2043  0.0104
26080W        W39494   3.016  13.910   3.763  0.3950 -0.1567  0.1067
26081W        W39495   6.661   9.795  16.056  0.1128 -0.2349 -0.1370
26082W        W39496  15.131  10.268  11.333 -0.1962 -0.2004  0.0341
26083W        W39497   5.137   2.472   2.877 -0.0105 -0.2647  0.1179
26084W        W39498  17.563  13.603  11.671 -0.1543 -0.5038 -0.0245
26085W        W39499   4.793  11.943  10.045  0.1690  0.1330  0.2117
26086W        W39500   6.448  13.906  14.887  0.2258 -0.2719 -0.4992
26087W        W39501   5.172   2.165  12.714  0.3730  0.1616 -0.3467
26088W        W39502   9.922  14.836   0.483  0.1179 -0.2286  0.1800
26089W        W39503   6.886  17.087  11.425  0.2837  0.1317  0.0276
26090W        W39504  14.650   5.831   0.353  0.0837 -0.3291  0.0508
26091W        W39505   7.730   3.195  13.742 -0.3757  0.2292  0.0075
26092W        W39506   1.568   2.490   2.182  0.0560  0.0617  0.3589
26093W        W39507  15.394   6.194  14.969  0.2599  0.0891  0.1073
26094W        W39508   0.594  14.048   4.930 -0.0394 -0.0807 -0.0905
26095W        W39509   1.129   5.894  15.410 -0.1960  0.0082 -0.0678
26096W        W39510   3.929   3.249   3.331 -0.3632 -0.2003  0.1814
26097W        W39511  17.309  16.845   3.473 -0.1111 -0.1303 -0.1936
26098W        W39512  17.513  15.866  16.384  0.1391  0.1027 -0.3284
26099W        W39513  14.191   6.416  15.550 -0.0026 -0.0468  0.2019
26100W        W39514  10.772  12.375   5.999 -0.3713 -0.3114 -0.2085
26101W        W39515  12.848   6.127   5.664  0.2888 -0.1112 -0.0372
26102W        W39516  16.193   6.379   0.167  0.1398 -0.1209  0.0746
26103W        W39517  15.476  16.870  14.540  0.1617 -0.1155 -0.3839
26104W        W39518   5.037   9.036   4.629  0.0526  0.1239 -0.1480
26105W        W39519   7.392  15.240  14.945 -0.0055 -0.1226 -0.0819
26106W        W39520  11.405   4.407   1.212 -0.2430  0.3691 -0.0554
26107W        W39521  10.203   4.176   3.281  0.2662  0.1156  0.1335
26108W        W39522   6.125  11.402   3.482  0.3290 -0.2022 -0.1192
26109W        W39523  13.886   1.207  15.874  0.1526 -0.0182  0.2231
26110W        W39524  12.044  14.932  12.070  0.1115 -0.1343  0.2861
26111W        W39525   5.600   4.541  10.255 -0.2263 -0.1695  0.0776
26112W        W39526   6.579  12.796   1.003  0.1449 -0.4178 -0.0130
26113W        W39527   4.807  15.208   4.906  0.4071  0.1429 -0.0104
26114W        W39528  14.771   7.191  12.879  0.1324 -0.0997 -0.2906
26115W        W39529   6.987  17.011  14.291 -0.0564 -0.0231 -0.0112
26116W        W39530  11.241   7.961  13.451  0.2063 -0.2122 -0.2190
26117W        W39531   9.446  10.475   0.330 -0.1802 -0.0027 -0.1072
26118W        W39532   5.174  12.988  13.378 -0.0906  0.1164  0.1440
26119W        W39533  12.626   1.824   4.873 -0.2572  0.0654  0.2268
26120W        W39534   9.234   4.547   5.956  0.2772  0.1737  0.0177
26121W        W39535   5.911  13.390  16.455 -0.0457 -0.3675  0.1438
26122W        W39536  15.057  11.700  11.143 -0.2704 -0.0178  0.0878
26123W        W39537   0.734  13.071   4.032  0.2296 -0.0410  0.0769
26124W        W39538   2.872   3.398  13.286 -0.1028  0.2480  0.0263
26125W        W39539   1.678  12.881  15.905  0.0686 -0.4275 -0.0637
26126W        W39540   9.100  12.992   2.612 -0.1953  0.0581 -0.1286
26127W        W39541   4.463  12.757   0.671 -0.0659  0.1977 -0.2350
26128W        W39542   2.191   6.952   4.649  0.2224 -0.1510  0.2868
26129W        W39543   0.138   8.056  15.987  0.2208  0.1248 -0.0128
26130W        W39544  14.394  14.215  15.921 -0.3220 -0.0107  0.0243
26131W        W39545   8.357   1.082  14.828  0.2697 -0.0044  0.1806
26132W        W39546   4.545  12.980   4.441  0.1218 -0.0970 -0.1609
26133W        W39547  11.774   5.096  15.393 -0.0850 -0.1744  0.1189
26134W        W39548  14.943  13.546  11.794 -0.0544  0.0594 -0.0796
26135W        W39549  18.151   1.911   5.390  0.5409  0.3750 -0.0406
26136W        W39550  15.200  15.942  12.282  0.2405 -0.1435  0.2301
26137W        W39551   2.841   3.547  10.117 -0.0226 -0.2715  0.3485
26138W        W39552   3.459  17.755   6.597  0.0641  0.1235 -0.1278
26139W        W39553  12.462  18.050  14.607 -0.0783  0.0003  0.0267
26140W        W39554  15.152   8.775  15.945  0.3235 -0.1457 -0.1757
26141W        W39555   6.639  11.291  15.837  0.1825  0.2600 -0.2463
26142W        W39556   9.950  17.447   4.891  0.1107  0.2103  0.0381
26143W        W39557  18.202   7.936   2.818 -0.1594  0.0030  0.2184
26144W        W39558   6.511   7.347   1.878 -0.0456 -0.4012  0.0938
26145W        W39559  11.376  11.790  11.272 -0.0216  0.1770 -0.2611
26146W        W39560  17.612  16.647   1.128 -0.2694  0.2617 -0.2494
26147W        W39561   2.171  14.104   2.363 -0.5378 -0.3325  0.1883
26148W        W39562  15.475  18.157   4.921 -0.0005  0.0324  0.0689
26149W        W39563  18.378  13.061  11.245  0.1452  0.2139  0.0555
26150W        W39564  15.873  10.723   2.359  0.2415  0.2544  0.1191
26151W        W39565  14.318  15.466   3.370  0.0477  0.1591  0.0087
26152W        W39566   6.865   5.567   2.132 -0.2369 -0.2749 -0.0693
26153W        W39567   4.469   7.246   0.667 -0.0797  0.2773  0.0298
26154W        W39568   8.009   0.626  10.967  0.1616  0.2426  0.0348
26155W        W39569  12.830   0.519   4.625  0.0722 -0.0189  0.1927
26156W        W39570  15.035   0.878  11.339 -0.2561  0.0970  0.0374
26157W        W39571   7.026   7.013   0.699 -0.1463 -0.0161 -0.0102
26158W        W39572   7.280   8.604  15.246 -0.2930  0.0867  0.0770
26159W        W39573   6.587   0.638  14.455 -0.0692  0.4222 -0.0588
26160W        W39574   4.962  11.625   5.686  0.3818  0.1627 -0.3389
26161W        W39575   0.112   8.260  14.259  0.1002  0.3241  0.0757
26162W        W39576  13.983   5.556   5.800 -0.1195  0.2078 -0.0017
26163W        W39577   4.740  12.231   0.196  0.3125 -0.2021  0.1304
26164W        W39578   1.932  15.613   6.748 -0.0318 -0.3508  0.1106
26165W        W39579  16.072  13.122   4.429 -0.1824 -0.0940  0.0118
26166W        W39580   7.281   9.310  10.483 -0.1687  0.2305  0.2947
26167W        W39581   1.327  13.485   3.386 -0.0215 -0.3666  0.1628
26168W        W39582   5.885  14.057   1.154  0.2488  0.0613  0.2048
26169W        W39583  10.696   6.116   4.858  0.0587  0.4543  0.0923
26170W        W39584   2.193   3.703  10.884  0.0882  0.0727 -0.0190
26171W        W39585   1.211  17.986   4.607  0.1153 -0.1258 -0.1545
26172W        W39586  15.228  12.840  10.576 -0.0477 -0.1921 -0.0859
26173W        W39587  14.495   2.442   4.736  0.4867  0.0392 -0.1784
26174W        W39588   0.963   5.712  16.461  0.0361  0.1388  0.0300
26175W        W39589   9.236   3.285  14.897 -0.2310  0.3163  0.0304
26176W        W39590  16.471  15.949  13.581  0.1085  0.1174  0.3025
26177W        W39591  17.588   4.184   4.996  0.1988 -0.0230  0.0869
26178W        W39592  18.294  11.611  13.560 -0.1110 -0.1445  0.1079
26179W        W39593   2.353  14.692   1.931 -0.1960  0.1356 -0.0919
26180W        W39594   6.029   8.729  15.930 -0.0791  0.0993  0.4863
26181W        W39595  18.087   2.934   1.848 -0.2248 -0.0284 -0.0849
26182W        W39596  10.954   7.697  12.156 -0.2507  0.3087  0.0192
26183W        W39597  17.101  13.427   0.963 -0.0506 -0.0186 -0.1576
26184W        W39598  18.137  16.864   3.790 -0.3298 -0.1748  0.0674
26185W        W39599  13.822  17.269   0.501  0.2156  0.2278 -0.0135
26186W        W39600  13.679   8.932  16.228 -0.0226 -0.0311 -0.0499
26187W        W39601   4.045  10.194  13.077  0.0352  0.2244 -0.0058
26188W        W39602   3.518   2.429   1.111 -0.0906  0.0783  0.2751
26189W        W39603   1.392  14.512  12.950 -0.1202  0.3056 -0.4270
26190W        W39604  15.610  12.136   0.028 -0.0053  0.2127 -0.1044
26191W        W39605  10.799   7.657   4.074  0.3683 -0.1681 -0.0283
26192W        W39606  14.132  18.155  13.057  0.0087 -0.1854 -0.1382
26193W        W39607  11.599   9.327  12.840  0.0179 -0.1694  0.1332
26194W        W39608   4.857  15.689   0.729 -0.0271 -0.0200  0.2148
26195W        W39609   6.052   0.375   0.880  0.0418  0.0774 -0.1188
26196W        W39610  16.803  17.180  15.668  0.3297  0.0552 -0.0658
26197W        W39611  14.824  11.536  15.185  0.1558 -0.2377  0.1928
26198W        W39612   2.535   9.543   0.298  0.0695  0.0914 -0.1098
26199W        W39613   8.975   7.862   6.288  0.1039  0.0833  0.0330
26200W        W39614   0.734   9.617   3.487 -0.2134 -0.1253  0.0182
26201W        W39615  12.307  14.686   3.284 -0.1723 -0.0565  0.0995
26202W        W39616   7.147  16.810  15.215  0.1528  0.0696  0.1434
26203W        W39617   8.348   4.356  13.272 -0.3595 -0.2081 -0.2065
26204W        W39618   6.318  12.154  13.568  0.1497  0.1944 -0.0891
26205W        W39619  11.764  14.357  14.212  0.2266  0.4541  0.1016
26206W        W39620   5.917  10.395  14.699  0.0993  0.0072  0.0836
26207W        W39621  18.365  15.939  14.079  0.1586 -0.0152  0.1535
26208W        W39622  15.439  14.322  11.274 -0.1908  0.1113  0.0782
26209W        W39623  17.400  13.078  12.841 -0.0202 -0.3310  0.2349
26210W        W39624   5.299  10.590   4.794 -0.0855 -0.0714 -0.2412
26211W        W39625   3.502  17.171  14.649  0.1656 -0.2561 -0.2639
26212W        W39626  12.580  10.331   5.276  0.0854  0.2337 -0.0838
26213W        W39627   5.365   7.206  13.720  0.0974 -0.0019  0.2162
26214W        W39628   0.200   1.985  15.471 -0.1586  0.2249 -0.0096
26215W        W39629   3.818   5.081  13.242  0.0240 -0.1878 -0.0171
26216W        W39630  10.732   6.705   2.957  0.2655  0.0611  0.0332
26217W        W39631   3.595   6.354   0.656 -0.3685 -0.0335  0.1099
26218W        W39632  12.582   6.488  16.182 -0.0412  0.1362  0.1943
26219W        W39633   8.235   2.182   1.566  0.2413  0.2895  0.3968
26220W        W39634  14.300  10.690   4.838 -0.5505  0.3204  0.1733
26221W        W39635  17.891   1.441   6.350 -0.0806  0.1972  0.2045
26222W        W39636   7.425  16.838   3.269  0.1477 -0.1886 -0.2066
26223W        W39637   3.144  17.661   1.097 -0.0479 -0.1210  0.0579
26224W        W39638   3.668  15.217  12.736 -0.0431  0.0226  0.2318
26225W        W39639   9.459   6.720  12.659 -0.0302 -0.0694 -0.1487
26226W        W39640   2.510   1.790  14.268 -0.2084  0.2610  0.0227
26227W        W39641  15.841  14.794   1.412  0.2164  0.2445 -0.0464
26228W        W39642   4.226  10.695  10.142  0.1910  0.2146  0.1157
26229W        W39643  12.617  16.194   0.624 -0.2176 -0.1234  0.2563
26230W        W39644  11.993  17.068   0.823 -0.1712 -0.1383  0.1551
26231W        W39645  13.166   8.132  12.268 -0.6109  0.1297 -0.0951
26232W        W39646  15.119   3.410  16.318 -0.3341  0.1246 -0.2071
26233W        W39647   8.131  14.070  13.545  0.0132 -0.0698 -0.0856
26234W        W39648  15.894   3.484  14.491 -0.0852 -0.0288 -0.1267
26235W        W39649  14.642  16.946   0.412  0.1094 -0.4515 -0.0798
26236W        W39650  14.023  12.061   0.109 -0.0650 -0.0324 -0.1301
26237W        W39651   3.843   3.809  14.476 -0.2316 -0.1588 -0.1147
26238W        W39652  13.267   2.106   2.249  0.1934 -0.0224  0.0131
26239W        W39653   1.661  12.587  15.086  0.0982 -0.1001  0.2947
26240W        W39654  12.517  12.830   0.710 -0.1942 -0.1738 -0.0828
26241W        W39655   9.912  14.693  16.480  0.2039  0.0526 -0.1153
26242W        W39656   7.083  13.844   5.182  0.2323  0.1948 -0.1016
26243W        W39657   7.066   3.328  11.181  0.0938  0.1570  0.0543
26244W        W39658   6.908  16.291   4.622 -0.1900 -0.0721 -0.2887
26245W        W39659  11.807  14.483   5.591 -0.2533 -0.0046  0.0936
26246W        W39660  16.737   3.522   0.168  0.0397 -0.0809 -0.1879
26247W        W39661   9.058   7.648   1.251 -0.0985  0.0637 -0.0342
26248W        W39662   6.037  13.791   3.182 -0.0082 -0.2005  0.0991
26249W        W39663   2.959  16.031   4.553 -0.3011 -0.1191  0.2284
26250W        W39664   4.602   7.469  13.980 -0.1669  0.1488 -0.2355
26251W        W39665  11.428  17.660   2.275 -0.3000  0.1073 -0.1167
26252W        W39666   7.694  10.635   1.722  0.0197  0.0282  0.2338
26253W        W39667  13.814  16.281  12.133  0.3028 -0.0114 -0.0041
26254W        W39668  11.333  12.992  15.022 -0.4014 -0.0467 -0.2218
26255W        W39669  11.694   5.302  13.517 -0.0567  0.0746  0.2063
26256W        W39670  11.564  18.173  12.261  0.2217 -0.1701  0.2309
26257W        W39671  13.318  16.076  11.582  0.0207 -0.2105  0.0753
26258W        W39672   7.459   8.222   0.611  0.1077 -0.1012  0.0192
26259W        W39673   9.803   6.938   5.785  0.0466  0.2232  0.1953
26260W        W39674  17.382  12.729   0.136  0.0249  0.0832 -0.0919
26261W        W39675   4.258  13.894   5.117 -0.1929 -0.1188 -0.3027
26262W        W39676   9.092   2.875   0.769  0.2937 -0.0689 -0.0286
26263W        W39677   4.987  15.253   5.858 -0.0813 -0.2790 -0.2649
26264W        W39678  17.641   9.926   3.715 -0.2539 -0.1795 -0.1975
26265W        W39679   7.664   2.092   4.147  0.2301 -0.1589 -0.1755
26266W        W39680   2.543   2.452  14.476 -0.2876  0.2019 -0.1274
26267W        W39681   2.069   6.798  15.298  0.0638  0.0483  0.0011
26268W        W39682   8.199  13.848  15.473 -0.0501  0.0547  0.2553
26269W        W39683  18.102   8.042  10.566  0.4083  0.1200  0.0585
26270W        W39684  17.447  14.304   4.746  0.0722  0.0574 -0.2040
26271W        W39685   2.387   7.587   0.286 -0.3255 -0.1588  0.0684
26272W        W39686  14.967   0.880   1.552 -0.2276 -0.0586 -0.3369
26273W        W39687   7.936   9.691   4.833  0.1253  0.1696  0.0912
26274W        W39688  17.016  18.107   3.095  0.1438  0.2612  0.0248
26275W        W39689   0.203   6.192  12.879  0.2692 -0.0254  0.2083
26276W        W39690  13.314  12.972   3.789  0.1515 -0.0336 -0.1986
26277W        W39691   3.383   2.211  12.449  0.0761  0.0760 -0.2708
26278W        W39692  16.789   9.244  10.668  0.1727 -0.2290 -0.0286
26279W        W39693   1.298  10.674  12.777  0.3515  0.3904  0.3210
26280W        W39694  11.676  10.045   5.255 -0.0053 -0.0763 -0.1156
26281W        W39695   5.510  18.233   2.140 -0.0883  0.3703  0.3048
26282W        W39696   6.290   9.081  16.191  0.1835 -0.0276  0.0308
26283W        W39697   5.413   0.338   5.800  0.0561  0.2595 -0.1201
26284W        W39698   0.176  15.058  11.056  0.2527 -0.3630 -0.0168
26285W        W39699  11.007  14.556   5.255 -0.1497  0.0501  0.2894
26286W        W39700   2.045  18.357  11.975  0.2238  0.0009 -0.1284
26287W        W39701   2.320   0.130   4.881  0.1523  0.2239  0.0140
26288W        W39702   2.743   0.932   5.137  0.0976  0.1967  0.0968
26289W        W39703  13.773  10.628  12.200  0.1041  0.1837  0.3658
26290W        W39704  12.337  11.406   3.685 -0.3649  0.1091 -0.1587
26291W        W39705  16.831  12.447   0.943 -0.2777  0.0497 -0.2488
26292W        W39706   0.629   7.612  14.019 -0.0467 -0.1057  0.1974
26293W        W39707   0.016   9.076  12.158  0.1919 -0.2552 -0.2526
26294W        W39708   0.402  15.500  13.350 -0.0368 -0.0407  0.0672
26295W        W39709  17.345   0.321   1.933 -0.0803  0.3619  0.3319
26296W        W39710   9.941  14.577  15.524 -0.0398 -0.3856 -0.3785
26297W        W39711   9.983   6.901  11.719 -0.2396 -0.0669 -0.3717
26298W        W39712  16.819  12.050  14.974 -0.0208  0.0990  0.3791
26299W        W39713   9.634  15.725  13.020 -0.0386 -0.2708  0.1000
26300W        W39714  14.644   4.281   4.087  0.1456  0.0066 -0.0911
26301W        W39715  14.145  13.584  14.355  0.0550 -0.0107 -0.0276
26302W        W39716   0.390  12.366   3.064 -0.0082  0.1345 -0.1207
26303W        W39717  16.235   1.559  10.940  0.0322 -0.1813 -0.0512
26304W        W39718   0.787  15.926  14.498  0.3373 -0.0418 -0.2370
26305W        W39719  14.989   9.293  16.383 -0.1424 -0.1217  0.1291
26306W        W39720   7.129   0.083  13.714 -0.1624  0.0027  0.0688
26307W        W39721  12.359   9.389   5.601 -0.1087  0.2491  0.2809
26308W        W39722   7.574   4.715  14.078 -0.1777 -0.2040 -0.1731
26309W        W39723  18.268   2.042   3.029  0.1337 -0.5540 -0.2663
26310W        W39724  15.543   4.403  10.675  0.1748 -0.0054  0.2970
26311W        W39725  17.338   2.649  12.421  0.0596  0.0448  0.0375
26312W        W39726   6.192   7.195  13.372 -0.2186 -0.3101  0.1985
26313W        W39727  11.181   1.360  13.828  0.0005  0.0561  0.0483
26314W        W39728  15.927   6.578   3.573 -0.0036 -0.0823 -0.1427
26315W        W39729   3.602   6.281   3.408  0.2639 -0.1650  0.0008
26316W        W39730  16.039  12.997   3.359  0.1871 -0.2907 -0.3467
26317W        W39731  16.379   6.070  10.326 -0.0867  0.2663  0.0400
26318W        W39732  15.221   2.830  12.465 -0.1920  0.5361 -0.0804
26319W        W39733   5.652  11.753  14.514 -0.0988  0.0837  0.2922
26320W        W39734  12.377   8.146   2.542  0.0091 -0.1870  0.1337
26321W        W39735   2.808   0.447  14.031 -0.0196  0.0461 -0.1279
26322W        W39736   5.650  12.725  13.909 -0.1505 -0.0864  0.4425
26323W        W39737  11.890  15.646  14.235 -0.0742  0.0732  0.1081
26324W        W39738  12.996   3.055  11.792 -0.0757  0.0129 -0.4983
26325W        W39739  15.586  12.940   3.671  0.2043 -0.2671  0.2577
26326W        W39740   6.250   5.368   4.220  0.0818 -0.1213 -0.0968
26327W        W39741  18.266  15.984   0.742 -0.1563 -0.0772  0.0322
26328W        W39742  12.131   7.930   3.994 -0.1683 -0.0547  0.0304
26329W        W39743  13.141  15.201  13.552 -0.0989 -0.1163  0.1906
26330W        W39744  11.868  18.094   1.538  0.0804 -0.2561  0.3157
26331W        W39745   5.609   9.094  15.493 -0.2156  0.0763  0.0115
26332W        W39746   0.534   9.960  10.933 -0.0739 -0.1009  0.0106
26333W        W39747  10.482  14.980   2.792  0.1788  0.1278 -0.1668
26334W        W39748  13.406  16.647   2.820  0.2764 -0.0045 -0.0774
26335W        W39749  11.449  14.275   5.253  0.2809  0.0072  0.0349
26336W        W39750  15.903   9.848  14.428 -0.0823  0.0384 -0.0389
26337W        W39751   2.153   8.133  10.959  0.0230 -0.0106  0.3206
26338W        W39752  16.002   8.153   3.491  0.1092  0.1562  0.1361
26339W        W39753   6.691  11.504  11.752  0.2863 -0.0691 -0.0289
26340W        W39754  10.241  10.829  12.071  0.1643  0.3935  0.4839
26341W        W39755   3.544  11.222  11.206 -0.5782 -0.2153 -0.3078
26342W        W39756   2.629   7.244  13.816  0.2705  0.1751  0.1633
26343W        W39757   1.896   7.935   1.043 -0.0028 -0.0912 -0.1795
26344W        W39758  15.425   7.585   3.082 -0.0577  0.0629  0.2007
26345W        W39759   6.333  16.284  13.999  0.0074 -0.2605 -0.0927
26346W        W39760   4.419  14.835   4.577  0.0484  0.1458 -0.0543
26347W        W39761   2.914   0.172   0.309  0.0393  0.2798  0.1342
26348W        W39762  14.281  12.147  11.538  0.2867  0.0084  0.0364
26349W        W39763   8.455   3.182   4.357 -0.2265 -0.0132 -0.0960
26350W        W39764   9.070  18.058   0.573  0.0130  0.2510 -0.0046
26351W        W39765   3.614  12.523  13.210  0.1046 -0.1343  0.1938
26352W        W39766  17.534   1.110   5.158  0.0654 -0.1997  0.0017
26353W        W39767  15.784  14.313   3.941  0.2244 -0.4381 -0.3936
26354W        W39768   7.678   2.112  13.339 -0.1775 -0.6249 -0.1260
26355W        W39769   8.408   6.501   1.326  0.0889 -0.1080  0.2313
26356W        W39770  12.001   9.901  11.006 -0.0115 -0.2571  0.2294
26357W        W39771  12.752  14.496  11.507  0.0669 -0.1392  0.0498
26358W        W39772   1.317   7.772  12.478  0.0003  0.0946  0.1982
26359W        W39773   7.727  12.255   1.714  0.1895  0.1064 -0.1610
26360W        W39774   9.861  15.841   3.566  0.0161 -0.0518 -0.0343
26361W        W39775   4.862   7.466   0.809 -0.1646  0.1663 -0.3292
26362W        W39776  15.316   6.928   2.465  0.0067 -0.0346  0.2158
26363W        W39777  12.678  12.088   1.291 -0.0104 -0.0754  0.1439
26364W        W39778   4.300   3.630   3.766  0.3133  0.0200  0.0640
26365W        W39779   6.695   0.605   4.643  0.0282 -0.2329 -0.3388
26366W        W39780   0.926  16.494  15.469 -0.1676  0.0359 -0.1744
26367W        W39781   3.772  17.819  13.704 -0.1026  0.3742  0.1037
26368W        W39782  16.376  16.624  16.324  0.1748  0.1225  0.0716
26369W        W39783  14.265  12.593  13.656 -0.3682 -0.0224  0.2283
26370W        W39784  14.908   5.837   0.855  0.0792  0.1033 -0.1922
26371W        W39785  16.994  16.110   4.578 -0.6008  0.2439  0.0735
26372W        W39786  11.166  16.944   4.710  0.0916 -0.1997  0.1716
26373W        W39787  12.809   4.176   3.437 -0.2976 -0.0555 -0.0513
26374W        W39788   3.553  18.159  14.297  0.1697 -0.1800 -0.0785
26375W        W39789   9.851  11.484  12.010  0.1130  0.0484 -0.0238
26376W        W39790   5.949   6.755   3.355 -0.2186 -0.1866 -0.0779
26377W        W39791  14.307   0.833   0.200 -0.3284  0.0148 -0.0370
26378W        W39792  15.194   1.957   5.503 -0.1269  0.0905 -0.2622
26379W        W39793   9.005  13.042   4.793 -0.0720  0.1704  0.0871
26380W        W39794   2.426  13.065   4.864 -0.1594  0.0223 -0.1564
26381W        W39795  15.179   6.672   2.867  0.0202  0.1306 -0.1082
26382W        W39796  12.389   8.952  14.186  0.1425  0.1177  0.0269
26383W        W39797  17.725   2.838  14.409 -0.0157 -0.3256 -0.1798
26384W        W39798  17.409  17.392  12.876 -0.1762 -0.0692  0.0250
26385W        W39799   6.916  17.948   0.308 -0.0743 -0.0588  0.1566
26386W        W39800  17.543  15.013  14.040 -0.1785  0.1598 -0.2062
26387W        W39801  16.643   8.056   4.812 -0.0660 -0.4320 -0.1943
26388W        W39802   5.174   1.502  16.146  0.0082  0.3180  0.1351
26389W        W39803  14.374   6.395   4.497  0.1300 -0.0035 -0.0665
26390W        W39804   2.130   7.209   3.210  0.2694  0.1348  0.0064
26391W        W39805  18.170   8.100  13.556  0.1120 -0.2229 -0.0591
26392W        W39806   7.593   8.068  12.072 -0.3460 -0.1615 -0.0277
26393W        W39807  11.664  15.441   5.175  0.0808 -0.1168 -0.0624
26394W        W39808  14.885   0.524   3.606  0.1656 -0.0425 -0.1734
26395W        W39809  12.907  17.955  11.604  0.0400 -0.3323  0.0663
26396W        W39810  16.200   0.362   7.093  0.0400 -0.1732  0.0632
26397W        W39811   6.295   3.775  11.088 -0.0959 -0.0395  0.0592
26398W        W39812  15.182   1.159   3.185 -0.1445  0.0193  0.1151
26399W        W39813  13.030   8.525  10.188 -0.1423 -0.0057  0.0296
26400W        W39814  17.643   8.044  11.295  0.1583  0.0962  0.0083
26401W        W39815   6.586   3.310   2.945  0.0005 -0.2698  0.0718
26402W        W39816   4.423   8.992  15.539 -0.0881 -0.2188  0.0653
26403W        W39817  10.088   4.284   2.510 -0.0472  0.1699 -0.0320
26404W        W39818   8.066  13.075   2.867 -0.1177  0.0407  0.0233
26405W        W39819  11.780  11.820   2.240  0.4393  0.1120  0.0895
26406W        W39820  10.860   1.134   2.733  0.0526 -0.1388 -0.0475
26407W        W39821   9.797  17.751  14.652  0.3034 -0.2112  0.2964
26408W        W39822   5.408   3.639  13.054  0.1299 -0.2562 -0.1471
26409W        W39823   0.585   2.131  12.730  0.3625 -0.1431 -0.0498
26410W        W39824  17.119  14.261   2.637  0.0220  0.0615 -0.0098
26411W        W39825  16.838   2.196   0.108  0.2214 -0.3059 -0.0382
26412W        W39826  13.115  13.492   0.535 -0.0286  0.2929  0.0152
26413W        W39827  16.042  14.667  12.913 -0.3931  0.2754 -0.0209
26414W        W39828   4.213  17.581  15.886 -0.1197 -0.2991 -0.0847
26415W        W39829   9.272   4.060  11.726  0.0957 -0.0496 -0.2232
26416W        W39830  18.044  13.247   0.830 -0.1597  0.2529  0.2437
26417W        W39831  15.915   9.254   4.398  0.1199 -0.0994  0.0737
26418W        W39832  15.378   0.616   5.848  0.0691 -0.0833 -0.2076
26419W        W39833   2.765  10.496   5.929  0.4189 -0.3575 -0.0900
26420W        W39834   7.051  15.346   0.227 -0.0019  0.0673 -0.0679
26421W        W39835  12.041   5.983   4.037 -0.1127  0.0025  0.0126
26422W        W39836   6.986  14.252  11.902  0.1067 -0.0295  0.3962
26423W        W39837   5.392   9.285   1.361 -0.1006  0.2729  0.1015
26424W        W39838   8.286   2.081  13.720  0.0662 -0.0218 -0.2189
26425W        W39839   0.819  15.697  15.469  0.1064 -0.2348  0.0618
26426W        W39840  11.066  12.056  13.959  0.1238  0.0076 -0.3153
26427W        W39841   9.779   5.172  10.338 -0.0025  0.0644 -0.2130
26428W        W39842  11.652  11.940   1.307  0.2371 -0.0335 -0.1631
26429W        W39843  12.618  15.526   4.754  0.2038  0.1441  0.3393
26430W        W39844   4.966   5.652  13.725 -0.3322  0.1324  0.0342
26431W        W39845   2.529   9.621  10.766 -0.1006 -0.4649 -0.0178
26432W        W39846   5.145  17.293   1.324  0.1352  0.0701 -0.1097
26433W        W39847   9.049  12.902  10.578  0.3066  0.1447  0.1443
26434W        W39848   4.129  14.537   4.979 -0.0885  0.1238 -0.1001
26435W        W39849   8.429   9.824   2.884  0.0520  0.0989 -0.3050
26436W        W39850   1.570  12.436   1.090  0.0159 -0.0442 -0.2616
26437W        W39851   9.454  18.210   4.299  0.0825  0.1219  0.2498
26438W        W39852   8.951   1.025   4.848 -0.2053 -0.0274 -0.2394
26439W        W39853   6.788  16.249   4.157  0.0112 -0.0978  0.0339
26440W        W39854   6.804   1.116  16.409  0.0907 -0.0651  0.0897
26441W        W39855   2.560  14.014   5.603  0.0122 -0.0890 -0.0577
26442W        W39856   0.780  15.896  13.260 -0.0964  0.0513 -0.1794
26443W        W39857   3.124   3.149   1.635 -0.0181  0.0479  0.0709
26444W        W39858  18.156   0.078   0.145 -0.1348  0.2388 -0.0719
26445W        W39859  10.300   1.081   2.791 -0.2796  0.1314 -0.2405
26446W        W39860   6.271  17.702  14.616  0.1735 -0.4916 -0.2386
26447W        W39861   5.571   3.110   5.513 -0.0208 -0.0349  0.3506
26448W        W39862   6.358   9.724  12.076  0.1150 -0.1693 -0.2069
26449W        W39863   5.822   9.961  14.167  0.1097 -0.1170 -0.2175
26450W        W39864   9.978  10.456  12.099 -0.0047  0.4272 -0.2691
26451W        W39865  12.364   8.712   5.169  0.0362  0.1525  0.1594
26452W        W39866   1.662   3.435   3.421 -0.0860 -0.1807 -0.0679
26453W        W39867   6.147  15.572  12.753 -0.1010 -0.1352  0.2117
26454W        W39868   6.042  11.330   1.078 -0.0237 -0.2543 -0.1077
26455W        W39869  13.178   6.723  14.145 -0.0708  0.1117  0.2061
26456W        W39870   3.130   3.055   2.908 -0.0857  0.2725  0.0952
26457W        W39871  15.860   0.426   1.473  0.5041  0.2949 -0.1155
26458W        W39872   5.504  16.264  10.294  0.1057 -0.0246 -0.0243
26459W        W39873  11.193   4.894   4.783 -0.0689 -0.0484 -0.1926
26460W        W39874  10.322  17.317   3.496 -0.1746  0.0814  0.0094
26461W        W39875  16.179   1.003  11.598  0.1471  0.0611  0.1798
26462W        W39876  18.369   3.995  11.457  0.0638 -0.2284  0.3327
26463W        W39877   6.313  13.624  12.963  0.0164  0.3172 -0.3395
26464W        W39878   9.177  13.919   3.059  0.0504 -0.2075 -0.0278
26465W        W39879  16.263  10.475   1.548 -0.3974 -0.0483 -0.2615
26466W        W39880  10.018   5.110   4.567 -0.0649 -0.1088 -0.3200
26467W        W39881   8.195  17.084  12.272  0.1186  0.0740 -0.4016
26468W        W39882   8.414  18.256  10.485  0.2750  0.1236 -0.0416
26469W        W39883  15.321  17.894   1.287  0.4702  0.0375 -0.0498
26470W        W39884   5.546  16.056   4.991  0.1030 -0.2248  0.0439
26471W        W39885  13.200   8.641  11.302 -0.0134 -0.1777  0.0304
26472W        W39886  14.616  11.057   4.836  0.0581  0.1982 -0.0875
26473W        W39887   4.648   1.535   3.769 -0.1652 -0.0440  0.0175
26474W        W39888  17.710   8.608  13.838 -0.1499 -0.2036  0.0502
26475W        W39889   0.013  13.541  12.220 -0.0948  0.1950 -0.1326
26476W        W39890  11.700  15.874  12.878  0.0802  0.0834 -0.2457
26477W        W39891   5.734  17.632   2.599 -0.2811 -0.1271  0.1331
26478W        W39892  18.241  14.925   0.469  0.0588 -0.2091 -0.0609
26479W        W39893  15.702  10.495   5.183  0.2760 -0.0543 -0.0070
26480W        W39894  17.888  15.482   3.462 -0.0582 -0.0857 -0.1775
26481W        W39895  16.314   3.620   0.388 -0.0907 -0.0592  0.1854
26482W        W39896   4.482   2.089  15.758  0.2410 -0.2090 -0.0211
26483W        W39897  15.833  16.619   1.847  0.2236  0.0313  0.1482
26484W        W39898  10.387  16.390  12.304 -0.2701  0.0982 -0.2274
26485W        W39899   4.297   5.396   0.977 -0.0773  0.1566 -0.4039
26486W        W39900   0.756  13.138  13.379 -0.0367  0.2316  0.1144
26487W        W39901   7.458  18.245  13.354 -0.0961 -0.3546  0.1745
26488W        W39902   1.038  16.733  11.542 -0.1598  0.2826  0.1407
26489W        W39903   6.878  11.548   1.384  0.0663  0.0361 -0.2562
26490W        W39904  10.786   5.662  16.076  0.0077  0.1055 -0.1491
26491W        W39905  14.739  15.740  12.622 -0.1304 -0.1941 -0.0835
26492W        W39906   5.116   8.574   1.609  0.2437 -0.1523  0.0237
26493W        W39907   4.735   4.644   5.205  0.1057  0.2335  0.1744
26494W        W39908   4.760  12.065   4.736 -0.0895 -0.2247 -0.2415
26495W        W39909  17.280   3.688  15.484 -0.1062 -0.1904 -0.1956
26496W        W39910   2.687  15.055  12.975  0.2203  0.2151  0.1826
26497W        W39911   7.451   0.878  10.749  0.0400 -0.0752  0.0948
26498W        W39912  13.478   9.478  16.261 -0.4749 -0.1341  0.0084
26499W        W39913  11.560   4.400  11.862 -0.1885  0.1355  0.0809
26500W        W39914   4.569   3.227   1.503  0.4437  0.0883 -0.2845
26501W        W39915   2.371  13.598   4.397  0.1056  0.2321 -0.1980
26502W        W39916   8.640   4.376   0.436 -0.1399 -0.2171 -0.2014
26503W        W39917   0.979   4.610   2.226  0.1868 -0.4770  0.2253
26504W        W39918   4.380   5.053   2.335 -0.4741 -0.0845  0.4480
26505W        W39919  15.183  17.321   4.648 -0.0901 -0.1819 -0.0187
26506W        W39920  14.663   8.461  11.567 -0.1870  0.0171  0.5910
26507W        W39921  17.523   7.868   5.310 -0.0240 -0.1508  0.0204
26508W        W39922   5.150  13.502  16.002 -0.1250  0.0329 -0.2194
26509W        W39923  11.629   1.988  10.502 -0.3265  0.0605 -0.0921
26510W        W39924  10.628  18.317   4.910  0.0836 -0.1282  0.0905
26511W        W39925  11.597  14.649  16.106 -0.0039 -0.0701 -0.0484
26512W        W39926  16.273  15.723  12.558  0.0453 -0.0985 -0.0497
26513W        W39927  17.426   3.506  10.642  0.1324 -0.2447  0.2048
26514W        W39928   2.919   2.298  15.769  0.1456  0.1973 -0.0214
26515W        W39929  17.165  11.741   0.358 -0.0384 -0.1427 -0.2496
26516W        W39930  16.306   6.776   4.760  0.3145 -0.2984 -0.2060
26517W        W39931   1.770  15.150   1.329 -0.0220  0.0303  0.0205
26518W        W39932   2.093   7.948   2.885 -0.0272 -0.4510  0.2535
26519W        W39933  11.295  10.530   2.937 -0.0264 -0.0750 -0.0382
26520W        W39934  15.284  18.198   1.753  0.0429  0.2577  0.4444
26521W        W39935  12.228   1.732   3.603 -0.1307  0.0360  0.0462
26522W        W39936   2.967  12.619   5.692 -0.2099  0.1601  0.2107
26523W        W39937   8.469  10.800   0.556  0.2333  0.0696 -0.1087
26524W        W39938  15.135  12.070   2.794 -0.2091  0.0229 -0.1279
26525W        W39939  18.375   6.945  11.314  0.0356 -0.1615  0.1032
26526W        W39940  16.495  11.465   2.624  0.0854 -0.1983 -0.1455
26527W        W39941   4.862  17.153   3.100 -0.0326 -0.1175 -0.1473
26528W        W39942   3.120  14.831  15.792  0.2790  0.3013 -0.4354
26529W        W39943   5.246  18.158  14.658 -0.1541 -0.1803  0.2435
26530W        W39944   8.820   5.892  15.111 -0.4303  0.3584  0.0277
26531W        W39945  15.512  12.557  11.657  0.2106 -0.1382 -0.4280
26532W        W39946  11.894   5.919  11.875  0.1896 -0.1783  0.0701
26533W        W39947   8.873  16.123   3.408  0.0840  0.5379  0.0007
26534W        W39948  12.490  12.490   4.040  0.1390 -0.0810 -0.1987
26535W        W39949   5.264   6.119   1.447 -0.0131  0.2124  0.3684
26536W        W39950  17.249  11.459   1.464 -0.0279 -0.1630  0.0373
26537W        W39951  14.059   7.714   3.396  0.0334 -0.4308 -0.1496
26538W        W39952   7.886   8.547   0.269 -0.2236 -0.0341  0.1290
26539W        W39953   7.726   3.773   4.942  0.1812  0.0281  0.1371
26540W        W39954   2.069   6.946  11.013  0.0314 -0.1020  0.0756
26541W        W39955  11.076  11.819  11.970  0.0790 -0.0483  0.0632
26542W        W39956   6.684  11.076  13.469 -0.0145  0.1365  0.1403
26543W        W39957  17.320  11.535  16.009  0.1971 -0.0455  0.0012
26544W        W39958   4.713  11.243  10.718  0.3899  0.0552  0.1979
26545W        W39959  10.646   0.686  12.484  0.3083  0.5207  0.0036
26546W        W39960  14.332   1.124   5.060 -0.0453  0.1424  0.0767
26547W        W39961   1.043  15.181   1.560 -0.0659 -0.2902 -0.2491
26548W        W39962  14.488  17.999  14.197  0.1971 -0.2344 -0.1234
26549W        W39963  17.974  15.307   5.992 -0.1315  0.0664  0.3125
26550W        W39964   1.310   5.534  12.717 -0.1810 -0.1031 -0.0892
26551W        W39965  15.327  17.541  13.896  0.0154  0.0465 -0.2416
26552W        W39966  12.959   0.305   3.335 -0.1561 -0.3599  0.0926
26553W        W39967   2.118   7.060  12.305  0.0177 -0.0010 -0.2052
26554W        W39968   9.725  12.880  15.068  0.0074  0.0057 -0.0415
26555W        W39969  12.844   7.459  14.569  0.0307 -0.1194 -0.1309
26556W        W39970  15.066   4.746  14.984 -0.1336 -0.0015 -0.1477
26557W        W39971  14.276  15.642  12.787  0.1104 -0.2499  0.2096
26558W        W39972   7.459  11.378  13.990 -0.3434  0.1791  0.1052
26559W        W39973  16.949  13.760  13.403 -0.2631 -0.0356  0.2534
26560W        W39974  14.545  17.474   5.000 -0.1314 -0.2044  0.2066
26561W        W39975  12.921  10.014  16.403 -0.0969 -0.0173  0.2424
26562W        W39976  15.711  14.540   3.497  0.2807  0.1418  0.0698
26563W        W39977  17.839   5.932   3.173 -0.1044  0.1201 -0.0889
26564W        W39978  15.382  16.254   1.096  0.0710 -0.0824  0.0969
26565W        W39979   7.596  13.490   3.482 -0.0607 -0.0086  0.2931
26566W        W39980  11.845   1.335  15.345 -0.4936 -0.3662 -0.1607
26567W        W39981  12.416   8.315   1.142 -0.0606  0.2181 -0.1090
26568W        W39982   0.175   2.236  14.127  0.0181  0.0548  0.0955
26569W        W39983   7.410  13.278  11.808  0.1599  0.1373 -0.0585
26570W        W39984   6.770   0.209  10.788 -0.0657 -0.3354 -0.2096
26571W        W39985   3.906   6.671   2.620  0.2148  0.3254  0.1160
26572W        W39986  15.413  11.468   2.401  0.2613  0.0883  0.2843
26573W        W39987   1.030   7.801   0.567  0.0107 -0.3774 -0.4793
26574W        W39988  11.291   0.433   1.459  0.2617 -0.2121 -0.0166
26575W        W39989   1.713   6.285   5.633  0.1900  0.1099 -0.1273
26576W        W39990   6.857   0.077  14.226  0.4276 -0.1880 -0.1730
26577W        W39991  13.234   6.220  13.151 -0.0208 -0.0303  0.2216
26578W        W39992  16.077   5.718   3.970 -0.0488  0.1632  0.0999
26579W        W39993  13.354   7.572  13.127  0.1740  0.0545 -0.0660
26580W        W39994   7.598   9.432   0.545 -0.1635 -0.1328  0.3804
26581W        W39995  11.236   2.749   4.677 -0.2103  0.1645  0.0847
26582W        W39996  10.645  11.961  15.868 -0.1271 -0.0255  0.1098
26583W        W39997  10.377   7.617  12.060  0.0693  0.0151 -0.0632
26584W        W39998   6.435   7.303   3.609  0.2464  0.2955  0.0299
26585W        W39999  10.783   4.068  15.500 -0.6151 -0.0611  0.2160
26586W        W40000   3.054   0.032  11.607 -0.0152 -0.2004  0.1524
26587W        W40001   8.451   8.008  11.472  0.5040 -0.0998 -0.0862
26588W        W40002  15.467  17.159   0.124  0.2650  0.0261  0.0721
26589W        W40003   3.573   4.227  14.060  0.2113  0.3847  0.0636
26590W        W40004   5.981   7.170  11.182  0.3152  0.1322 -0.0387
26591W        W40005  16.752   5.577   2.611 -0.0088 -0.0380  0.0076
26592W        W40006   0.247   7.869   9.903  0.0601 -0.0149 -0.0128
26593W        W40007  15.316   0.561  11.915 -0.0240  0.2771 -0.0089
26594W        W40008  13.846  16.541  16.437 -0.1240 -0.0498 -0.1343
26595W        W40009   0.715  12.096  11.816  0.1052 -0.0903 -0.2527
26596W        W40010   8.540  13.886   0.848  0.3962  0.0388 -0.3168
26597W        W40011   6.665   4.694   1.759  0.0432 -0.1360  0.0675
26598W        W40012  16.867  14.156   6.207  0.3228  0.0029  0.1749
26599W        W40013   4.402  11.898  11.739 -0.2837 -0.0351  0.1234
26600W        W40014   6.648   0.263   2.011 -0.2773 -0.3112  0.0433
26601W        W40015   9.308   5.332  16.459  0.2552 -0.1387 -0.0701
26602W        W40016   0.017  18.121   1.786 -0.1034 -0.0282 -0.1293
26603W        W40017  13.996  17.595   5.821 -0.1572 -0.1813 -0.1073
26604W        W40018  14.445   6.501  16.385 -0.0322 -0.0607 -0.0513
26605W        W40019  13.561   6.982   3.708 -0.0518  0.0334  0.1802
26606W        W40020   9.971   1.794   2.656  0.0556  0.0870 -0.1179
26607W        W40021   7.440   4.566  15.744 -0.0568  0.0770  0.1545
26608W        W40022   7.224  11.619  12.768  0.0522 -0.0934 -0.0867
26609W        W40023   0.746   1.757  15.043 -0.0413 -0.1162 -0.1354
26610W        W40024   3.027   2.475   0.753  0.0279  0.0532  0.3584
26611W        W40025   9.066   4.924  12.038 -0.2162  0.0479 -0.4089
26612W        W40026   5.718   9.563   1.175 -0.0352  0.0840  0.0973
26613W        W40027  13.636   2.498   4.039 -0.0712 -0.0755 -0.4898
26614W        W40028   2.681   3.750  10.721  0.0462  0.1802 -0.3557
26615W        W40029   8.073   8.445   2.164 -0.3353  0.1901 -0.3160
26616W        W40030  12.611   6.351  15.714 -0.0867 -0.0403 -0.0351
26617W        W40031  14.277   2.198   3.398  0.0265  0.0378 -0.2192
26618W        W40032  12.527   4.153  13.729  0.2232 -0.0461  0.2718
26619W        W40033  12.126   5.368   4.298  0.0429  0.0935  0.2814
26620W        W40034  13.423  17.853  15.604 -0.1604 -0.0372 -0.0135
26621W        W40035  10.588   6.775  13.095 -0.0588 -0.1090 -0.3236
26622W        W40036  10.188   5.089   1.454 -0.0932 -0.2404 -0.0376
26623W        W40037  17.566   3.354  14.961  0.0603  0.0173 -0.3520
26624W        W40038   8.029  10.691  14.915  0.2256 -0.2791  0.1071
26625W        W40039   1.233   7.165   5.686 -0.2182 -0.0315  0.1799
26626W        W40040  18.324  14.511   3.300 -0.1142 -0.1136  0.0353
26627W        W40041   0.362   6.275   0.119 -0.3324  0.1612  0.1840
26628W        W40042   0.697   7.174   5.905  0.2026 -0.3407  0.3724
26629W        W40043   0.962  17.355  12.031  0.3479  0.2044  0.2017
26630W        W40044  11.679   8.532   0.696 -0.1873 -0.0292  0.2976
26631W        W40045   5.339  13.174   5.387 -0.3047 -0.0399 -0.1271
26632W        W40046   3.932   4.434  14.407 -0.1050  0.1432 -0.2035
26633W        W40047  16.421   0.204  16.366 -0.0642  0.1254 -0.0530
26634W        W40048   1.923  16.512   2.994  0.0760 -0.0888  0.1484
26635W        W40049  15.244  10.174  12.342 -0.0902  0.1220  0.1670
26636W        W40050  15.561   3.789  15.556  0.4120  0.1881  0.1664
26637W        W40051   3.762   3.901   0.158 -0.1544 -0.3111 -0.2138
26638W        W40052   7.448   1.706  14.200  0.1214  0.0195  0.0378
26639W        W40053  16.965   8.697   4.990  0.0096  0.1548  0.2885
26640W        W40054   2.094  15.690  15.312  0.2005 -0.1281 -0.3076
26641W        W40055  12.938  15.492   1.313  0.2614 -0.2090 -0.2092
26642W        W40056   5.394  14.311   5.761  0.2724 -0.1755  0.1208
26643W        W40057   3.460   2.719   4.235 -0.0976 -0.0187  0.2343
26644W        W40058   7.424  16.678   1.260  0.2925  0.2010 -0.0449
26645W        W40059   0.876  10.343   3.186  0.1454  0.0807  0.0395
26646W        W40060   7.669   0.032  13.771 -0.0087 -0.0471 -0.0587
26647W        W40061   0.199  15.062   6.690 -0.3538 -0.4191  0.1072
26648W        W40062  17.637  13.998   2.628 -0.0890  0.1652 -0.1150
26649W        W40063   0.847  12.166   0.290  0.3852 -0.0422  0.0103
26650W        W40064   8.985  16.398   0.577 -0.1612 -0.3373  0.0595
26651W        W40065   4.824  13.900  11.134  0.0905  0.1303  0.0441
26652W        W40066  16.991   4.809  14.868 -0.1085  0.0373 -0.1507
26653W        W40067   4.652   3.618   4.605  0.0022 -0.1243  0.3094
26654W        W40068   7.927   4.032  15.374 -0.0449  0.1988  0.1367
26655W        W40069  11.907  10.825  13.588 -0.0041  0.0039 -0.1664
26656W        W40070   3.309   2.769  13.123 -0.0259  0.0036 -0.3559
26657W        W40071   0.811  16.396   5.083 -0.0226  0.0738 -0.0443
26658W        W40072  16.196   1.883   1.851 -0.0173 -0.1359 -0.2244
26659W        W40073   4.012  14.238   2.909 -0.1281 -0.1060 -0.2127
26660W        W40074  13.993   6.891   2.077  0.0222  0.1980  0.0519
26661W        W40075   4.825  14.132  15.339  0.0178  0.0730 -0.0120
26662W        W40076   7.265   0.983   5.662  0.3648 -0.1741 -0.0598
26663W        W40077  13.675  10.113   3.197  0.4269  0.1567 -0.0151
26664W        W40078  14.613  14.996   6.291 -0.0964  0.1838  0.0512
26665W        W40079  16.868  10.938  12.548  0.0826  0.4027 -0.0909
26666W        W40080   2.355  12.846   1.604 -0.0623 -0.0573 -0.1988
26667W        W40081  15.696   3.898  13.097 -0.0552  0.0167  0.0084
26668W        W40082   9.669  14.366   4.971  0.0823 -0.0370 -0.1162
26669W        W40083  18.224   1.490  12.287  0.3391  0.1079 -0.0804
26670W        W40084   3.123   6.354  11.401 -0.1558  0.0217  0.0422
26671W        W40085  15.437  18.217  14.213 -0.1429  0.0530 -0.0218
26672W        W40086   8.138  16.370   2.119 -0.0450 -0.0614  0.1573
26673W        W40087   1.257  10.976  14.895  0.0717 -0.1040  0.1049
26674W        W40088   0.864  16.569  13.953 -0.1966  0.1285  0.2660
26675W        W40089   6.820  16.134  13.980 -0.0119 -0.1432  0.0666
26676W        W40090  16.206  11.295   0.396  0.2573  0.1006  0.0977
26677W        W40091   5.365   8.929  15.922  0.0664  0.0163  0.0356
26678W        W40092  12.527   6.984   5.786  0.1059  0.2938 -0.2334
26679W        W40093   9.114  10.954  14.236  0.0419 -0.0693  0.2008
26680W        W40094   1.531  12.280  14.169  0.0590 -0.2292 -0.2095
26681W        W40095   9.844   0.949  13.822  0.0047 -0.4061 -0.0591
26682W        W40096   2.707   5.337   0.223  0.1317 -0.4864  0.0293
26683W        W40097   2.721  15.620  16.119 -0.0919 -0.0080  0.0728
26684W        W40098   6.059   3.170  11.913  0.2190 -0.2103  0.2802
26685W        W40099  12.119   5.433  13.338  0.0361 -0.2231 -0.2319
26686W        W40100   4.706   5.628   1.581 -0.2183  0.1470 -0.1181
26687W        W40101   8.966   0.665   4.448  0.0113  0.1040 -0.2348
26688W        W40102   8.369  10.751   3.376  0.1419  0.1047 -0.2174
26689W        W40103  18.154   8.032  11.088 -0.0050  0.2120  0.1871
26690W        W40104  11.313   6.940   0.489 -0.0520 -0.2768  0.0913
26691W        W40105  13.017   4.309  15.484 -0.1164 -0.1443 -0.0682
26692W        W40106  12.270  16.846  13.779 -0.0999 -0.1436  0.2250
26693W        W40107   7.228  17.529  14.684  0.2229 -0.1920 -0.0094
26694W        W40108   9.911   9.300  11.213 -0.0102  0.3122  0.0101
26695W        W40109  15.124   3.949   2.188  0.0542  0.0084 -0.1798
26696W        W40110   6.522  10.858   9.967  0.1471 -0.2526  0.2464
26697W        W40111   1.399  15.456   0.492 -0.4520  0.1469  0.4560
26698W        W40112   0.282  17.316   5.050  0.4515  0.0261 -0.2941
26699W        W40113   2.240   7.572  11.859  0.1289 -0.1103 -0.0946
26700W        W40114   7.873  10.150   1.042 -0.0718 -0.2756 -0.1143
26701W        W40115   8.274   8.962   6.353 -0.1218  0.0343 -0.1650
26702W        W40116   6.983  13.153  15.683  0.0810  0.1258 -0.0701
26703W        W40117   7.785   5.391  13.979  0.2880  0.0656  0.1042
26704W        W40118   6.508  17.325  12.191 -0.0107  0.2117 -0.1738
26705W        W40119   0.248  14.268  16.047  0.1339 -0.0701 -0.3401
26706W        W40120   6.438  18.328  10.582 -0.3251  0.0224  0.1191
26707W        W40121   6.138  16.691   2.684  0.3866 -0.1317 -0.1169
26708W        W40122   9.566   5.079   1.465 -0.0134  0.5483 -0.2756
26709W        W40123   3.909  13.448  14.490  0.2165  0.1295 -0.1940
26710W        W40124  15.796   2.982  13.839 -0.1116  0.0144  0.0907
26711W        W40125   9.550   4.306  10.494  0.1656  0.0637  0.0430
26712W        W40126  17.945   4.691   2.262 -0.0646  0.2632  0.2295
26713W        W40127  14.715   9.247   2.187 -0.1537 -0.1250  0.1207
26714W        W40128  13.589  18.337  15.565 -0.1396  0.2071  0.0061
26715W        W40129  17.930   5.154   2.109 -0.0871  0.2029 -0.1150
26716W        W40130   6.125  14.932  13.943 -0.0406  0.2096  0.0282
26717W        W40131   4.688   5.993  13.406  0.1107  0.1549  0.0242
26718W        W40132  13.125  10.356   4.490 -0.0266  0.0583  0.2153
26719W        W40133   7.970   9.097  11.665  0.0524  0.1799  0.3862
26720W        W40134   0.941  11.722  12.035  0.1990 -0.1372  0.0354
26721W        W40135   2.875  18.230   6.677 -0.5654  0.1296  0.3652
26722W        W40136  17.429   2.441  14.712 -0.1261  0.3044  0.0613
26723W        W40137  13.134  10.826   0.993 -0.1602  0.0798  0.0742
26724W        W40138   2.099  11.972  15.594  0.2009  0.4545 -0.0021
26725W        W40139   5.433   3.932   4.132 -0.0364  0.3197 -0.0991
26726W        W40140   2.827   8.431   1.618 -0.0254 -0.0415 -0.3609
26727W        W40141  10.916  18.248  11.442 -0.0441 -0.1562 -0.0187
26728W        W40142   5.172   3.344  10.532  0.0412  0.1591  0.1023
26729W        W40143   4.934  14.783  15.989 -0.1133  0.1751  0.2068
26730W        W40144   6.907  16.596   5.796 -0.3660  0.0722 -0.1243
26731W        W40145   1.496  13.810  14.499  0.0480 -0.2153 -0.3191
26732W        W40146   4.341   6.249  13.193 -0.1197 -0.0987  0.0768
26733W        W40147   0.694  14.891   2.026  0.2234  0.2955  0.1277
26734W        W40148  16.707  18.055   4.439 -0.2305 -0.1983  0.1271
26735W        W40149   0.425   9.954  11.951  0.0847  0.0653 -0.1021
26736W        W40150  14.532   4.944  13.998  0.0475  0.1469  0.4536
26737W        W40151  12.130  12.975   1.018  0.0436  0.2102 -0.1406
26738W        W40152  11.491   0.286  15.232  0.2718 -0.0501 -0.0628
26739W        W40153   7.901   0.673   2.396 -0.1316 -0.2471 -0.0291
26740W        W40154  14.533   2.530  14.962 -0.0240 -0.1118  0.0727
26741W        W40155  16.154  15.842   3.642  0.2951 -0.1934 -0.3019
26742W        W40156   7.273  15.968   4.175 -0.2950  0.0580  0.2138
26743W        W40157  17.394  11.811   4.787  0.1233 -0.0234  0.3603
26744W        W40158  10.376   6.478   5.042 -0.1957  0.0181  0.2335
26745W        W40159   4.699  13.513   0.665  0.2497  0.0172  0.4235
26746W        W40160  15.572   4.093   0.925 -0.1364 -0.3339 -0.3859
26747W        W40161   9.462   8.260   3.880  0.0606  0.1812  0.1064
26748W        W40162  17.211   5.193  12.125  0.1419 -0.1402  0.1262
26749W        W40163   4.443  16.295   5.941 -0.0293 -0.1426  0.0936
26750W        W40164  13.789  14.991  15.449  0.1089 -0.0273  0.2164
26751W        W40165  12.369  14.400  10.406  0.0619  0.3580 -0.2883
26752W        W40166   0.593   2.021   2.828 -0.1050  0.2376 -0.0523
26753W        W40167  10.937  15.853  13.203  0.1609 -0.1104 -0.1540
26754W        W40168   5.000   4.397   0.720 -0.3078  0.0117  0.1452
26755W        W40169  15.074   2.204  11.059 -0.0526 -0.0234 -0.0870
26756W        W40170  12.875   4.893   4.350 -0.1505  0.0102  0.1317
26757W        W40171  14.315   6.216  13.505 -0.1911  0.5195  0.1616
26758W        W40172  14.334   3.395  13.295 -0.2522 -0.1499  0.0412
26759W        W40173  13.004  11.693  16.506 -0.0949 -0.1901 -0.0606
26760W        W40174  11.645  13.872  15.056  0.0116  0.1940  0.0915
26761W        W40175   6.331   0.322  13.149 -0.1718 -0.2438  0.1369
26762W        W40176  17.169  15.550   0.055 -0.1364 -0.1864  0.0921
26763W        W40177  13.520   9.605  13.908 -0.0743  0.0355  0.0309
26764W        W40178   2.011  17.961  10.587 -0.0603 -0.2085 -0.2475
26765W        W40179   8.041   2.387  11.425  0.0620  0.3821  0.1670
26766W        W40180  14.326   2.863   5.526 -0.2381  0.0640  0.1888
26767W        W40181   6.006   3.635  13.090  0.0952 -0.3100  0.0117
26768W        W40182   7.792   8.314  16.360  0.0902  0.1648 -0.0245
26769W        W40183  15.088   3.927   0.022  0.3537 -0.0221  0.0134
26770W        W40184   1.868   4.559   3.479 -0.1017 -0.0323  0.0600
26771W        W40185  14.648   7.624   3.547 -0.0834  0.2929  0.1982
26772W        W40186   1.541   5.326  11.368 -0.4561 -0.0212 -0.1358
26773W        W40187  12.070  15.638   6.603  0.1995 -0.2141  0.0413
26774W        W40188   7.438   8.764  12.648 -0.1627  0.0009 -0.0557
26775W        W40189   0.760  16.643  14.478 -0.1004  0.0361  0.5686
26776W        W40190   0.426  17.382   1.298 -0.0758 -0.0959 -0.0573
26777W        W40191   1.479  18.069  16.109  0.0217 -0.1780 -0.2398
26778W        W40192   6.540   4.251   4.598  0.0239 -0.0297  0.1332
26779W        W40193  11.821  12.708   6.021 -0.1635  0.2456  0.3032
26780W        W40194  18.248  14.024   5.758 -0.2071  0.2639 -0.0762
26781W        W40195   3.302  11.238  16.473  0.2385 -0.0403  0.2555
26782W        W40196  14.110  10.496   2.985 -0.1624  0.0576  0.1247
26783W        W40197  10.442   7.022  12.471  0.0779  0.0209  0.3510
26784W        W40198   5.620  18.095  12.971 -0.3535 -0.0054  0.1559
26785W        W40199   5.129   0.270  10.424 -0.0587 -0.2215 -0.4793
26786W        W40200  13.601   6.816   1.530  0.0687 -0.2439 -0.0169
26787W        W40201  15.616  14.905   0.219 -0.0719 -0.2271  0.0298
26788W        W40202  12.860  15.269   3.800 -0.2112  0.1307 -0.2892
26789W        W40203   2.907  10.955   2.113  0.1876 -0.2206  0.1110
26790W        W40204   5.156  15.957   4.666  0.3764  0.0913 -0.1643
26791W        W40205   6.740  14.578   1.361 -0.0596  0.0394  0.5058
26792W        W40206  12.298  15.977  16.033  0.0542  0.3791  0.0708
26793W        W40207   7.472   3.991   4.488 -0.0035 -0.1256  0.3677
26794W        W40208  18.256   6.735   3.396  0.2296  0.0061 -0.2471
26795W        W40209   6.383   3.460  12.771  0.5593  0.1925 -0.0508
26796W        W40210   0.273   7.775   4.066 -0.3297 -0.3488  0.0637
26797W        W40211  14.681   2.435   0.156 -0.6301 -0.2091  0.0164
26798W        W40212  14.518  12.121  16.336  0.2255 -0.2441 -0.1695
26799W        W40213   0.142   5.866   2.376  0.1443  0.2944  0.0698
26800W        W40214   6.912   3.085  11.650  0.4301 -0.2059 -0.0805
26801W        W40215  17.514  12.411  12.313 -0.3096 -0.0188  0.3239
26802W        W40216   6.188   0.469   4.570  0.1315  0.1998 -0.3556
26803W        W40217  13.716   0.793  13.826  0.2810  0.1580  0.2590
26804W        W40218   5.884   8.572   1.463  0.1397  0.1986 -0.1871
26805W        W40219  13.313  13.318  14.595  0.3470  0.3613 -0.2341
26806W        W40220   6.864   0.335   5.050  0.0332 -0.0647 -0.1526
26807W        W40221  12.181   3.584  15.675 -0.1034  0.2483  0.2142
26808W        W40222  11.584   5.066   4.430  0.2525  0.1089  0.2501
26809W        W40223   4.796   9.092   5.816  0.0658  0.1612  0.1628
26810W        W40224   8.956  11.878  14.469  0.0212  0.1569  0.0034
26811W        W40225   6.632   7.382  13.356  0.0714  0.0482  0.2357
26812W        W40226   5.905  12.374   4.499  0.0060 -0.1365 -0.0481
26813W        W40227   4.288  16.313  15.722 -0.1478 -0.0507 -0.1734
26814W        W40228   2.118   6.092   4.980  0.1940  0.2855 -0.0368
26815W        W40229  15.688  16.479   2.538  0.2343 -0.1229 -0.0657
26816W        W40230  11.963  14.023   2.767  0.1014  0.2018 -0.1339
26817W        W40231  15.250   6.993  12.956 -0.0538  0.1262 -0.1750
26818W        W40232   7.521   7.528  12.960  0.0354  0.2992  0.3221
26819W        W40233   8.533   8.715  13.550  0.1389 -0.1033 -0.1175
26820W        W40234  14.100  16.950   0.145 -0.0131 -0.1246  0.1577
26821W        W40235  11.044  14.382   1.207  0.0125  0.0850 -0.0802
26822W        W40236   0.764  16.618   3.512 -0.1437  0.1552  0.3114
26823W        W40237   6.296  14.113   3.525 -0.2494  0.0745  0.0645
26824W        W40238   8.897  17.883   3.900  0.3269  0.1550 -0.2559
26825W        W40239   1.161   0.882   4.400 -0.0994 -0.1223 -0.0467
26826W        W40240  17.258  13.563  16.198  0.1833 -0.2439 -0.2389
26827W        W40241   9.103  12.454  12.941 -0.0077  0.2702  0.2424
26828W        W40242  17.864  10.664   3.139  0.0970  0.1848 -0.0197
26829W        W40243   6.266   1.733  11.235 -0.4530 -0.0568  0.1578
26830W        W40244   6.585   2.096   1.851  0.0881  0.1387 -0.3030
26831W        W40245   1.296  18.263   1.249 -0.0735 -0.1607 -0.1586
26832W        W40246   0.259  12.153  11.255  0.1022  0.3269  0.0882
26833W        W40247  10.440  11.774  13.237 -0.1516  0.0378 -0.1199
26834W        W40248  12.987  14.381   0.610 -0.3390  0.0904  0.1520
26835W        W40249   5.762  17.271   2.238  0.0851 -0.3770 -0.2647
26836W        W40250  11.567   6.432  12.687  0.1578 -0.1208  0.0737
26837W        W40251  18.187   9.544   5.841 -0.0502  0.1163  0.0784
26838W        W40252  13.783  17.144  16.309  0.1003  0.0674  0.0618
26839W        W40253  17.462  13.530   2.521  0.4195  0.3025  0.6022
26840W        W40254   9.490  16.854  13.387 -0.1861 -0.3561 -0.3482
26841W        W40255   7.861  13.524   2.939  0.0207  0.1007 -0.1082
26842W        W40256  11.266  18.101  14.644  0.4702 -0.2431  0.1531
26843W        W40257   8.809   6.657   5.548  0.0732  0.1026  0.2341
26844W        W40258  18.152  15.911  11.282 -0.1656 -0.2013 -0.0290
26845W        W40259  10.152  16.372   3.840 -0.2585 -0.0907 -0.0079
26846W        W40260  17.816  15.457   5.500  0.0721 -0.4229 -0.0466
26847W        W40261   9.732  14.716  15.979 -0.0440 -0.0849  0.3623
26848W        W40262   5.761   3.085  15.046 -0.0007  0.2353 -0.0142
26849W        W40263   4.255   2.324   4.240  0.1103 -0.1062  0.0179
26850W        W40264   5.070   1.038  14.824  0.3744  0.1926 -0.0493
26851W        W40265  12.633   8.654  10.494 -0.0319 -0.2550 -0.0201
26852W        W40266   3.268  14.155   4.432  0.0061  0.1520  0.0535
26853W        W40267   2.846  12.179   5.999  0.1622 -0.2086  0.0800
26854W        W40268  10.930   1.264  14.924  0.1057 -0.3008  0.0518
26855W        W40269  12.486   2.100   1.213  0.0038  0.4562 -0.1156
26856W        W40270   1.248   7.227   0.678 -0.1405  0.1215 -0.0227
26857W        W40271   0.615  13.442   5.794  0.0938 -0.2067 -0.0176
26858W        W40272   9.415   9.640   5.908  0.1187 -0.0773 -0.1406
26859W        W40273   8.758   1.209   1.766  0.4664 -0.3691  0.0786
26860W        W40274  16.308   9.203   3.449 -0.1460 -0.0574 -0.3294
26861W        W40275   3.283  16.606   0.992  0.0375  0.2971  0.1234
26862W        W40276   6.709  13.677   0.048  0.0651  0.0331  0.0838
26863W        W40277   6.972  16.006   1.417 -0.1273  0.0719  0.1793
26864W        W40278  11.847  14.022   5.465 -0.0961 -0.1080 -0.1009
26865W        W40279   6.476   7.239  15.206  0.1658  0.0278  0.2342
26866W        W40280   1.177   1.818   4.503  0.2496 -0.0500  0.1076
26867W        W40281   9.611  10.176  11.423  0.3158  0.1332  0.0488
26868W        W40282  14.559   6.428  14.655  0.1176  0.2599  0.1703
26869W        W40283   4.614   4.865  11.771  0.0336  0.1286  0.2217
26870W        W40284   5.762   1.094  11.251  0.1103 -0.1698  0.0237
26871W        W40285   1.954   1.325  13.842 -0.1647 -0.0928  0.1012
26872W        W40286   3.534   5.350   3.626 -0.1281  0.2141 -0.2852
26873W        W40287   3.498   2.855  14.547 -0.0248  0.0484  0.3289
26874W        W40288   9.374   7.267   2.685  0.1794  0.0518 -0.2825
26875W        W40289   0.500   3.852   1.094  0.2994  0.1641  0.2238
26876W        W40290   9.267   4.175   1.157 -0.3628 -0.2894  0.1924
26877W        W40291  14.349  15.472   1.242 -0.2180 -0.0455  0.1174
26878W        W40292  15.033  13.538  14.359  0.0754  0.0992  0.0234
26879W        W40293   6.906  13.016  13.460  0.1593 -0.0706 -0.0696
26880W        W40294  13.758   2.223  12.749  0.0532 -0.0049 -0.1893
26881W        W40295  14.015   2.827  14.296 -0.1139  0.0742  0.1571
26882W        W40296   2.783  10.522  11.268  0.0573 -0.1258 -0.0142
26883W        W40297  17.261   6.649  15.358 -0.0733 -0.0335  0.1502
26884W        W40298  16.087  12.101   5.783  0.1272  0.1112  0.1992
26885W        W40299   7.313   6.619   5.039 -0.0565  0.0296 -0.2272
26886W        W40300   6.954  14.813  12.226 -0.1190  0.4258  0.0546
26887W        W40301   1.099   6.029   5.009  0.1337 -0.0295  0.0279
26888W        W40302  14.812  16.475   1.496 -0.1206  0.5038 -0.0100
26889W        W40303   0.536   7.108  10.402  0.1373  0.3444  0.0089
26890W        W40304  14.918   2.637  11.732  0.2421 -0.0264 -0.4681
26891W        W40305  12.285  15.938  13.523 -0.1943  0.1191 -0.0894
26892W        W40306   3.604  11.269  13.346 -0.0888 -0.2281 -0.1847
26893W        W40307  10.207  11.936   1.277 -0.3889 -0.0508  0.0657
26894W        W40308  15.753   2.005  15.128  0.1815  0.1116 -0.2049
26895W        W40309  13.141   9.536   2.231 -0.0704  0.0596 -0.1058
26896W        W40310   5.044   8.776   0.665 -0.1659  0.1904 -0.3140
26897W        W40311   7.992   2.248   0.451  0.2578  0.1738 -0.1465
26898W        W40312  16.620   0.627   1.017  0.2813  0.0911 -0.2629
26899W        W40313   5.559  15.106   1.942 -0.0501 -0.1219 -0.1122
26900W        W40314   2.614   7.164  16.421  0.1238  0.0967  0.1276
26901W        W40315  10.228   6.531  13.926 -0.2935  0.0448  0.2729
26902W        W40316   9.761  15.593   1.303  0.2224  0.0157  0.0157
26903W        W40317  13.189  16.620   1.221 -0.0711  0.0904 -0.3358
26904W        W40318   5.090   4.744  12.877 -0.1781 -0.1346  0.1455
26905W        W40319   3.899  14.735  12.762 -0.3348 -0.0946 -0.0090
26906W        W40320  13.641  17.069   5.396 -0.0586  0.0284 -0.0845
26907W        W40321   9.971   0.301  10.110 -0.3141 -0.1763  0.2715
26908W        W40322   4.532  14.425  12.316  0.0935  0.2014 -0.0119
26909W        W40323  16.156  12.034   3.850 -0.2888  0.0672  0.1607
26910W        W40324  10.673  14.149  10.933 -0.2623 -0.2307  0.0741
26911W        W40325   4.049  11.166  11.901 -0.0889 -0.0090  0.1391
26912W        W40326  15.048   6.205   2.052 -0.0516  0.0523  0.1268
26913W        W40327  14.722  15.933   3.972 -0.1390 -0.0759 -0.0761
26914W        W40328  14.614  11.664  16.062 -0.2181  0.1976 -0.1435
26915W        W40329  11.263  13.080   4.171 -0.3145  0.1005 -0.0730
26916W        W40330   4.297   1.538   0.008 -0.1303  0.0518 -0.1065
26917W        W40331  10.644   8.346   1.845 -0.5515 -0.2533  0.0691
26918W        W40332  18.019   5.323  12.578 -0.0295 -0.1089  0.2711
26919W        W40333  12.195  17.346  16.200 -0.0654  0.0355  0.0566
26920W        W40334   8.658  18.305  11.559 -0.0445  0.0541  0.1289
26921W        W40335   8.615   3.038  16.163  0.2174 -0.2547 -0.1904
26922W        W40336   4.540  13.525   2.237  0.0340  0.2438 -0.0677
26923W        W40337  11.678  10.377   0.772  0.0475 -0.1560  0.3941
26924W        W40338   8.549  10.297  15.735  0.0332  0.3298  0.1348
26925W        W40339   2.553  10.990  13.712  0.3719  0.0905  0.1191
26926W        W40340  15.516  16.379   4.756 -0.1412 -0.0301 -0.1624
26927W        W40341  17.193  16.324  12.918  0.1613 -0.1638  0.0897
26928W        W40342  11.143   5.276  11.310  0.1197  0.0599 -0.1593
26929W        W40343  10.725  12.755   3.876 -0.2615 -0.0729  0.4405
26930W        W40344   3.351   0.668  14.140 -0.0336 -0.5028  0.0291
26931W        W40345  14.974   1.341  11.195 -0.2243 -0.0076  0.0414
26932W        W40346   0.451   0.612   4.223 -0.0121 -0.0183  0.1772
26933W        W40347  15.253   0.173  13.115 -0.2144  0.0952 -0.1637
26934W        W40348  17.985  13.638  15.704 -0.0205  0.4519 -0.0942
26935W        W40349   5.784   6.296   2.021 -0.0716  0.0208 -0.1548
26936W        W40350   3.081   8.330  10.615 -0.0589  0.0150  0.1380
26937W        W40351  11.204  16.941  10.803  0.3054  0.5116  0.1750
26938W        W40352   1.704  15.483  12.244 -0.0470 -0.0536 -0.1503
26939W        W40353  17.217   8.999  12.230  0.0488 -0.0986 -0.0384
26940W        W40354  12.932  11.838  11.142 -0.1449  0.1485 -0.2613
26941W        W40355  10.857  14.631   3.080 -0.4025  0.0807 -0.0323
26942W        W40356  10.536  12.000  14.121 -0.0373 -0.0653 -0.0518
26943W        W40357   6.112  10.376   5.169  0.0709 -0.4045 -0.2931
26944W        W40358   1.846   2.586  14.985 -0.0662 -0.2486 -0.1706
26945W        W40359  10.630  12.981  14.055  0.1981 -0.0763 -0.0440
26946W        W40360  14.010  13.605   0.762  0.2029  0.1120  0.2801
26947W        W40361  12.504  16.160  14.496  0.2349 -0.0920  0.0704
26948W        W40362   9.279   7.089   3.983 -0.1352  0.0758  0.2168
26949W        W40363  18.174  17.441  16.386  0.0225  0.1654 -0.0399
26950W        W40364  12.642  17.171  11.489 -0.0221  0.0168 -0.0008
26951W        W40365  17.601  17.825  13.948  0.2391  0.2262 -0.0154
26952W        W40366  17.097   2.137   1.264 -0.1312  0.0139  0.1898
26953W        W40367  11.091   8.319   0.700 -0.1945  0.0939  0.3137
26954W        W40368  11.823   8.123  15.565  0.0349 -0.0866 -0.2345
26955W        W40369  18.101   8.538  12.925 -0.2147 -0.2220 -0.2096
26956W        W40370  16.042  15.792  14.409 -0.3329 -0.1132 -0.2021
26957W        W40371   1.117   8.140   4.018  0.1357  0.0634  0.1529
26958W        W40372  14.230   9.767  12.477 -0.0599  0.0329  0.4418
26959W        W40373   5.977   7.951  11.569  0.2930  0.0975  0.0745
26960W        W40374   5.423  10.227  14.542  0.1575  0.0220  0.0216
26961W        W40375   9.229   3.358   3.704 -0.1837  0.1181 -0.0463
26962W        W40376   0.367   9.125  10.456 -0.2354 -0.0057  0.2914
26963W        W40377   0.900   7.603  16.463  0.1100 -0.1165  0.1463
26964W        W40378  14.128  17.801  12.250 -0.2920 -0.0311 -0.0241
26965W        W40379  16.272  12.532   3.620 -0.0742 -0.1351  0.1141
26966W        W40380  15.414   7.543   4.041  0.2949 -0.0298  0.0482
26967W        W40381  17.807  14.425   3.432  0.0091  0.0823  0.1345
26968W        W40382   1.218   9.513   1.119 -0.1150 -0.2527  0.1919
26969W        W40383  12.054   4.952  10.566  0.0537  0.3150 -0.2545
26970W        W40384  17.875   3.255  10.767  0.2482  0.1037 -0.1699
26971W        W40385  12.894   5.265  10.490 -0.0705 -0.3950 -0.1479
26972W        W40386  18.390   1.752   5.844 -0.0792 -0.0210  0.0846
26973W        W40387   1.067   6.764  14.941 -0.0675 -0.0886 -0.3596
26974W        W40388   0.785   9.187  14.336  0.2191  0.2008  0.2770
26975W        W40389  17.504  17.710  16.511  0.3073  0.0654 -0.1519
26976W        W40390  14.358   3.567   4.939 -0.1265  0.1166 -0.0603
26977W        W40391  13.213   8.828  13.035  0.3929 -0.1616 -0.3956
26978W        W40392   2.344   8.520   2.149 -0.1021 -0.3082  0.0859
26979W        W40393  10.040   3.815   2.788 -0.0016 -0.3728  0.0912
26980W        W40394  17.096   2.991  13.659  0.0780  0.2330  0.1596
26981W        W40395  17.224   8.282  10.503 -0.0542 -0.3227  0.4794
26982W        W40396   0.828   3.508  14.515  0.1743 -0.0065 -0.0827
26983W        W40397   7.816   3.465  14.184 -0.1941 -0.2677  0.0646
26984W        W40398   9.081  11.866  11.247 -0.3590  0.1631  0.0083
26985W        W40399  12.120   2.414  12.228  0.1525 -0.0053 -0.1854
26986W        W40400  10.634   4.256   2.412  0.0766  0.0411 -0.5603
26987W        W40401   5.491  14.755  12.867 -0.2456  0.4943  0.1265
26988W        W40402  12.950   7.913   2.126 -0.2667  0.2517  0.0503
26989W        W40403  15.062   2.457   5.551  0.1508 -0.1660  0.3448
26990W        W40404  13.654  16.835  13.182  0.0155  0.0710  0.0484
26991W        W40405   9.819  10.857  14.940 -0.1888 -0.1400 -0.1835
26992W        W40406  14.641   2.196  13.626 -0.0401  0.0892 -0.0934
26993W        W40407   7.043   3.316   4.961  0.1805  0.0152  0.3387
26994W        W40408   5.708  13.599  14.570  0.2463 -0.0300 -0.0253
26995W        W40409   2.556  13.541  10.321  0.5391 -0.1919  0.0984
26996W        W40410   2.418  14.821   5.727  0.0274 -0.0520  0.0342
26997W        W40411  15.129   2.117  13.310  0.3333 -0.1125 -0.0480
26998W        W40412   9.247  18.324  14.218  0.1002 -0.0856  0.1853
26999W        W40413  10.790   5.609   4.452 -0.4174  0.1811 -0.0755
27000W        W40414   0.586  16.451  11.664 -0.1476 -0.1036  0.2629
27001W        W40415   6.645   8.630   9.918 -0.1425  0.1539 -0.1478
27002W        W40416  16.080   6.839  12.616  0.0774 -0.1250 -0.0805
27003W        W40417  11.900   2.697   2.633 -0.1121  0.0225 -0.0904
27004W        W40418   2.861   1.008   2.805  0.4025 -0.4585  0.0534
27005W        W40419  12.913  12.589  11.788 -0.0728 -0.2011  0.1602
27006W        W40420   2.336  11.837  11.189 -0.0608  0.2131  0.3735
27007W        W40421   8.316   2.746   9.869 -0.2232  0.3610 -0.0098
27008W        W40422   9.496  14.610   0.162  0.0023 -0.2580 -0.1636
27009W        W40423   1.063   2.118   4.907 -0.0411 -0.0808 -0.1219
27010W        W40424   8.724   1.369  11.693 -0.0638 -0.2885  0.3671
27011W        W40425  14.614   0.710  13.035 -0.0526  0.0852 -0.3986
27012W        W40426   7.699  12.552   3.477  0.1819  0.0106 -0.0168
27013W        W40427   7.195  10.956  13.351 -0.0626  0.1651 -0.0731
27014W        W40428   0.875  17.262   5.285  0.3052  0.0493  0.0546
27015W        W40429   6.601  17.015  10.559 -0.1206  0.0778 -0.0978
27016W        W40430   8.655   2.569  15.985  0.1287 -0.0795  0.0854
27017W        W40431  11.520  12.379  14.896 -0.0573 -0.0687  0.0002
27018W        W40432   1.183  18.354   0.727 -0.1530 -0.3234 -0.0488
27019W        W40433   3.941   5.916  15.610 -0.0257  0.0313  0.1763
27020W        W40434  13.262  10.303  11.510 -0.3405  0.0597 -0.1874
27021W        W40435  12.591  16.847   6.264  0.0435  0.0609  0.2383
27022W        W40436   3.394  15.111   4.859  0.1336 -0.0574  0.2995
27023W        W40437  16.871  11.257   5.750  0.1837 -0.2131  0.1605
27024W        W40438   2.008  10.212  12.299 -0.2906 -0.0399  0.0862
27025W        W40439  12.250  10.610  13.239  0.0547 -0.1727  0.0490
27026W        W40440   3.030  18.038   2.845 -0.2206 -0.1760  0.3246
27027W        W40441   9.496  16.216   2.016  0.0021  0.1659  0.0914
27028W        W40442  11.645   1.400  11.600  0.1354 -0.0528 -0.1839
27029W        W40443  16.800   9.258  12.456 -0.0937  0.0635  0.0536
27030W        W40444  12.148   9.267   0.766  0.1974 -0.2081  0.0101
27031W        W40445  18.086   6.066  10.917 -0.1989 -0.1872 -0.0511
27032W        W40446  13.455  18.022  16.071  0.0942 -0.1797  0.0521
27033W        W40447  14.777   7.973  14.519  0.0813  0.3034  0.0595
27034W        W40448  17.914  17.463   5.052 -0.1561  0.0670 -0.2608
27035W        W40449  18.194  10.285   0.188 -0.1559  0.0375 -0.0431
27036W        W40450  11.573  12.386   3.660 -0.1936 -0.2295  0.0137
27037W        W40451   7.808  14.655  15.340  0.0215 -0.3669 -0.0786
27038W        W40452   6.265   8.125  11.974  0.3359  0.0451 -0.4167
27039W        W40453   9.792   5.111   0.583  0.2369  0.0336  0.2874
27040W        W40454   8.422  17.350  10.816  0.3257 -0.1042  0.3126
27041W        W40455  12.374  12.643   2.963 -0.0263  0.2961 -0.0640
27042W        W40456   7.414   3.026  14.668  0.2473 -0.0933 -0.2744
27043W        W40457   0.830   4.384  14.235  0.1160 -0.2561 -0.0502
27044W        W40458  14.866   5.641  15.158  0.0140 -0.1908  0.0298
27045W        W40459   2.752   3.708  12.354  0.1550 -0.1621  0.0618
27046W        W40460   9.835  13.697   4.161 -0.0969 -0.1333 -0.0161
27047W        W40461   2.867  13.371   1.018  0.1503 -0.0919  0.3240
27048W        W40462   4.790   6.916   2.769 -0.0647 -0.1866 -0.1869
27049W        W40463  12.872  16.958  15.588  0.1670  0.4399 -0.1219
27050W        W40464  14.159  11.999   2.503 -0.0930  0.2705  0.0220
27051W        W40465   1.064  11.770  15.516  0.1162  0.2239 -0.1713
27052W        W40466  15.297  12.618   3.889 -0.0811 -0.1233  0.0686
27053W        W40467   7.409  12.814  12.046 -0.0776 -0.1069  0.1787
27054W        W40468   0.538   0.024  14.155 -0.2886 -0.0585  0.3747
27055W        W40469   9.039  12.716   0.488  0.0695 -0.0617 -0.0318
27056W        W40470   4.995   5.779   4.267 -0.4462 -0.1700 -0.0765
27057W        W40471  14.533   0.622   6.245  0.0915  0.2063 -0.1860
27058W        W40472   0.790  14.483   4.725  0.5996  0.3467  0.3085
27059W        W40473   8.366   7.522   2.323 -0.0125  0.0990 -0.0783
27060W        W40474   9.555   6.370   0.149  0.0702  0.0074 -0.1006
27061W        W40475   8.841  17.380   2.668  0.1376  0.0532 -0.0714
27062W        W40476  15.524   1.579  16.336  0.2938  0.0652 -0.2785
27063W        W40477   9.549  14.249   1.141  0.1288 -0.1710 -0.2405
27064W        W40478  12.660   0.581  16.402  0.0892 -0.3193 -0.0812
27065W        W40479   3.130  13.602   2.334 -0.0729 -0.2081 -0.0167
27066W        W40480   2.535   4.073  12.101 -0.1763 -0.2476  0.0674
27067W        W40481  17.091   6.725   4.912  0.1678 -0.1228 -0.0904
27068W        W40482   4.634   7.694   4.183  0.2104 -0.0080  0.4156
27069W        W40483   1.042  11.690   3.571 -0.1697  0.0145  0.0085
27070W        W40484  11.460   3.885   1.884  0.0624  0.0063  0.2777
27071W        W40485  15.617  12.091   6.011 -0.3104  0.0898 -0.1355
27072W        W40486  10.775   4.636   4.745 -0.2225 -0.0716 -0.1574
27073W        W40487  18.152  10.276  12.104 -0.0212  0.0688 -0.1335
27074W        W40488  17.637   2.389  14.171 -0.0446 -0.2005  0.0006
27075W        W40489  13.793  14.503  13.573  0.1785 -0.2120 -0.1620
27076W        W40490  10.025   5.702   4.280  0.1859 -0.0831  0.3383
27077W        W40491   3.039   3.628  12.755 -0.0744  0.2726 -0.2018
27078W        W40492  17.671   8.963  13.551 -0.0900 -0.0352  0.1305
27079W        W40493  12.162   8.790   4.311 -0.2770 -0.1971 -0.1081
27080W        W40494   9.353  12.068  14.126  0.0559  0.2151  0.0881
27081W        W40495   4.796  12.268   1.869  0.0560  0.3005  0.0533
27082W        W40496  11.770  14.417   2.409 -0.0049  0.1538 -0.1710
27083W        W40497   5.250   4.677   2.428 -0.0667  0.0117 -0.4194
27084W        W40498   4.260   9.384   3.771 -0.2908  0.3148 -0.2977
27085W        W40499   4.388   8.259  10.987  0.0850 -0.2440  0.0092
27086W        W40500   8.274   0.651  10.524  0.1016 -0.2279 -0.0049
27087W        W40501  15.154  10.228   2.971 -0.1813  0.0909 -0.1407
27088W        W40502   5.786   2.249  13.195  0.0713  0.2231 -0.0298
27089W        W40503   3.873  11.124   5.895 -0.2238  0.4049 -0.1396
27090W        W40504  17.380  11.893  14.539 -0.0266 -0.1192 -0.3456
27091W        W40505  16.844  10.498   0.524 -0.0417  0.2615  0.4919
27092W        W40506  12.531   9.404   3.706  0.4667 -0.1124 -0.2444
27093W        W40507  17.634   4.315   2.023 -0.3717 -0.1981  0.2303
27094W        W40508  13.563  10.233   5.924 -0.2310  0.1197 -0.2851
27095W        W40509  13.204   9.633  15.234  0.0301 -0.3126  0.4300
27096W        W40510   0.198   7.567  15.286 -0.0377  0.3251  0.0806
27097W        W40511  12.560  13.935  13.068  0.1279 -0.0215  0.2375
27098W        W40512   0.859   2.648   0.074  0.0699  0.2136 -0.2381
27099W        W40513   4.346   8.931   6.294  0.1407 -0.1485 -0.0203
27100W        W40514  10.578   5.027  12.051  0.1663 -0.0026  0.1558
27101W        W40515   5.101   1.909  14.128  0.0001  0.1383  0.4619
27102W        W40516   1.096  14.606  11.230  0.2423 -0.1299  0.0918
27103W        W40517  15.962  12.710  11.458 -0.0872 -0.2285 -0.0994
27104W        W40518   2.194   1.051   0.578 -0.0802  0.1754 -0.3294
27105W        W40519   4.286  12.347   5.719 -0.0181 -0.1599  0.0980
27106W        W40520  13.991  13.000  16.266  0.1172  0.0752  0.0042
27107W        W40521   9.425   1.854   0.196 -0.0584 -0.0471  0.2212
27108W        W40522   9.560   6.302   5.027  0.1446 -0.2017  0.2572
27109W        W40523   3.086  12.315   1.864  0.1228  0.0013  0.0456
27110W        W40524  15.454   0.699  14.576  0.3324 -0.1983 -0.1705
27111W        W40525   6.003   9.502  14.592  0.2041 -0.0668 -0.1248
27112W        W40526   9.251   7.205   0.972 -0.1587 -0.0251 -0.0055
27113W        W40527   5.704  16.262  11.090 -0.3144 -0.0540  0.0635
27114W        W40528  12.226  14.718  14.283 -0.0286 -0.1068  0.0840
27115W        W40529   2.126  12.665   5.638 -0.0335 -0.0006  0.2834
27116W        W40530   9.217   5.790  12.085  0.0365  0.0247  0.0969
27117W        W40531   6.932  11.529   4.071 -0.0535  0.1876  0.0562
27118W        W40532  10.393   6.548   2.067 -0.1753  0.0724 -0.3734
27119W        W40533  16.365  10.770  11.482  0.0540  0.1192 -0.2192
27120W        W40534  14.510  12.759   2.671  0.0184  0.0811  0.0373
27121W        W40535   9.690  18.371  13.995 -0.1961 -0.0571 -0.1461
27122W        W40536   1.074   2.096   2.564 -0.1116  0.2206  0.2462
27123W        W40537   3.742   0.127  15.087 -0.0213 -0.2476  0.4165
27124W        W40538   4.931   7.460  10.588 -0.0842  0.1479 -0.1151
27125W        W40539   5.159  17.377  13.124 -0.0106 -0.2343 -0.0316
27126W        W40540  13.644  10.804  10.221 -0.3808  0.1995 -0.1883
27127W        W40541  16.096  14.437  11.591 -0.1713  0.1116 -0.1170
27128W        W40542  16.597   0.684  15.349 -0.1907  0.1332  0.4091
27129W        W40543  13.962  15.253  11.288  0.0347  0.0582  0.2200
27130W        W40544  13.284   7.137  16.304 -0.4393 -0.2745 -0.0589
27131W        W40545  11.668  10.490  14.954  0.1654  0.1407  0.3461
27132W        W40546  11.831   7.536   6.117  0.0430  0.3127 -0.1406
27133W        W40547  15.740   5.738   2.496  0.2591 -0.0972 -0.0007
27134W        W40548  14.014  17.705   3.528 -0.6464  0.0146 -0.1997
27135W        W40549   3.714   7.071  15.942 -0.0786 -0.1821 -0.4514
27136W        W40550   1.359  16.268   4.564 -0.1867 -0.0728  0.1571
27137W        W40551  12.603  13.553  11.519  0.0373 -0.1104 -0.2305
27138W        W40552  17.436   0.020   2.880 -0.0250  0.0416 -0.0911
27139W        W40553  15.614  14.723  15.237  0.1592  0.0540  0.1783
27140W        W40554  14.274  11.640   5.232  0.2274 -0.1352 -0.1509
27141W        W40555   4.469  14.852   0.205  0.0125 -0.2113 -0.0795
27142W        W40556  15.740   0.014   1.799  0.0119 -0.0056  0.0837
27143W        W40557  14.955   2.976  13.926  0.1202  0.3287  0.1146
27144W        W40558  16.030  14.226  11.166 -0.0361  0.0683  0.1751
27145W        W40559   3.289  12.241  10.435 -0.0792 -0.1493 -0.1794
27146W        W40560   6.098  15.138   1.234  0.0611 -0.0660 -0.2386
27147W        W40561  10.610   2.899  12.574 -0.0240  0.0377  0.1573
27148W        W40562   8.473  11.848   1.419  0.0916  0.0851  0.4579
27149W        W40563   7.741   9.203  12.571  0.1624  0.2776 -0.1374
27150W        W40564   6.078  16.726   4.471 -0.0081  0.3208  0.1150
27151W        W40565  10.414   0.443   1.770 -0.2196  0.0837  0.0937
27152W        W40566   0.413  10.158   1.291 -0.0405  0.1939 -0.1861
27153W        W40567   0.645  12.939   1.795 -0.1437  0.0681 -0.3391
27154W        W40568   3.779  15.866   1.432 -0.1055 -0.0252  0.0202
27155W        W40569   8.079   8.342  15.368  0.0680 -0.5178  0.1198
27156W        W40570  15.436   6.027   9.531 -0.3235  0.1016  0.0461
27157W        W40571  15.811  16.587   1.134 -0.3515 -0.0097 -0.4566
27158W        W40572  16.948   2.186   4.692 -0.2554  0.1603  0.1443
27159W        W40573  11.728  15.920  14.981 -0.1937 -0.2199 -0.2485
27160W        W40574  10.406  18.267  12.809  0.1527 -0.1507  0.1374
27161W        W40575  13.361   6.301   0.847  0.2860  0.0924  0.0981
27162W        W40576   4.705  15.489  14.278 -0.0197 -0.0864 -0.3240
27163W        W40577   3.767   9.817  15.623  0.0604  0.1839  0.0344
27164W        W40578  11.963  13.991  13.983  0.0619 -0.4905 -0.0611
27165W        W40579  14.954  17.710   4.169  0.1338 -0.1724 -0.0736
27166W        W40580   9.882  13.419  14.028 -0.0994 -0.1468  0.2096
27167W        W40581   9.584   3.992  15.813  0.0713 -0.0535 -0.1566
27168W        W40582  16.863   3.919  14.167 -0.0904 -0.0292 -0.1249
27169W        W40583   9.664   6.372  10.276  0.2137 -0.0402 -0.1109
27170W        W40584   0.217   5.624  12.394 -0.2363 -0.1017 -0.2278
27171W        W40585  11.209  10.951  10.972  0.0921 -0.3520 -0.4299
27172W        W40586  13.086  16.511  11.650 -0.2434  0.0444 -0.0942
27173W        W40587  17.716   3.396  15.558 -0.1073 -0.2052 -0.0204
27174W        W40588   2.803   3.873  13.151 -0.1764 -0.0928  0.1239
27175W        W40589   9.073   4.293  15.601  0.1105 -0.1441  0.1646
27176W        W40590   3.737  10.252  15.869 -0.3116 -0.2256  0.0275
27177W        W40591   2.837   6.708  16.412  0.0452 -0.1365  0.1844
27178W        W40592   5.490   3.154  12.938  0.2324 -0.1463  0.1319
27179W        W40593  18.128   9.656   3.877 -0.1237  0.0313  0.0201
27180W        W40594   0.588  14.282   3.980 -0.0977  0.0648 -0.1298
27181W        W40595   7.029  10.878  15.904  0.1182 -0.1938 -0.0512
27182W        W40596   7.973   3.190  15.588 -0.1727  0.0668  0.2020
27183W        W40597   8.632   7.922   5.942 -0.1792  0.0782  0.0218
27184W        W40598  11.696   3.586  10.986  0.2256  0.1327  0.4901
27185W        W40599  11.285  13.609   4.063 -0.1366  0.1528  0.2481
27186W        W40600  18.372  16.427   3.891 -0.1093  0.1287 -0.4687
27187W        W40601   0.421  12.101   0.575 -0.1548 -0.1300  0.1380
27188W        W40602  14.672   3.904  15.339 -0.0723  0.2693 -0.0025
27189W        W40603   4.593   0.514  15.482 -0.0007 -0.0905  0.3848
27190W        W40604   8.483  11.297  12.911 -0.3434 -0.1695  0.0971
27191W        W40605   6.686   0.892   1.126 -0.0005 -0.1057 -0.0427
27192W        W40606  10.765  11.634   1.286  0.0878 -0.1018 -0.2209
27193W        W40607   6.387   0.264  14.132 -0.2310 -0.1852 -0.0577
27194W        W40608   8.994   5.225   5.503  0.2177  0.1611 -0.0603
27195W        W40609  16.581   7.147   2.874 -0.2807 -0.0207 -0.2527
27196W        W40610  17.549  16.408   2.570  0.1102 -0.1542 -0.3911
27197W        W40611  11.098   0.007   1.656  0.2139 -0.2153  0.0983
27198W        W40612   6.035  16.314  10.289  0.0828 -0.2515  0.1399
27199W        W40613   7.623  16.119   1.042  0.1342  0.0136  0.2699
27200W        W40614  10.932  18.049  15.655  0.0506 -0.1924  0.1674
27201W        W40615  12.315  17.263  10.008 -0.2575 -0.4854  0.0601
27202W        W40616  17.848   2.038   1.080 -0.2083  0.1884  0.1742
27203W        W40617   1.033   0.513   6.065 -0.1691  0.0559  0.1571
27204W        W40618  18.204  12.511   1.269 -0.0913  0.1417  0.0226
27205W        W40619   7.657   7.585  12.073  0.1084 -0.3220  0.0954
27206W        W40620   7.201   5.078   5.832 -0.1250 -0.2234  0.2579
27207W        W40621   2.546  10.420  13.368 -0.1991  0.1546 -0.2365
27208W        W40622   5.990   7.287   9.740 -0.0486  0.0428 -0.0502
27209W        W40623  12.544   5.029   5.146 -0.0161 -0.1085 -0.4588
27210W        W40624  17.197   4.228  14.806  0.2293  0.0034 -0.0713
27211W        W40625   7.801   0.975   2.786  0.1550  0.1597 -0.2277
27212W        W40626   9.921   1.294  11.621 -0.1269 -0.0597  0.3179
27213W        W40627   1.479  17.471   4.479  0.6367  0.2110  0.0284
27214W        W40628  10.156  17.728   2.712 -0.1642 -0.3379  0.0730
27215W        W40629  17.833   9.217  10.463  0.0454 -0.0002 -0.0749
27216W        W40630  17.478  10.607   4.867 -0.1093  0.3389  0.1330
27217W        W40631  14.397   5.732   2.847  0.0586  0.1294  0.3698
27218W        W40632   8.247  17.644   3.592  0.0325  0.0090 -0.0434
27219W        W40633   7.284   2.481  14.582  0.0083  0.0233 -0.2444
27220W        W40634  17.602  14.186   5.204 -0.1622 -0.2496  0.1387
27221W        W40635   0.917  10.793  14.592  0.0520 -0.2647  0.0750
27222W        W40636  17.248   7.653  12.440 -0.2183  0.0721 -0.1037
27223W        W40637  16.715   1.453  15.746 -0.4227 -0.1501  0.0100
27224W        W40638  15.473  11.686  16.447  0.4900  0.3861  0.2328
27225W        W40639  14.221  12.373   3.536 -0.5134  0.1607 -0.0648
27226W        W40640   9.695   9.843   3.683 -0.2070 -0.0084 -0.0240
27227W        W40641  14.184   2.517  15.316 -0.0711  0.0668 -0.0102
27228W        W40642   3.125  14.755   0.163  0.2498 -0.1335  0.0585
27229W        W40643   4.899   4.667   1.116 -0.1048  0.0550 -0.0219
27230W        W40644  11.214   3.660  11.027  0.2770 -0.1845  0.2483
27231W        W40645  13.326  16.951  11.599 -0.0285 -0.0482 -0.0437
27232W        W40646   4.841  10.390  11.577  0.3147 -0.1217 -0.1415
27233W        W40647   0.251  16.881   6.499  0.1762  0.0215 -0.0295
27234W        W40648   2.085   6.529  12.819  0.0558 -0.0516 -0.0251
27235W        W40649   0.110  17.816  13.607 -0.1536 -0.0940  0.0920
27236W        W40650   6.667   7.100  14.094 -0.2963 -0.1099 -0.1596
27237W        W40651  11.462  17.215  15.745 -0.1165 -0.2072 -0.5765
27238W        W40652   1.315  14.340   2.118 -0.0244  0.0576  0.0016
27239W        W40653   3.663   5.223   5.866  0.2864 -0.0120  0.0827
27240W        W40654  16.738  17.584   1.999 -0.0769  0.0395  0.1167
27241W        W40655   8.222   2.750  11.774  0.1835 -0.2191 -0.1353
27242W        W40656   7.622   8.004   2.880 -0.2814  0.0743 -0.0075
27243W        W40657   0.466   5.313  16.364 -0.0412  0.0883  0.4609
27244W        W40658   8.315  15.198  14.057 -0.1363 -0.0907  0.3999
27245W        W40659  15.270  17.505  10.954 -0.0733  0.0205  0.2680
27246W        W40660   1.661   9.160   6.229 -0.1729 -0.2974 -0.1630
27247W        W40661   0.690  11.467  11.031  0.0621  0.1505 -0.1302
27248W        W40662  14.735  12.541  15.077  0.0547  0.2473 -0.1531
27249W        W40663  14.460   6.379   1.534 -0.0145  0.2539  0.0448
27250W        W40664  14.992   4.865  13.938  0.0013  0.3715  0.0319
27251W        W40665   0.324  13.335   2.285  0.3274 -0.0503  0.2755
27252W        W40666   5.707   6.812  13.838 -0.0692  0.2018  0.1969
27253W        W40667  17.960  14.136   3.016  0.2209  0.1435  0.0220
27254W        W40668   5.620  17.530  16.227  0.1438  0.1260 -0.1634
27255W        W40669   0.379   5.563  10.622  0.0131 -0.3812 -0.1725
27256W        W40670   3.795  12.982  13.031  0.1756  0.2665 -0.0236
27257W        W40671  16.442   9.262  15.702  0.0519 -0.0267 -0.0396
27258W        W40672  14.900  14.954  14.395  0.2726  0.2889  0.0825
27259W        W40673  11.453   3.998  11.323  0.0787  0.1211  0.0333
27260W        W40674  11.266  10.772  16.469  0.0381  0.0169  0.0230
27261W        W40675   3.126  15.851  12.591 -0.0219 -0.1058 -0.1951
27262W        W40676   1.737   9.094  14.324  0.6319 -0.0265  0.0307
27263W        W40677  13.112   0.511  16.128  0.0076  0.1972  0.0152
27264W        W40678   3.001   1.121  16.429  0.0144 -0.2940  0.1060
27265W        W40679   9.675  12.313  12.596 -0.0534  0.2196 -0.2975
27266W        W40680   1.360  12.270   2.386 -0.0271 -0.1370 -0.1370
27267W        W40681  15.667  10.312  12.600  0.1370 -0.0413  0.0448
27268W        W40682  10.250   7.948  12.553  0.0385 -0.2084  0.2443
27269W        W40683   0.229  11.648   2.023 -0.0397  0.3480  0.0542
27270W        W40684   8.404  16.602  14.241 -0.2295 -0.0776 -0.2618
27271W        W40685   4.659   7.753  13.573 -0.0411  0.0411 -0.2216
27272W        W40686   9.807  11.782  11.019 -0.1787  0.1426 -0.1944
27273W        W40687  10.839   1.146  10.309  0.1827 -0.3504  0.3912
27274W        W40688  11.561   9.679   4.595 -0.0549  0.2314 -0.2102
27275W        W40689  11.659  14.706   2.020 -0.4102 -0.0613 -0.0617
27276W        W40690   0.951   7.887  13.673  0.0535  0.1227 -0.3161
27277W        W40691   9.869  13.710   3.372  0.1663  0.4292 -0.0624
27278W        W40692  10.112   7.098  13.832  0.2069 -0.2262  0.1742
27279W        W40693  11.052  10.986   4.436  0.1649  0.1018  0.1180
27280W        W40694   0.741  12.248  13.627  0.2352 -0.1204 -0.0520
27281W        W40695   7.724  14.308   0.142 -0.0012  0.2171 -0.1290
27282W        W40696  15.587  10.098  13.675  0.0034  0.1701  0.0923
27283W        W40697  14.871   7.778  12.689 -0.0114  0.1239 -0.0317
27284W        W40698   2.060  14.271   3.708  0.1741  0.2009  0.1412
27285W        W40699   9.994  16.864   3.613  0.2150 -0.1083  0.1262
27286W        W40700   4.946  16.981   3.556 -0.0829 -0.1161 -0.5315
27287W        W40701  13.255   4.194  13.290 -0.1326 -0.0817  0.2040
27288W        W40702   8.208  11.722  12.758 -0.1207  0.1106 -0.2346
27289W        W40703   8.972   4.685   3.298 -0.1413 -0.0897 -0.1695
27290W        W40704  10.182  15.583  12.414  0.3078 -0.2109 -0.2465
27291W        W40705  13.622   4.966   2.848 -0.2315  0.1897 -0.2008
27292W        W40706   8.556  13.363  14.883 -0.2106 -0.0112  0.2691
27293W        W40707  17.439   7.625  10.672 -0.2420  0.0011 -0.1674
27294W        W40708  11.402  10.658  14.139 -0.2317  0.3221 -0.1770
27295W        W40709  17.755  15.290   3.973 -0.3057  0.4844  0.0493
27296W        W40710  12.483  12.161   4.843 -0.1567 -0.0542 -0.1986
27297W        W40711   1.306  13.397  11.697 -0.3027  0.1386 -0.0376
27298W        W40712  13.957   2.613   1.180 -0.1808 -0.1724 -0.0991
27299W        W40713  14.753   5.587  11.229  0.0142 -0.2324  0.0224
27300W        W40714  12.254   2.827  14.612  0.2871  0.0201  0.0793
27301W        W40715  11.717   4.090   2.357 -0.1668  0.3015 -0.1996
27302W        W40716   5.356  10.127  10.336  0.3655  0.2580  0.0713
27303W        W40717   7.851  10.865  11.948 -0.2853  0.0859 -0.0047
27304W        W40718   6.944   2.209   0.473 -0.3662 -0.0571 -0.1493
27305W        W40719  16.501  11.814  12.733  0.2043 -0.0555 -0.1013
27306W        W40720  18.088  13.724   4.811 -0.1067 -0.0368 -0.0165
27307W        W40721  12.007   5.056   1.523 -0.1193 -0.3737  0.1963
27308W        W40722   2.458   2.783   5.186 -0.2747 -0.1585  0.0914
27309W        W40723  10.567   3.873  10.958  0.2294 -0.1489  0.2026
27310W        W40724   6.398  14.000   0.981 -0.1101 -0.1357 -0.0673
27311W        W40725  17.553   5.786   4.801 -0.0324 -0.0448  0.0736
27312W        W40726  11.748  16.183  13.946  0.1581 -0.2377 -0.1202
27313W        W40727   1.171   1.852  12.223  0.2019  0.0406 -0.3118
27314W        W40728  10.879  15.701   4.857 -0.3005  0.2547  0.1354
27315W        W40729   5.272  18.272   5.977  0.1190  0.3803  0.0553
27316W        W40730  13.647  16.161  16.110  0.2369 -0.1488  0.1355
27317W        W40731   8.262   3.805  11.614 -0.0486  0.2658 -0.1872
27318W        W40732   5.740  12.694  13.035 -0.1276  0.0752  0.0117
27319W        W40733  17.384   1.568   5.460  0.0958  0.1712 -0.0112
27320W        W40734  17.036   5.780   3.584 -0.1371  0.1745 -0.0505
27321W        W40735   1.722   5.721   6.353 -0.0344 -0.0582 -0.0486
27322W        W40736   9.296   0.353   5.248  0.1028  0.3019  0.1343
27323W        W40737  17.180   7.932  10.997 -0.1493 -0.1882 -0.1364
27324W        W40738   8.458  15.076   5.284  0.1612  0.1364  0.0298
27325W        W40739   8.335  12.488   0.378  0.3522 -0.0489  0.0296
27326W        W40740  10.573   4.034  13.534  0.0614  0.1883  0.4227
27327W        W40741   0.338   7.033  15.343  0.0695 -0.0806  0.0212
27328W        W40742   3.656   9.723   2.186 -0.0163 -0.1908  0.0187
27329W        W40743  10.160  11.798  15.911 -0.0671 -0.1277  0.0209
27330W        W40744   7.320   2.917  13.719  0.0301  0.2548 -0.0348
27331W        W40745  12.234   9.263   0.201  0.2754  0.0258 -0.3261
27332W        W40746   1.382   7.272  11.510 -0.1762 -0.2252 -0.1220
27333W        W40747  12.306   5.822   4.435  0.2884 -0.0639 -0.3268
27334W        W40748   4.247   9.373  12.870  0.1368 -0.0773  0.1293
27335W        W40749   1.017  17.728   1.871 -0.2095  0.0809  0.0857
27336W        W40750  11.843   2.527  14.418  0.1313 -0.2698 -0.0798
27337W        W40751   8.589  15.870  16.096 -0.1020  0.2801 -0.2878
27338W        W40752  11.542   3.053  11.721 -0.1255  0.3835 -0.2502
27339W        W40753   9.814  12.794   5.936 -0.1735 -0.1625 -0.1968
27340W        W40754   4.447   9.674   1.519 -0.0816 -0.2351 -0.2849
27341W        W40755  18.079   3.389  12.182  0.0819 -0.1728  0.0124
27342W        W40756  12.584   4.787  12.003 -0.0962  0.0135 -0.1346
27343W        W40757   4.729   2.377   3.534 -0.0170  0.2719 -0.1964
27344W        W40758  16.669  10.360  15.101  0.1738  0.0244 -0.0573
27345W        W40759  15.006  15.746   0.198  0.2727  0.0418  0.0032
27346W        W40760   8.175   9.081   2.102 -0.1552  0.2672 -0.2939
27347W        W40761   6.541  10.824   0.183  0.0903  0.0487 -0.0690
27348W        W40762   3.077  18.049  15.764  0.0320 -0.0549 -0.2980
27349W        W40763   0.812   5.113   0.790  0.0021  0.2238 -0.0791
27350W        W40764  10.166   0.858  12.591 -0.0773  0.1517 -0.2187
27351W        W40765  13.865   6.328   4.342 -0.0633  0.2569  0.1854
27352W        W40766  10.965  17.928  16.345 -0.0151 -0.1619  0.2727
27353W        W40767  16.334   7.842  10.981 -0.0546  0.0590  0.0432
27354W        W40768   1.036  18.032  16.273  0.0235  0.1096 -0.0028
27355W        W40769   6.568   3.125   1.820 -0.0826  0.0624 -0.1986
27356W        W40770   9.964  12.524  13.482  0.0633 -0.1049  0.1136
27357W        W40771  11.179  14.890  13.537  0.1503  0.0276  0.1385
27358W        W40772  13.873   2.652   3.605 -0.0416  0.1606 -0.2555
27359W        W40773  12.158  11.934  15.770 -0.0196  0.0646  0.0960
27360W        W40774  14.752  15.238  10.793  0.1426 -0.3108  0.0445
27361W        W40775   5.347  12.535   5.426 -0.0107 -0.0414  0.0380
27362W        W40776  11.631   5.342  11.193 -0.0607 -0.0571  0.1298
27363W        W40777  17.874   7.670   4.411  0.1585  0.1088  0.0486
27364W        W40778  14.500   3.885   5.672  0.2597  0.1860  0.2420
27365W        W40779   9.209  10.909   6.232 -0.0948 -0.2087  0.1682
27366W        W40780  13.769   7.262  15.290 -0.0964  0.1554 -0.1561
27367W        W40781  12.209  13.249  15.558 -0.3454 -0.1263 -0.1516
27368W        W40782  13.372  10.671  10.654  0.2246 -0.1426  0.0099
27369W        W40783   6.076   3.479   0.350 -0.0077 -0.0018  0.1509
27370W        W40784  14.672  13.920   5.059  0.0550  0.0250 -0.0281
27371W        W40785  12.377  17.080   2.848 -0.2263  0.3775 -0.3442
27372W        W40786   8.128  16.144   0.800  0.1294 -0.1081 -0.1332
27373W        W40787   2.633   8.283  10.803 -0.1535 -0.0259 -0.1543
27374W        W40788   3.346  16.565  11.655 -0.0245 -0.0590 -0.0029
27375W        W40789  14.842  14.655  15.653 -0.0762 -0.2267 -0.0849
27376W        W40790  12.759  10.967   0.629 -0.2535  0.0419 -0.0545
27377W        W40791   6.813   2.648   5.573  0.0910 -0.1294  0.0197
27378W        W40792   6.840   4.356   2.507 -0.1189 -0.1573 -0.2619
27379W        W40793   9.487   8.466  14.792 -0.2508  0.2125  0.0388
27380W        W40794   5.033   7.595  16.294 -0.1127 -0.1100 -0.0067
27381W        W40795  15.917   8.377  15.827 -0.2254  0.1826 -0.2674
27382W        W40796   6.361   7.574   2.812 -0.2571  0.3317  0.0893
27383W        W40797  13.167   7.856  14.889  0.3213  0.0154  0.3106
27384W        W40798  16.778   1.057   2.344  0.0014 -0.0576 -0.1111
27385W        W40799   4.777  16.801   6.775  0.0597  0.0257 -0.1616
27386W        W40800  15.211  13.224   2.779 -0.1377  0.0657 -0.1635
27387W        W40801   8.698  16.979   4.073  0.0647 -0.1033 -0.0898
27388W        W40802  18.371   5.745   6.286  0.1450 -0.1934 -0.0148
27389W        W40803   4.639   7.435  15.691 -0.3808 -0.3221  0.0375
27390W        W40804   7.824   1.241  11.303  0.0620  0.0240 -0.0160
27391W        W40805   4.939   6.014  11.044 -0.2905 -0.0464  0.1508
27392W        W40806   0.301   4.853  13.272  0.0924 -0.2192 -0.0402
27393W        W40807  18.257  17.654  14.522 -0.1381  0.1007  0.0463
27394W        W40808  10.338   8.858   2.892 -0.4481 -0.1921 -0.1701
27395W        W40809  13.280  16.929  16.499  0.1181 -0.0786  0.1237
27396W        W40810   1.247  13.402   1.949 -0.1051 -0.0802 -0.0035
27397W        W40811   8.465  10.461  13.971  0.3315  0.1602 -0.2436
27398W        W40812   4.325   6.268   3.193  0.0894  0.0616  0.0124
27399W        W40813  16.350  10.544  13.323  0.0498  0.1908 -0.5612
27400W        W40814  13.894  17.708  13.208 -0.2702  0.0502 -0.0245
27401W        W40815  12.441  10.384   3.597 -0.1863 -0.1240 -0.1872
27402W        W40816  12.548  11.504  13.936 -0.1438 -0.1982  0.0955
27403W        W40817  14.688  11.805   5.467 -0.1364  0.0901  0.1690
27404W        W40818  17.814   3.358   1.093  0.0540  0.2559  0.2284
27405W        W40819   1.741   2.865  11.152 -0.2181  0.1713 -0.1199
27406W        W40820   1.762  17.790  11.544 -0.0933 -0.0657  0.0469
27407W        W40821  13.891   6.914  10.545  0.0274 -0.1965  0.2287
27408W        W40822   2.932  11.658   3.594 -0.1399  0.1824  0.1138
27409W        W40823   4.881  10.457   3.515  0.0303 -0.2438  0.1955
27410W        W40824   3.803   1.213   2.345 -0.0933 -0.0444  0.0895
27411W        W40825   5.292  10.910   0.393  0.1026 -0.0263 -0.0284
27412W        W40826  13.930   6.638   5.665 -0.1485 -0.1493  0.0047
27413W        W40827   1.552  10.511  10.593 -0.1663 -0.3661 -0.0255
27414W        W40828   9.108   5.328  11.759  0.0527 -0.2220  0.0796
27415W        W40829   0.128  18.299  11.332  0.0833  0.1086  0.0626
27416W        W40830   1.373   7.927   0.979  0.0365 -0.0301  0.3063
27417W        W40831   2.654   5.192   4.600  0.0971 -0.0004 -0.0695
27418W        W40832  11.145   7.753   5.352 -0.1483  0.0686 -0.0296
27419W        W40833   3.427   8.069  11.074 -0.1795 -0.0648  0.3620
27420W        W40834  13.797  11.755   2.164 -0.0168 -0.2464 -0.3588
27421W        W40835   1.448   5.453  11.909 -0.1774 -0.2809  0.0715
27422W        W40836  16.690   8.261   0.855  0.1026 -0.4621  0.2932
27423W        W40837   0.516  10.268  11.602 -0.0168 -0.1278 -0.1230
27424W        W40838   8.691  18.191   1.264 -0.0524 -0.2264 -0.0012
27425W        W40839  16.066   5.557  10.731 -0.1114  0.2472 -0.1003
27426W        W40840   8.439   6.737  14.636 -0.1442 -0.0633  0.2565
27427W        W40841  11.722   0.003  11.790  0.0800 -0.0250 -0.0129
27428W        W40842   0.010   3.559  10.673 -0.1260 -0.0617 -0.1589
27429W        W40843   1.486   6.192  11.396 -0.5008  0.0365  0.0020
27430W        W40844  18.213  17.512  14.999  0.2851  0.1357 -0.2066
27431W        W40845   4.473  17.618   2.635 -0.2906 -0.2557  0.0221
27432W        W40846   6.826  12.081   4.881  0.1025 -0.2053  0.1134
27433W        W40847   8.193   6.930   1.479  0.0340  0.0047 -0.0297
27434W        W40848  13.231   3.359  13.626  0.0756 -0.0275 -0.1347
27435W        W40849   2.724  11.719   1.601 -0.4538  0.1035  0.0771
27436W        W40850   1.029  10.243   2.282  0.2484 -0.1195  0.2994
27437W        W40851  13.275   8.693  14.440  0.1347  0.2067  0.1007
27438W        W40852  17.111  12.732  12.629  0.0372 -0.1780  0.0543
27439W        W40853  12.239  10.657   4.331  0.2145 -0.2009 -0.0357
27440W        W40854   8.964  18.031  11.218  0.0024 -0.2732 -0.0083
27441W        W40855  14.385  10.330   3.965  0.1496  0.1409  0.3565
27442W        W40856   0.480   4.471   3.680  0.0911  0.0212 -0.0326
27443W        W40857   1.427   6.959  15.864  0.3542  0.4680  0.2920
27444W        W40858   5.404   4.330   9.826 -0.1450 -0.5062 -0.0635
27445W        W40859  12.234   0.105   5.052  0.2180  0.0091  0.0939
27446W        W40860   2.452  10.517   0.024 -0.1262 -0.1510  0.1427
27447W        W40861   8.393  14.648   5.827  0.0138 -0.0136  0.1360
27448W        W40862  17.562   3.009  15.899 -0.1941  0.0026  0.3281
27449W        W40863   6.168   0.076   2.669  0.3362 -0.1468  0.0003
27450W        W40864   2.206   8.668  10.598 -0.2702 -0.3206  0.2801
27451W        W40865  10.547   4.539   0.391  0.0661  0.1532 -0.0319
27452W        W40866   8.485   7.639  12.285  0.2327 -0.1827 -0.0198
27453W        W40867  13.132   8.012  10.377  0.1178 -0.0168 -0.1766
27454W        W40868  10.688   3.016   5.291 -0.4262  0.1218 -0.4106
27455W        W40869   0.618   2.661   2.564  0.1121  0.1033 -0.0735
27456W        W40870  14.894  15.724  11.291  0.1621  0.4812 -0.1919
27457W        W40871   9.464  16.509   2.748 -0.1758  0.3089  0.2194
27458W        W40872  10.351   2.006   2.261  0.3679 -0.1785  0.0170
27459W        W40873  15.068   4.502   0.399  0.0559  0.0568 -0.0616
27460W        W40874  15.422   8.025  10.228  0.0426  0.1714 -0.2046
27461W        W40875   6.845  12.912  15.236  0.1941 -0.2408  0.0036
27462W        W40876  13.889  10.750  10.756 -0.2266 -0.2225 -0.0867
27463W        W40877   7.695  15.210   0.453  0.2297  0.1400  0.1693
27464W        W40878   0.570  17.460   1.876  0.0128 -0.0932  0.1276
27465W        W40879   1.151  16.978   0.269  0.1797 -0.0269 -0.3730
27466W        W40880   2.901   7.879  11.026 -0.2638 -0.3233  0.1452
27467W        W40881  16.201   8.282   4.547 -0.2355 -0.3125  0.1563
27468W        W40882   0.684   2.234  13.618 -0.1572 -0.2198  0.1950
27469W        W40883  10.536   7.303   4.496 -0.1100  0.1115  0.0105
27470W        W40884  16.285   7.509  10.558  0.1044  0.0569  0.0140
27471W        W40885   9.208  13.967   4.982 -0.1214 -0.1556  0.0173
27472W        W40886   2.332  10.571  12.252  0.1438 -0.0587 -0.0831
27473W        W40887  17.134   2.007   5.119 -0.0039  0.3517 -0.1782
27474W        W40888   5.274  17.286   2.438  0.1002  0.0731 -0.1395
27475W        W40889   8.281  12.095  13.082 -0.1858  0.0987 -0.2265
27476W        W40890   1.656  15.340   5.623  0.1101  0.0084 -0.1795
27477W        W40891  10.102  10.784   5.636 -0.7521 -0.2688 -0.1070
27478W        W40892   0.432   2.492  15.528 -0.0759 -0.2090 -0.2055
27479W        W40893   7.337   4.789   4.383  0.0176 -0.1714 -0.4062
27480W        W40894  12.958   1.320  11.012  0.0456  0.1947  0.0163
27481W        W40895   1.179  13.359  11.186 -0.1719 -0.2976  0.1713
27482W        W40896   5.340   1.309  15.230 -0.0965 -0.2852 -0.0260
27483W        W40897  10.253   8.791  11.165  0.2350  0.2510  0.0879
27484W        W40898  15.314  14.271   2.366  0.1735  0.0299  0.0765
27485W        W40899  14.420   7.001  14.421 -0.0952 -0.2212 -0.0094
27486W        W40900   5.294   9.401   1.836  0.1265 -0.2592 -0.0354
27487W        W40901  12.139   8.782  11.224 -0.1011  0.5616 -0.5718
27488W        W40902   5.996  10.418   4.294 -0.0759 -0.3999  0.3014
27489W        W40903  13.787  15.567  12.881 -0.1505  0.0562 -0.1135
27490W        W40904   1.885  17.229   0.688 -0.2066  0.0431 -0.0501
27491W        W40905   1.155   6.923  15.439  0.2904 -0.2129 -0.0774
27492W        W40906  11.153   1.730  13.506  0.3186  0.0391  0.2900
27493W        W40907  12.675   2.752   0.520  0.1261 -0.4379  0.1579
27494W        W40908  15.592   3.915  10.956  0.1375 -0.0747  0.1138
27495W        W40909   1.454   1.620  15.838 -0.1486 -0.0007  0.1157
27496W        W40910   4.690  16.654  12.012 -0.0658 -0.0422 -0.2296
27497W        W40911   6.181   0.922   0.939 -0.1311 -0.0981 -0.1658
27498W        W40912  16.318  10.804   3.043 -0.0311 -0.2866 -0.0693
27499W        W40913   8.449   8.125   1.919 -0.0743 -0.0392 -0.0483
27500W        W40914  10.133  11.002   1.615  0.0399  0.2694  0.0392
27501W        W40915   3.512  13.448  14.845  0.2952 -0.2732  0.2127
27502W        W40916  13.734  17.509   3.194  0.0885  0.2350  0.0807
27503W        W40917   7.699  18.333  11.835  0.1105 -0.2020 -0.1958
27504W        W40918   4.944   8.876  14.109 -0.2684  0.2438 -0.2555
27505W        W40919   5.156   7.341  11.052 -0.0929 -0.1454  0.3168
27506W        W40920  10.749   9.354   4.966  0.0476  0.0951 -0.1918
27507W        W40921  11.150   4.444  14.336 -0.1632  0.3635  0.0493
27508W        W40922  15.193  15.266  11.708  0.0702 -0.0564 -0.0681
27509W        W40923  13.108  16.045   3.626 -0.1223  0.2583 -0.1294
27510W        W40924  14.089   7.869  15.326 -0.0218  0.1424 -0.2645
27511W        W40925  12.357  11.209   5.015  0.3250 -0.1058  0.1029
27512W        W40926   8.546   4.399   4.649  0.4647  0.1211  0.0365
27513W        W40927  13.400  11.244  13.449 -0.1976  0.1865  0.1627
27514W        W40928  11.245   2.655   0.966 -0.1160  0.2057 -0.4211
27515W        W40929  15.928   8.454   4.902  0.1095 -0.2224 -0.0419
27516W        W40930  14.543   6.895  11.344  0.2541 -0.1365  0.2099
27517W        W40931   4.242   7.313  14.724  0.0292  0.3011  0.0427
27518W        W40932   1.407   9.858   1.504 -0.0907  0.0554 -0.3363
27519W        W40933   4.155   1.378  14.989 -0.1752  0.1475 -0.0167
27520W        W40934  11.142   9.552   2.255  0.0073 -0.0413 -0.2300
27521W        W40935   4.166  13.265  16.115  0.1945  0.1448 -0.0273
27522W        W40936  17.948   1.719   2.895 -0.5277 -0.1349 -0.3039
27523W        W40937   4.580   0.817  16.260  0.1009  0.1167 -0.0199
27524W        W40938   9.444   0.031   3.381  0.0496  0.0840 -0.1107
27525W        W40939  11.419   0.566  16.511 -0.2468  0.0518  0.3224
27526W        W40940   3.726   3.450   4.692 -0.0251 -0.0290 -0.0338
27527W        W40941  15.846  12.360   5.417 -0.0417 -0.0364 -0.0479
27528W        W40942   3.822  12.721  13.606 -0.0163  0.0598 -0.1462
27529W        W40943   1.236   1.253  11.470 -0.1292  0.0012  0.2247
27530W        W40944  17.780  17.970   1.636 -0.0870  0.2914 -0.1175
27531W        W40945  14.306   1.285   0.937  0.0304  0.1843  0.0423
27532W        W40946   9.154   5.178  15.570 -0.1479 -0.0335  0.1115
27533W        W40947   4.066   3.436  13.619 -0.0050  0.0867 -0.0234
27534W        W40948  12.276  15.280  14.371  0.2780  0.1630 -0.0278
27535W        W40949   4.643  16.012  14.457  0.0201  0.1403  0.0774
27536W        W40950  12.428  13.711  15.703 -0.3319  0.2635  0.1258
27537W        W40951  18.099   4.968  14.873  0.1410 -0.1082 -0.0878
27538W        W40952   1.810   7.454  11.652 -0.0557  0.1046  0.0951
27539W        W40953   2.830   0.083   3.769 -0.3889  0.1860  0.0814
27540W        W40954   9.956   3.513   6.068  0.0584 -0.0694 -0.1231
27541W        W40955   6.853   9.079   4.887 -0.1057  0.2502  0.0251
27542W        W40956  15.984   5.901  13.317  0.0599 -0.2665  0.2545
27543W        W40957  12.285   0.222   0.011 -0.3800  0.0733  0.0634
27544W        W40958   2.143   2.050  12.211  0.0495  0.0841  0.4038
27545W        W40959   6.184   0.313  14.616  0.1442 -0.1490  0.1915
27546W        W40960   3.479   9.927   0.524  0.0703 -0.0014 -0.0908
27547W        W40961  11.065   9.800  11.230  0.1133  0.0598 -0.0073
27548W        W40962  11.644   6.547   0.505 -0.0199 -0.0060  0.3600
27549W        W40963  13.003   3.532   0.301  0.1014 -0.3786  0.0734
27550W        W40964   2.366  10.075   3.399  0.0620 -0.2707 -0.1074
27551W        W40965  11.589   4.682  14.476  0.1176 -0.0137 -0.0399
27552W        W40966  13.063   1.430  11.890  0.2837  0.0606 -0.2260
27553W        W40967  18.372  14.470   0.422  0.0244  0.0956  0.1114
27554W        W40968   3.972   9.138  13.214  0.0339  0.1453  0.1385
27555W        W40969   6.542   6.821   2.430 -0.0099 -0.2040  0.1994
27556W        W40970   7.663   6.560  11.918  0.0920  0.1004  0.1053
27557W        W40971  17.256  14.565   3.611  0.0373 -0.0266  0.1089
27558W        W40972   6.364   6.431   0.563 -0.0582  0.1452  0.3222
27559W        W40973   8.909   5.980   3.269 -0.0088  0.2181 -0.3303
27560W        W40974  14.534   8.704  15.727  0.1619 -0.1401 -0.0254
27561W        W40975  13.100   3.475   5.118  0.1605 -0.2874  0.1005
27562W        W40976   9.199  14.622  15.974 -0.0244  0.0671 -0.0804
27563W        W40977  14.212  10.535   3.587 -0.0101  0.5084 -0.1133
27564W        W40978   9.188   8.712  12.198 -0.1123  0.2908  0.2191
27565W        W40979   8.717  16.987  15.464  0.1837 -0.1299  0.0058
27566W        W40980  17.061  15.998  15.069 -0.0127  0.1222  0.1965
27567W        W40981   9.743   4.973  12.501  0.0591  0.1395  0.0782
27568W        W40982   8.617  15.380  16.191 -0.3114 -0.1697 -0.2457
27569W        W40983  13.121  16.511  15.526  0.0443  0.1439  0.0113
27570W        W40984  10.842  14.837  13.087 -0.2042 -0.0720  0.3100
27571W        W40985  14.949  14.437   0.326  0.0590 -0.0469 -0.3769
27572W        W40986   1.034   1.779   2.038 -0.0351  0.3870 -0.0493
27573W        W40987   1.774  12.888  12.098  0.0245  0.2128 -0.0399
27574W        W40988   7.715  17.771   3.696  0.0370 -0.3194  0.2048
27575W        W40989   1.253   6.229   3.063  0.1491 -0.3239  0.0859
27576W        W40990   3.750  12.665  11.981  0.1678 -0.0711 -0.1977
27577W        W40991   5.877  10.538   1.717  0.1546  0.3721  0.0236
27578W        W40992   7.005   2.464  15.111 -0.1935  0.0201 -0.1680
27579W        W40993   9.265   8.560  10.695  0.1178  0.1318  0.0686
27580W        W40994   1.038   4.229  10.748  0.0918  0.0244  0.1897
27581W        W40995  16.221   0.038   1.787  0.3178  0.2362  0.1446
27582W        W40996   3.185   8.765   5.159 -0.1937  0.1234  0.3568
27583W        W40997   6.372   6.968  10.863  0.3930 -0.3350 -0.1606
27584W        W40998   9.406  13.904   0.816 -0.0816 -0.0284 -0.1000
27585W        W40999   6.306   9.197  12.556  0.1236 -0.0495  0.4206
27586W        W41000   8.976  10.184   0.285 -0.2561 -0.0853 -0.2002
27587W        W41001  16.788   6.667  11.956  0.0134  0.1091  0.3373
27588W        W41002  16.656  17.077  14.560 -0.1917 -0.2005 -0.4994
27589W        W41003   0.397  11.492  11.856  0.0599  0.0467  0.0019
27590W        W41004  15.999   0.439   1.950 -0.0335 -0.1773  0.1205
27591W        W41005  12.029  11.989  10.599  0.2743  0.0895 -0.0296
27592W        W41006  12.420   5.110  12.933  0.1219  0.1489 -0.0545
27593W        W41007   4.799  12.721   2.110 -0.1336  0.1160 -0.0104
27594W        W41008   0.952  12.615   4.001 -0.0487  0.0546  0.1837
27595W        W41009   5.171  17.533  11.647 -0.1803 -0.0151  0.3405
27596W        W41010  12.584   1.922   3.130 -0.3082  0.0031  0.1420
27597W        W41011  10.703  10.359  10.387 -0.2296  0.0124 -0.0304
27598W        W41012  14.261  10.436  11.427  0.0331  0.0546 -0.1159
27599W        W41013  16.535   6.715   4.089  0.0714 -0.0521 -0.3180
27600W        W41014   9.158   3.157   2.634  0.1493  0.0885  0.2066
27601W        W41015  14.963  17.452   5.714  0.0686 -0.0601  0.0027
27602W        W41016  17.968  12.997   5.781 -0.1052 -0.1726 -0.0372
27603W        W41017   6.946  13.678  15.620  0.0932  0.1848  0.1114
27604W        W41018   3.649   0.896   6.217  0.1336  0.0446  0.0254
27605W        W41019  13.752  12.207   2.895  0.0952  0.0009  0.0669
27606W        W41020  16.212  15.913   7.117  0.1920  0.1321  0.1811
27607W        W41021  18.360   5.006   1.861  0.2605 -0.0384  0.2625
27608W        W41022   9.493   8.590   4.902 -0.3480  0.1602 -0.0378
27609W        W41023   2.829  13.146   6.637 -0.1557 -0.0409 -0.2340
27610W        W41024   2.286  16.944  12.757 -0.1263  0.2465  0.0046
27611W        W41025   1.145  10.475   5.569 -0.1302 -0.3359 -0.2482
27612W        W41026   7.839   3.918  14.467  0.1177  0.1203  0.1465
27613W        W41027  14.785   5.126   1.857 -0.0163 -0.0337  0.2116
27614W        W41028  15.558   7.140   2.033 -0.2623  0.0200 -0.0011
27615W        W41029  14.754   9.428  10.966 -0.3530  0.1039  0.1324
27616W        W41030  18.206   2.348   0.254 -0.4261 -0.0310 -0.0720
27617W        W41031  10.577   0.133  10.863 -0.2664  0.0736  0.2530
27618W        W41032  15.823   4.605  16.219 -0.2505 -0.2574 -0.0074
27619W        W41033   2.341   9.697  11.612 -0.2936 -0.1676 -0.1371
27620W        W41034   4.905   4.580   5.990 -0.1262 -0.0207  0.0181
27621W        W41035   5.296   9.231  14.043  0.2713  0.2299  0.3447
27622W        W41036  15.187   1.471  15.530  0.0463  0.3629 -0.1290
27623W        W41037  15.918   6.760  13.494  0.1489 -0.0450  0.0991
27624W        W41038   2.347  16.574   2.643 -0.1939 -0.1986  0.0403
27625W        W41039   7.926   4.249  10.984 -0.0767 -0.2331 -0.1355
27626W        W41040   1.668  11.158  14.072 -0.0002 -0.1143  0.1679
27627W        W41041   8.294  10.501   0.932 -0.0182  0.2141 -0.2115
27628W        W41042   7.189   0.483   3.991  0.3186  0.1433 -0.0237
27629W        W41043  12.165   9.981   6.159 -0.0497  0.4993 -0.0480
27630W        W41044   0.804  10.187   5.820  0.1095  0.3869 -0.0301
27631W        W41045   1.493   5.595  15.875 -0.0704  0.0377 -0.2344
27632W        W41046   2.117  14.393   3.207  0.2345  0.1692 -0.1344
27633W        W41047  12.303  14.002  13.604 -0.3012 -0.0588  0.3389
27634W        W41048   2.942  16.061  14.239 -0.2248 -0.0470 -0.1212
27635W        W41049   3.194   9.018  10.567 -0.3223  0.2066 -0.0367
27636W        W41050   8.402  17.431  14.146  0.1254 -0.3043 -0.3503
27637W        W41051   9.583   2.402   1.508 -0.0220  0.1731  0.0973
27638W        W41052   6.006   3.884   5.463 -0.1401 -0.0903  0.1038
27639W        W41053   5.391   6.547  14.568 -0.0850  0.2525  0.1396
27640W        W41054   5.036   2.838   4.220  0.4502  0.2383 -0.1272
27641W        W41055   5.255   1.383   2.156  0.6714  0.2519  0.1841
27642W        W41056   8.677   9.953   1.650  0.0395  0.2010 -0.0605
27643W        W41057  15.746   8.255   2.027  0.2081  0.0643 -0.1593
27644W        W41058  11.965  16.818   5.460  0.2023 -0.3463 -0.0102
27645W        W41059   2.346   4.084  13.141  0.6065 -0.0966  0.2584
27646W        W41060  12.079   2.065   5.650 -0.0500 -0.4093 -0.1966
27647W        W41061   6.898   4.751   2.205  0.1175  0.0626 -0.1243
27648W        W41062   0.853   7.648  14.998 -0.2884 -0.3041 -0.2217
27649W        W41063   9.875   0.342  15.468 -0.0757 -0.5003 -0.2668
27650W        W41064   3.690   2.100   6.456  0.3406 -0.0703 -0.0496
27651W        W41065  14.028   8.567  13.311  0.1249  0.1074  0.0292
27652W        W41066   3.708   2.778  14.979 -0.0272  0.0410 -0.0120
27653W        W41067   2.473  14.423   1.533 -0.0481  0.0785 -0.0497
27654W        W41068   0.783  10.057  12.760 -0.1046 -0.0990 -0.1872
27655W        W41069   7.863  16.221   4.362 -0.1897 -0.0499 -0.1817
27656W        W41070   8.945  17.313   1.527  0.0721 -0.0940 -0.2788
27657W        W41071  14.900  12.764  12.396 -0.1233 -0.1089 -0.1710
27658W        W41072   2.381  12.216   2.256 -0.2197  0.0171 -0.1714
27659W        W41073   8.619   6.050  10.589  0.1888 -0.2504  0.0363
27660W        W41074  10.680   8.479  14.064  0.1209 -0.2753  0.4840
27661W        W41075   7.159  11.787  13.314  0.2700 -0.2295 -0.0773
27662W        W41076   3.627  13.770   4.896  0.1155  0.0597  0.1652
27663W        W41077  14.729  11.951  14.941 -0.5807  0.0118 -0.0848
27664W        W41078   8.456   6.330  11.943 -0.1249  0.0170 -0.1046
27665W        W41079  13.684   6.371   1.213  0.2314  0.2084 -0.0605
27666W        W41080  13.826  16.414   0.402  0.2323 -0.1076 -0.0138
27667W        W41081   5.103   7.888   1.131 -0.1633 -0.0363  0.1798
27668W        W41082   7.937   8.262   4.942  0.2929  0.1277 -0.0437
27669W        W41083  17.838  13.218   2.647  0.0115  0.1881  0.2291
27670W        W41084   5.024   8.864  12.264 -0.2433  0.0631  0.1313
27671W        W41085  17.021   6.381   5.289  0.3922  0.0141 -0.4731
27672W        W41086  11.925   0.397  11.102  0.0038  0.2419  0.0606
27673W        W41087  15.776  10.094   5.529  0.0077 -0.3050 -0.0513
27674W        W41088  13.342   7.233  12.267  0.0982 -0.1064 -0.1347
27675W        W41089   0.878  13.997   1.418 -0.0603  0.2860 -0.0451
27676W        W41090  15.353   2.630   3.375 -0.0654  0.0724 -0.1543
27677W        W41091  13.099  11.964   2.796  0.0692 -0.4277 -0.0997
27678W        W41092   5.064   3.416   4.290  0.2345  0.0145 -0.0204
27679W        W41093  16.084  14.684  13.491 -0.0779 -0.1407  0.0078
27680W        W41094   1.589  14.620  12.480  0.2267  0.0637 -0.1163
27681W        W41095   6.819   8.072  12.667 -0.2374  0.0265 -0.1647
27682W        W41096   3.962   4.110  14.860  0.1400 -0.0442 -0.0489
27683W        W41097  12.040  13.569   4.844  0.3597 -0.0256  0.1271
27684W        W41098   3.458   4.800   3.185 -0.3080 -0.2617 -0.1640
27685W        W41099   2.195  15.287  12.838 -0.2157  0.0216  0.0477
27686W        W41100  15.836   7.370   0.132 -0.0157  0.3350  0.3156
27687W        W41101   5.594   7.848  13.784  0.0720  0.0724  0.3583
27688W        W41102  16.222   8.478  15.487 -0.0180  0.1860  0.1040
27689W        W41103  17.223   3.323   0.061 -0.0387  0.1372 -0.0668
27690W        W41104  13.720   8.997  13.180 -0.0372  0.3330  0.1827
27691W        W41105   7.668   5.907   0.807 -0.1532 -0.2101 -0.2002
27692W        W41106  10.758   6.497  11.299  0.0772 -0.1373 -0.2576
27693W        W41107   6.936   8.388  14.384  0.1446 -0.0853 -0.1955
27694W        W41108  15.946   2.413  15.867 -0.1958  0.1748  0.0768
27695W        W41109   0.884  15.380  13.122 -0.1339  0.1226 -0.1769
27696W        W41110   9.303   0.006  11.107  0.1167  0.3386 -0.0293
27697W        W41111   0.431   9.404  11.944  0.0992  0.0921  0.1987
27698W        W41112   2.009   8.429   4.833  0.0193 -0.0570 -0.3955
27699W        W41113   8.713  12.278  16.106  0.1070 -0.1059 -0.1074
27700W        W41114  11.252  17.539   1.812 -0.1244  0.1855 -0.1961
27701W        W41115   7.302   8.857   0.568  0.0271  0.1250 -0.0243
27702W        W41116   7.539  14.461  15.714 -0.2159 -0.3058  0.2945
27703W        W41117   7.345  11.778   4.806 -0.0257 -0.0703  0.4502
27704W        W41118  14.665   2.667   4.346 -0.1563 -0.1433 -0.1810
27705W        W41119  13.252  10.757  14.604 -0.0406  0.0983  0.2682
27706W        W41120  17.946   9.271  13.048 -0.1450  0.0199 -0.0696
27707W        W41121   7.984   2.965   4.399 -0.0933 -0.2005 -0.0578
27708W        W41122   1.995  18.025  14.993  0.1521 -0.0115  0.0354
27709W        W41123  16.879  14.732   4.907  0.0427 -0.0307  0.0480
27710W        W41124   8.625  14.126  15.685  0.0173  0.6142 -0.2210
27711W        W41125   4.022  12.038   1.334 -0.1794 -0.2153 -0.0348
27712W        W41126   0.425  17.902  14.009  0.2531  0.0971 -0.0494
27713W        W41127   1.014   2.256   2.098 -0.2488 -0.0161 -0.0318
27714W        W41128  12.693  15.653   0.580  0.0128  0.1888  0.3893
27715W        W41129   9.201   9.811  12.173 -0.0208 -0.0924 -0.1223
27716W        W41130  16.079   8.940   5.044 -0.1507  0.2540  0.1682
27717W        W41131   3.745   9.331  12.778 -0.2210  0.0151 -0.0766
27718W        W41132   6.828  12.981   1.461 -0.3339  0.1078  0.1503
27719W        W41133  11.022   9.059  11.432  0.4672  0.0333  0.2818
27720W        W41134  13.265  14.119   4.466  0.0191  0.1314  0.0413
27721W        W41135   7.483   3.173   5.079 -0.1208 -0.1873 -0.2898
27722W        W41136  10.273  11.709  10.657  0.2352 -0.1403  0.0243
27723W        W41137  12.405   6.317  10.706 -0.1614  0.3709  0.0976
27724W        W41138   8.679   6.939  11.012  0.0932  0.1975  0.2348
27725W        W41139  17.072  12.228   4.702  0.1052 -0.1005 -0.0582
27726W        W41140  14.226   7.542   3.868 -0.1398 -0.1717 -0.0781
27727W        W41141  11.848  10.379  13.957  0.1810 -0.0282  0.1305
27728W        W41142   7.584  13.713  16.399 -0.0097 -0.1329  0.1673
27729W        W41143  12.183   4.107  14.166 -0.0282 -0.0262  0.3724
27730W        W41144   0.377   8.822   4.147 -0.3233  0.0924  0.2786
27731W        W41145  16.188  12.745   2.972 -0.1426  0.3629  0.0010
27732W        W41146   4.517  17.546   4.074  0.1134 -0.1732 -0.0477
27733W        W41147  15.873   4.419  10.318  0.1045 -0.0109  0.2365
27734W        W41148   8.317  12.152   1.014 -0.0215  0.0429 -0.1904
27735W        W41149  11.505  10.752   1.128 -0.0991  0.1193 -0.1222
27736W        W41150   3.193   8.845  16.404 -0.0080  0.0737 -0.0961
27737W        W41151   1.046  12.452  11.592 -0.0745  0.0768  0.0635
27738W        W41152  13.687   3.422   0.175  0.1274 -0.0684  0.0663
27739W        W41153   0.491  10.320  13.872 -0.2371 -0.1848 -0.0768
27740W        W41154   5.821  16.084  10.671  0.3555 -0.0900  0.3145
27741W        W41155  17.155   8.638   3.708  0.1617  0.2957 -0.1370
27742W        W41156  14.750  16.284   1.990 -0.0744  0.2286 -0.2245
27743W        W41157   0.635   1.117  15.432 -0.1636 -0.2288 -0.0410
27744W        W41158   1.053  10.703   3.471  0.0550  0.0589 -0.1276
27745W        W41159  15.126   4.034   4.563  0.2629  0.0286 -0.2756
27746W        W41160   3.693   5.757  14.892 -0.1357  0.2241  0.2448
27747W        W41161  10.684  11.980   3.085  0.1257 -0.1317 -0.2246
27748W        W41162  17.220  15.390  14.219 -0.1329  0.0417 -0.2140
27749W        W41163   9.595   4.506   0.200  0.0500 -0.1095 -0.1203
27750W        W41164  16.661   7.117  14.105  0.1670  0.0588  0.1111
27751W        W41165   7.728   6.314  13.331  0.1694 -0.4243 -0.1145
27752W        W41166  17.507  13.976  10.678 -0.1294 -0.1853 -0.1205
27753W        W41167   5.296   3.249  11.033  0.1329  0.1612  0.1373
27754W        W41168   8.379   9.631   3.359 -0.1803  0.1229 -0.1314
27755W        W41169   1.629   9.679   5.446 -0.0841 -0.1571 -0.0064
27756W        W41170  11.981  11.836  14.361 -0.0258 -0.0273 -0.2740
27757W        W41171  12.184  17.844   6.011 -0.1371  0.0971 -0.2345
27758W        W41172  10.664  17.835   1.098  0.3371  0.1814  0.2728
27759W        W41173   7.834   9.358   2.432 -0.0516 -0.2900  0.0113
27760W        W41174  18.117  12.569   3.740  0.0821 -0.1271 -0.2286
27761W        W41175   7.276  10.575  11.981 -0.0821  0.2486  0.1472
27762W        W41176   9.964   2.625   5.946  0.0654 -0.1700 -0.0410
27763W        W41177   5.517   9.602   3.317  0.2763 -0.1173  0.3989
27764W        W41178  15.564  13.691  15.476  0.2895 -0.3006  0.2111
27765W        W41179   4.409  14.577  16.179 -0.0778  0.0589 -0.5928
27766W        W41180   2.211   1.985  14.662  0.0108 -0.0423 -0.0982
27767W        W41181  12.901   1.086   6.602  0.3575 -0.2793 -0.1752
27768W        W41182   4.452  16.191  12.060 -0.1365 -0.2728  0.0446
27769W        W41183  14.121   4.169   4.059  0.0262  0.2874 -0.2627
27770W        W41184   9.812  13.635   2.573 -0.2509 -0.0456  0.1866
27771W        W41185  11.560  11.274  13.460  0.3734 -0.0688 -0.0097
27772W        W41186  18.271   5.242   0.856  0.1877 -0.2711 -0.1166
27773W        W41187   2.454   0.874  13.024  0.4425 -0.1471  0.2887
27774W        W41188   0.418  12.516   2.065 -0.3343 -0.3069  0.3826
27775W        W41189   1.503   5.811  14.092  0.1619  0.2046 -0.2332
27776W        W41190   1.525   3.535  12.927 -0.1200  0.1661 -0.0218
27777W        W41191  11.498  10.142   1.289  0.1464 -0.1398  0.1245
27778W        W41192   9.161  10.145  11.770 -0.0760 -0.0366 -0.2112
27779W        W41193   3.403   2.187   4.978 -0.0703 -0.2370 -0.2053
27780W        W41194   5.484   0.426  14.155  0.0383 -0.1739 -0.0997
27781W        W41195   8.573  12.944  15.278 -0.0575 -0.0367  0.0868
27782W        W41196   2.394  12.636   0.820  0.0413 -0.1296  0.1946
27783W        W41197   7.950  15.707   4.432  0.1396  0.1485 -0.1492
27784W        W41198   0.140  15.919  15.268  0.2457  0.1418  0.1000
27785W        W41199   5.528  12.090   4.991  0.0747  0.1953  0.3272
27786W        W41200   0.616   9.845  15.723 -0.1958  0.0250  0.0442
27787W        W41201  13.236   4.186   3.765 -0.1062  0.1449  0.1695
27788W        W41202   8.051   8.426   1.432  0.1147  0.3471 -0.1457
27789W        W41203  12.920  14.724  12.509  0.1199  0.3949 -0.0082
27790W        W41204   7.250   7.604   1.000  0.1027  0.1960  0.4989
27791W        W41205  17.596   1.128  16.119 -0.0097  0.0406  0.0502
27792W        W41206   4.779   8.759   1.272  0.1623 -0.2462 -0.0518
27793W        W41207  10.549   2.952  10.953 -0.2132  0.1382 -0.0823
27794W        W41208  16.065   9.810   3.054  0.1470  0.0206  0.2573
27795W        W41209  17.106   6.056   2.510 -0.0006  0.4351 -0.3970
27796W        W41210   0.713  15.474  16.186  0.2049 -0.0892 -0.0462
27797W        W41211  13.681  17.287  12.858 -0.0939 -0.0507 -0.0384
27798W        W41212  14.997  11.226   1.434 -0.0733  0.3137 -0.1124
27799W        W41213   6.763   4.265   5.080  0.2737  0.3923  0.1441
27800W        W41214   4.889   3.612  13.605  0.0520 -0.1422  0.1698
27801W        W41215  15.907   3.723   4.232  0.0246  0.0326  0.0991
27802W        W41216   0.419   3.754  12.355 -0.0497  0.0344 -0.0142
27803W        W41217  14.377  12.732   4.306  0.1404 -0.0369  0.0539
27804W        W41218   5.487   3.460   1.592 -0.0035  0.2018 -0.2013
27805W        W41219  11.310   0.580   0.489  0.1579 -0.1385 -0.0170
27806W        W41220   1.946  12.867  15.504 -0.0840  0.4028 -0.0920
27807W        W41221  15.602  14.492  14.439  0.1496 -0.0165 -0.0727
27808W        W41222   3.452   4.638  13.810  0.1501  0.1713  0.0269
27809W        W41223  14.330  16.968  11.782 -0.0549  0.1011  0.2773
27810W        W41224   6.519   8.609  11.307  0.1457  0.1351  0.2983
27811W        W41225   0.048  12.579   1.735 -0.0476 -0.0898  0.2373
27812W        W41226  14.861   9.291   4.195 -0.2160  0.1625  0.0648
27813W        W41227  17.102   4.664   3.651  0.1369 -0.0255  0.0367
27814W        W41228   5.782  12.280   2.234  0.0292 -0.0541  0.1916
27815W        W41229  16.114   2.434   2.167 -0.0908 -0.3315 -0.0377
27816W        W41230  14.215  14.010  11.918  0.0224 -0.1984  0.0494
27817W        W41231   3.734  15.497   4.754  0.2684  0.2368 -0.0361
27818W        W41232  14.451   5.309   4.922 -0.1535  0.0242 -0.0431
27819W        W41233  10.108   4.768   5.384 -0.2599  0.1603 -0.1128
27820W        W41234   5.316  11.561   3.644  0.1553 -0.0984 -0.0795
27821W        W41235   8.440  11.452   4.053 -0.2155  0.1695 -0.2574
27822W        W41236   2.164  14.616  11.393  0.1043  0.3056 -0.1573
27823W        W41237   8.508   1.919   4.743 -0.0504  0.1214 -0.3840
27824W        W41238  17.779   9.055   5.293  0.2377 -0.1934  0.0240
27825W        W41239  14.553  13.050   3.440  0.0890 -0.3014  0.1521
27826W        W41240  14.118   0.402   2.613 -0.1684 -0.1344 -0.0712
27827W        W41241   5.961  11.971  11.943  0.1568 -0.0034 -0.1375
27828W        W41242   8.378   3.068   2.819 -0.3956  0.1665  0.1288
27829W        W41243   9.224   4.838  12.519 -0.3356 -0.2378  0.5733
27830W        W41244  15.689  13.444   2.330 -0.1759  0.3200 -0.2374
27831W        W41245  18.027  18.084   4.283 -0.0920  0.1454 -0.3766
27832W        W41246  17.386  10.573  11.797  0.0176  0.2513  0.2375
27833W        W41247  15.802   1.759   0.252 -0.0596 -0.3300 -0.2436
27834W        W41248  14.971  15.413  13.088 -0.2208 -0.0656 -0.2379
27835W        W41249  10.234  14.757   2.451 -0.3167 -0.3802 -0.0385
27836W        W41250  15.853   2.737   4.064  0.1184  0.2780  0.0104
27837W        W41251   8.645  10.824  14.216  0.0302 -0.0971  0.0235
27838W        W41252   4.929  17.951   3.436  0.1289  0.0035 -0.2474
27839W        W41253  14.611   1.291  12.171 -0.0801 -0.2388 -0.1778
27840W        W41254   1.663   2.634   3.658  0.2857 -0.2920 -0.0375
27841W        W41255   1.542  10.432   5.269  0.0015  0.1037 -0.1813
27842W        W41256   7.254  18.152   4.484  0.0564 -0.0499  0.0248
27843W        W41257  11.141  13.521  13.042  0.0435  0.0048 -0.1444
27844W        W41258   9.976   9.138   2.636  0.3183 -0.1355 -0.1954
27845W        W41259   4.051  13.635   0.350  0.0803  0.1612 -0.1383
27846W        W41260  17.903   0.579   1.611 -0.3073 -0.0257 -0.1088
27847W        W41261   8.222  13.458  11.002 -0.1499  0.0147 -0.3215
27848W        W41262   2.352   6.033  10.097  0.0360 -0.0289 -0.3236
27849W        W41263   2.208   9.199   3.377  0.2832 -0.2082 -0.0184
27850W        W41264  14.799   7.411  10.601 -0.0410  0.0201 -0.3437
27851W        W41265   5.706   2.692  14.065  0.0139 -0.2830  0.1806
27852W        W41266  11.603  16.734  15.515 -0.0009 -0.3693  0.0670
27853W        W41267  16.561  13.641   7.066  0.1199  0.3341  0.0819
27854W        W41268  14.471  11.104   4.350 -0.1625  0.4625 -0.1356
27855W        W41269  14.177  14.593  15.622 -0.0273 -0.1013  0.2598
27856W        W41270   1.694  17.553  15.031  0.0341 -0.1430 -0.0897
27857W        W41271  16.848   2.152   2.404  0.1054 -0.5145  0.0135
27858W        W41272   8.982   5.413   3.403  0.1186  0.3115 -0.1048
27859W        W41273   1.683   2.052  14.808  0.2340  0.0967 -0.2860
27860W        W41274   4.126  10.628   4.755 -0.0831 -0.0899  0.1944
27861W        W41275   2.938   7.187  14.176 -0.1136  0.1361 -0.1147
27862W        W41276   0.121   3.748  15.284 -0.0523 -0.0689  0.1014
27863W        W41277  16.824   1.553   3.645 -0.3343  0.0934 -0.2324
27864W        W41278   7.652  14.154   2.390  0.1267 -0.1266  0.0137
27865W        W41279   2.419  16.992   4.229 -0.2219 -0.1892 -0.1429
27866W        W41280   1.951   2.710   4.950 -0.1865 -0.0051 -0.0218
27867W        W41281   6.269   3.614   2.171  0.2743 -0.0465  0.0432
27868W        W41282  14.620   4.636   1.640 -0.0653  0.1655 -0.0705
27869W        W41283  13.679   5.709   3.447 -0.0136  0.2132 -0.3252
27870W        W41284   1.102  10.823  15.348  0.1211 -0.1917  0.0372
27871W        W41285   1.149   2.597   2.555 -0.1580  0.3244  0.1003
27872W        W41286  16.562   6.741   0.384  0.2726 -0.2188  0.0241
27873W        W41287   8.746  10.990   4.282 -0.1684 -0.0622 -0.0681
27874W        W41288  15.630   6.141   5.280  0.5570 -0.5040  0.1052
27875W        W41289  15.705  17.522  16.398  0.0768 -0.1372  0.0528
27876W        W41290   4.916  12.863  11.462 -0.0445  0.0372  0.1298
27877W        W41291  10.478  12.373  13.346 -0.2089 -0.0494  0.0205
27878W        W41292  13.402   0.973  14.227 -0.1984  0.0433  0.1319
27879W        W41293   9.636  13.031  15.610 -0.1817  0.0837  0.1782
27880W        W41294  12.610   3.080  12.537  0.1645 -0.1968  0.2998
27881W        W41295  13.070   6.783   2.370 -0.0094 -0.3968  0.0055
27882W        W41296  15.385  17.777   2.598  0.2409 -0.1068 -0.0578
27883W        W41297  10.037  10.189  16.247 -0.0418 -0.0161  0.0960
27884W        W41298   4.579   9.783  14.882  0.1199 -0.2404  0.1196
27885W        W41299   3.406   3.296  13.217 -0.0019 -0.3110 -0.0125
27886W        W41300   5.734  15.616   3.960 -0.1824 -0.1025  0.3666
27887W        W41301   3.147   0.635  13.679 -0.0013  0.0823  0.1574
27888W        W41302   4.594   7.378  16.192 -0.0090 -0.0570 -0.0922
27889W        W41303   2.229   8.576  12.150  0.0916 -0.2906 -0.1160
27890W        W41304   5.002   1.224  12.833 -0.0157  0.1019  0.1175
27891W        W41305   6.731   7.268   1.016 -0.1116  0.0246  0.2307
27892W        W41306   8.074  14.792   2.216  0.0319 -0.3828  0.3668
27893W        W41307  16.120  11.893   1.730 -0.2225 -0.0216  0.0781
27894W        W41308  16.876   1.255   0.467  0.2726 -0.0114 -0.1727
27895W        W41309   4.473  15.026  12.128 -0.0448  0.0429 -0.2575
27896W        W41310   6.758   4.936   0.384 -0.1390 -0.1311 -0.3081
27897W        W41311  18.153  17.352  13.433  0.0557 -0.0844 -0.3422
27898W        W41312   8.897   3.271   4.169  0.0165  0.0447  0.3821
27899W        W41313  18.395  17.879  15.374  0.2318 -0.0228 -0.2460
27900W        W41314  15.989  15.200  13.690 -0.0034  0.2262 -0.1850
27901W        W41315   4.696   1.515   1.750 -0.0766  0.3449 -0.1184
27902W        W41316   7.119   3.990   2.762  0.1385  0.1819 -0.0504
27903W        W41317   7.285   9.211  10.971 -0.3134  0.1345  0.1483
27904W        W41318  12.294   4.299   3.253  0.3153  0.2554  0.1879
27905W        W41319   6.815   8.960  16.110  0.0559  0.0107 -0.0502
27906W        W41320  12.632  17.648  16.223 -0.2685  0.0210 -0.2965
27907W        W41321   3.179   9.782   2.537 -0.2795  0.2026 -0.0688
27908W        W41322   7.049  14.116  14.360  0.2089 -0.1449 -0.0343
27909W        W41323  15.087  10.048   5.553  0.0898  0.0684  0.1607
27910W        W41324   0.609   5.218  15.843  0.4578 -0.2398 -0.0937
27911W        W41325   0.047  16.040   4.193  0.1649  0.2827 -0.0992
27912W        W41326   1.561  16.432  15.623 -0.1251 -0.1609  0.1042
27913W        W41327   9.071  14.702  14.219 -0.0112  0.1006 -0.0802
27914W        W41328   6.262   5.578  16.507 -0.3407 -0.2001  0.2399
27915W        W41329   4.213  11.349  10.589  0.1089 -0.1276  0.2070
27916W        W41330   1.044  16.984   6.154 -0.0586 -0.1292  0.0437
27917W        W41331   8.633   7.961  11.039  0.1199  0.3166  0.2784
27918W        W41332  16.175   7.733  13.124 -0.0760 -0.4057 -0.3507
27919W        W41333   9.780   2.478   4.703 -0.1016  0.1575 -0.1505
27920W        W41334   4.366   0.883  12.878 -0.1189 -0.1719  0.1543
27921W        W41335  16.428   5.219   2.579 -0.2332 -0.2963 -0.0823
27922W        W41336  15.459   9.716   5.371  0.1153  0.0239 -0.2908
27923W        W41337  14.024   3.628   2.549  0.0286 -0.2147 -0.3761
27924W        W41338   8.906  10.960   3.784 -0.0725 -0.0520  0.0444
27925W        W41339  17.900   1.179   4.366 -0.2466  0.0744 -0.0393
27926W        W41340   1.071   0.581   2.289 -0.2349  0.1689  0.2846
27927W        W41341  15.489  14.563   2.738  0.0953  0.4111  0.1001
27928W        W41342   5.760   1.088   4.113 -0.1806  0.1046  0.2326
27929W        W41343  13.872   8.149   1.308  0.0022 -0.1544 -0.2002
27930W        W41344  12.108   3.015  16.300 -0.0852 -0.0668 -0.0837
27931W        W41345   3.200  11.529   5.489  0.0054  0.3179 -0.1449
27932W        W41346   9.415  14.233  13.161  0.3012  0.1062 -0.0079
27933W        W41347  14.548   7.397  11.061  0.2736 -0.1307 -0.2572
27934W        W41348  15.357  11.597   5.190 -0.1685 -0.2266 -0.1903
27935W        W41349   9.101   3.846  15.832  0.0349 -0.0008 -0.3430
27936W        W41350  10.111   2.845  12.472 -0.2191 -0.1757  0.1231
27937W        W41351   0.472   6.858  11.733  0.5762 -0.3918  0.0749
27938W        W41352   9.399  14.210  15.132  0.1811 -0.0743  0.1356
27939W        W41353   5.780  14.751   2.223  0.1162 -0.1682  0.1513
27940W        W41354  13.266   7.573   2.387  0.1978  0.0848 -0.2009
27941W        W41355  15.563   5.136  14.402 -0.2510  0.1394  0.3926
27942W        W41356  18.047  18.110  14.704 -0.1523 -0.0848  0.0811
27943W        W41357   1.871   1.799  16.038 -0.3313 -0.1913 -0.3579
27944W        W41358   3.242   3.056   3.906  0.0891  0.1222 -0.0986
27945W        W41359  10.058   7.279  16.393 -0.1880  0.0174 -0.0368
27946W        W41360  13.513   4.447   2.691 -0.2970 -0.1609  0.2683
27947W        W41361   2.335   9.422   2.444  0.2444 -0.0980  0.0156
27948W        W41362  10.112  12.398   3.341  0.0775  0.1113 -0.0980
27949W        W41363  18.217  10.016  11.725  0.0548  0.0427 -0.1642
27950W        W41364   1.906  12.406   2.364 -0.2073 -0.1285 -0.0912
27951W        W41365   1.132   5.958  12.976 -0.4494 -0.0273 -0.0855
27952W        W41366   0.581  10.013   0.835  0.0242 -0.0785 -0.0496
27953W        W41367  16.523  13.145   2.939  0.1396  0.0250  0.2197
27954W        W41368  16.744   6.432  11.514 -0.0150  0.2255  0.0503
27955W        W41369   5.595   9.045   6.317  0.0330 -0.2136 -0.1470
27956W        W41370   6.560   0.796   9.904 -0.1438  0.2170 -0.0420
27957W        W41371  18.110   3.488  12.674  0.0212 -0.0403 -0.1198
27958W        W41372   0.176  13.631   1.867  0.2074  0.0288  0.1488
27959W        W41373   8.282  17.991  11.951 -0.2235 -0.2622 -0.0524
27960W        W41374  15.539   2.867  15.633 -0.4962 -0.1383  0.0361
27961W        W41375   3.504  10.928   4.426  0.0377 -0.1893  0.1113
27962W        W41376  16.448   0.274  15.017 -0.3293  0.1144 -0.0300
27963W        W41377   0.790  13.649  13.378  0.1796  0.0156 -0.1142
27964W        W41378  10.621  12.249   5.185  0.1405 -0.1956  0.0773
27965W        W41379  16.524  16.843  10.595 -0.0117  0.0737  0.3911
27966W        W41380   1.064   9.834  10.797  0.0170  0.4441 -0.2376
27967W        W41381  12.503   7.280  10.674  0.2792 -0.1119 -0.3477
27968W        W41382   1.035   6.035  10.612 -0.3483 -0.2672  0.0517
27969W        W41383   8.117   7.937   1.394 -0.0689  0.0756 -0.0980
27970W        W41384   4.263   4.827  15.650  0.2860 -0.2144  0.0978
27971W        W41385  15.816   3.132  16.093  0.2369 -0.2042 -0.0755
27972W        W41386   2.012   5.259   1.996  0.1432  0.0895  0.0889
27973W        W41387  16.373   0.874  13.530  0.1433 -0.0789 -0.2431
27974W        W41388  12.777   4.805  10.974  0.3003  0.1680 -0.1333
27975W        W41389  15.166   2.956  12.991 -0.0647 -0.0974 -0.0307
27976W        W41390   5.512  10.576  15.663 -0.0033  0.0203 -0.0516
27977W        W41391   3.221  14.697  14.422 -0.2114 -0.2547 -0.1345
27978W        W41392   9.769  17.210   5.420 -0.2643 -0.0311  0.0044
27979W        W41393   9.839  15.400  12.097 -0.0214  0.1848  0.1372
27980W        W41394   3.928   7.691  14.657  0.1325 -0.0419 -0.0356
27981W        W41395   5.544   8.487  16.133  0.0032  0.0572 -0.0959
27982W        W41396   5.284  17.627  14.847 -0.3499  0.2484 -0.2330
27983W        W41397  17.047  11.983  11.745  0.3117 -0.1995 -0.4123
27984W        W41398   2.396  15.404   6.603  0.2790 -0.1187 -0.3360
27985W        W41399  14.424   7.582   1.142  0.0806  0.0419 -0.0053
27986W        W41400   3.331  13.625  15.379  0.0854  0.0673 -0.0369
27987W        W41401   8.295  12.805  14.076 -0.2943 -0.1721 -0.2693
27988W        W41402  16.246   0.328   5.999 -0.1701  0.0367 -0.1524
27989W        W41403  15.949  10.653   3.935 -0.0753  0.0165  0.0242
27990W        W41404  10.833  14.792  10.741 -0.1444  0.1328  0.0225
27991W        W41405  16.123   4.518   0.464  0.1085  0.0502 -0.1829
27992W        W41406  13.678  16.393   0.961 -0.0993 -0.1354  0.2246
27993W        W41407  17.960   0.653  13.582 -0.1429  0.1735 -0.0212
27994W        W41408  18.191  17.801  15.893 -0.0107  0.0516 -0.2617
27995W        W41409  10.039  14.491   1.502  0.0620  0.0764  0.3364
27996W        W41410   2.034   2.364   6.062 -0.2650  0.3081 -0.3532
27997W        W41411   6.144   8.978  10.439 -0.0892 -0.0251 -0.1839
27998W        W41412   6.400  17.494  15.966 -0.0387  0.4607  0.1224
27999W        W41413   7.640   8.910   3.736 -0.1958  0.0208 -0.1074
28000W        W41414  11.215  15.741  16.087  0.1927  0.0981 -0.0280
28001W        W41415  14.354  14.664  14.636 -0.2665 -0.3570  0.1921
28002W        W41416  16.084   0.917  13.966 -0.0363  0.1321  0.1798
28003W        W41417  18.357  16.287  14.467 -0.1310 -0.2501 -0.3453
28004W        W41418  10.146   1.649  14.206  0.0052  0.3268 -0.0833
28005W        W41419  12.454  17.288   1.065  0.1195  0.1246  0.0409
28006W        W41420   1.391   2.304   0.681  0.0576  0.0987 -0.1368
28007W        W41421   6.591  15.749   1.793  0.2631  0.1412  0.1012
28008W        W41422   8.046   0.399   5.358 -0.1312 -0.0661 -0.0661
28009W        W41423  13.409  16.276   3.252  0.3924  0.0961  0.0349
28010W        W41424   3.563   4.579  11.699 -0.0132 -0.3552 -0.1359
28011W        W41425  16.142  16.971   4.163  0.0406  0.0537  0.0601
28012W        W41426  13.573  11.289   2.791 -0.0171 -0.0454  0.0736
28013W        W41427  16.002   1.687  14.062 -0.2550 -0.1979  0.0191
28014W        W41428   6.348   3.839   4.775 -0.0462  0.2709  0.1317
28015W        W41429   1.210   7.168   3.092 -0.1344  0.4867 -0.2229
28016W        W41430   8.920  13.675   0.147 -0.2744 -0.1410  0.2659
28017W        W41431  17.973  17.959   5.056  0.3068  0.0001 -0.0223
28018W        W41432   7.320  11.341   2.905 -0.2028  0.1832  0.2213
28019W        W41433   7.706  10.419  14.479  0.2172 -0.0347 -0.1180
28020W        W41434   1.602   1.551  14.554 -0.1060 -0.5594 -0.1132
28021W        W41435  12.354  12.781   0.129 -0.0489  0.1118 -0.1690
28022W        W41436   2.663   5.407  14.592  0.0612 -0.1450  0.1464
28023W        W41437   9.832   2.037   5.322  0.0327  0.0376 -0.3549
28024W        W41438  11.415  15.629  13.388  0.0555  0.1215 -0.2623
28025W        W41439   2.143  11.358  11.023 -0.0649  0.3309 -0.0429
28026W        W41440  17.179   9.081  14.336  0.3695  0.3727  0.0068
28027W        W41441  17.905  12.690  13.857  0.0036  0.1915  0.0275
28028W        W41442  12.470  16.679   1.671  0.1669  0.2085  0.1161
28029W        W41443  16.507   8.056   3.549  0.2749 -0.1151  0.0431
28030W        W41444  13.522  17.133  15.005 -0.1178 -0.1349  0.3273
28031W        W41445  14.098   7.609  10.893 -0.1287  0.1423  0.0123
28032W        W41446  12.398  16.990   0.062  0.1197 -0.2456  0.0444
28033W        W41447   9.447   1.269   3.473  0.2887  0.2293 -0.0730
28034W        W41448  14.483   9.269   2.595 -0.1030  0.1771 -0.0540
28035W        W41449   5.036   5.383   4.001 -0.1812  0.0212 -0.0341
28036W        W41450  17.728   7.553  15.309  0.0647  0.2424  0.0732
28037W        W41451   5.347   8.275   0.586  0.1637 -0.1453  0.3610
28038W        W41452   3.656   7.071   0.866  0.0092  0.0287 -0.3192
28039W        W41453   0.105  14.935   4.237  0.0954 -0.3017 -0.0420
28040W        W41454  15.304  15.231   2.104  0.0674  0.0984  0.0643
28041W        W41455   2.496   5.264   0.656  0.0435 -0.0459 -0.0256
28042W        W41456  16.295   7.133   3.775  0.0890  0.2394  0.1031
28043W        W41457  11.208  18.190  15.117 -0.0308  0.0361  0.0692
28044W        W41458  15.227   6.583  15.278  0.1415  0.5821  0.2639
28045W        W41459   6.349   6.885  13.025 -0.3303  0.0283  0.1522
28046W        W41460  12.019   8.018   6.155 -0.2156 -0.0285  0.0529
28047W        W41461   3.453   8.415  14.421 -0.1051 -0.0787 -0.1789
28048W        W41462   2.338  10.383  15.612  0.0377 -0.1131  0.0055
28049W        W41463  17.941  12.777  11.332 -0.2578  0.0295  0.4612
28050W        W41464   6.193  16.461  13.290  0.0930 -0.2424  0.1767
28051W        W41465  15.970  11.775  12.896 -0.2068 -0.1355 -0.1506
28052W        W41466   8.290  12.485   5.038  0.4530 -0.3711 -0.0499
28053W        W41467  10.557  13.038  12.318 -0.1743 -0.2431 -0.5051
28054W        W41468   5.317   5.323   9.498 -0.0037  0.2110  0.2713
28055W        W41469   9.209  12.954  14.318  0.1156  0.2444 -0.1038
28056W        W41470  18.055   0.704  12.749  0.0081  0.0809  0.3696
28057W        W41471   7.962  18.359   5.053 -0.0571 -0.2781 -0.2495
28058W        W41472   9.175   8.704  14.418  0.1331 -0.0424  0.2068
28059W        W41473   2.558   8.979   5.272  0.0873 -0.1147  0.0994
28060W        W41474   9.329   8.111   2.030 -0.1868  0.1721 -0.1218
28061W        W41475   4.040   6.191   3.767 -0.1783 -0.1573  0.0103
28062W        W41476   1.452  16.349   5.920  0.0092  0.1589  0.4183
28063W        W41477  13.743   8.858  14.269  0.2793  0.1299 -0.2349
28064W        W41478   3.320   7.280   3.490 -0.2283 -0.0127 -0.3464
28065W        W41479  10.785  11.624  10.633  0.2065 -0.0937 -0.0797
28066W        W41480   9.076  13.059  11.708 -0.3154 -0.1658 -0.0245
28067W        W41481  13.438   4.613  14.507 -0.1564  0.1807 -0.0347
28068W        W41482  15.302   6.056  16.499  0.1505 -0.0576 -0.2352
28069W        W41483   6.349  16.931   3.046  0.0191  0.0495 -0.0511
28070W        W41484  13.803  17.677   6.797 -0.0233 -0.2909 -0.2618
28071W        W41485  13.004   7.008   5.569 -0.0405 -0.0551 -0.0795
28072W        W41486   9.826   6.558  10.741 -0.4610  0.3481 -0.0886
28073W        W41487  13.737   8.529  14.701 -0.1221 -0.2638 -0.0190
28074W        W41488   1.970   1.738   5.285  0.1643 -0.0814 -0.0854
28075W        W41489  12.247   5.769  15.000 -0.0493  0.1120  0.1270
28076W        W41490  10.047  16.783   1.495  0.0836  0.0175  0.1042
28077W        W41491  14.373  11.209  13.906  0.2912 -0.0301  0.2290
28078W        W41492   7.839   0.751  14.901 -0.2589 -0.1316  0.0068
28079W        W41493   7.054   7.838   2.191  0.2222  0.1840 -0.0801
28080W        W41494   7.012   6.540  15.836 -0.0912 -0.1150 -0.3565
28081W        W41495   4.208   1.084  15.384 -0.3222 -0.0956 -0.0340
28082W        W41496  14.162   2.890   4.604  0.0837  0.0686  0.1752
28083W        W41497  14.662  16.139   5.290  0.1838 -0.0061 -0.3203
28084W        W41498  14.924  18.062  12.504  0.4841 -0.2880  0.1143
28085W        W41499   4.931   3.877   0.126 -0.0555  0.0958  0.2783
28086W        W41500   8.643   5.047  15.503  0.1616  0.2012  0.1987
28087W        W41501  10.131  15.453   4.901  0.2234 -0.0964  0.1394
28088W        W41502   0.021  16.230   1.150  0.0177 -0.0441 -0.3389
28089W        W41503   4.834   6.271   4.103  0.0496 -0.2462 -0.0251
28090W        W41504  16.986  17.697   0.609  0.1309  0.2739 -0.0345
28091W        W41505   4.676   4.928  15.198  0.0258  0.2478  0.0204
28092W        W41506   0.462  11.301  13.885  0.3655  0.0814  0.1396
28093W        W41507  14.894  14.935   4.366  0.0976  0.0841 -0.0727
28094W        W41508  15.598   5.066  11.322  0.1194 -0.1955  0.0613
28095W        W41509   1.355  12.928  11.787  0.1003  0.2063 -0.1722
28096W        W41510   1.562   0.709  11.981 -0.2042 -0.0609 -0.0778
28097W        W41511  10.985   2.216   0.860  0.3150  0.0767  0.1304
28098W        W41512  11.731   2.568  13.113 -0.1996  0.2784  0.0796
28099W        W41513  12.998   2.381   0.939  0.3595  0.0946  0.0093
28100W        W41514   8.619   7.836  10.226  0.0553 -0.2224 -0.2509
28101W        W41515   6.045   3.098  11.412 -0.1346  0.2742  0.1531
28102W        W41516   1.942  14.189  13.685  0.1249  0.0088 -0.2095
28103W        W41517   4.838   1.562   2.991 -0.2442  0.0686 -0.1683
28104W        W41518  10.287  11.489   1.501  0.2811 -0.3344  0.1753
28105W        W41519   3.268   1.205  12.225 -0.0934  0.1702 -0.1912
28106W        W41520  16.489   0.562   0.256 -0.3156  0.3196  0.0378
28107W        W41521  13.656   7.766  10.097  0.0936  0.0805 -0.0788
28108W        W41522   5.319   4.861   0.915  0.0727  0.2933  0.3420
28109W        W41523  15.115   5.275  14.280  0.1788 -0.0542 -0.0202
28110W        W41524   8.519   2.661  16.448  0.0200 -0.3016  0.0713
28111W        W41525  15.973   6.812  14.819  0.0881 -0.0360 -0.1010
28112W        W41526   1.340  14.840   2.118  0.0071 -0.1195 -0.1894
28113W        W41527   7.319   1.827  12.341  0.0221  0.1722  0.2068
28114W        W41528  16.044   3.701   2.529 -0.3974  0.1617  0.1358
28115W        W41529   5.708  12.719  14.416  0.3081  0.1991 -0.0079
28116W        W41530   5.128   6.050  15.579  0.0513 -0.1787  0.1561
28117W        W41531   9.008   3.055  12.236  0.0708 -0.0972 -0.2186
28118W        W41532   3.072   9.568   3.710  0.0861 -0.0731 -0.0141
28119W        W41533   6.559   8.742   1.834 -0.0668  0.1483  0.0606
28120W        W41534  16.812  13.767   2.045 -0.1758 -0.0728 -0.0690
28121W        W41535   6.790   9.948   0.785 -0.1316 -0.1712  0.2283
28122W        W41536  17.530   0.515   3.272  0.1278  0.1953 -0.1800
28123W        W41537  13.363   2.789   3.613  0.2098  0.0405  0.1052
28124W        W41538   5.425   0.279   4.030 -0.0904  0.1019 -0.0030
28125W        W41539  18.387   1.433   1.302 -0.0159 -0.0824 -0.1216
28126W        W41540  13.920   3.819  10.050  0.0303 -0.2309  0.0698
28127W        W41541  17.907   2.106   3.886 -0.0836  0.0897  0.0327
28128W        W41542   0.022   6.802  15.809  0.2513  0.0595 -0.0927
28129W        W41543   2.963  13.053  10.522 -0.1886  0.0154  0.1759
28130W        W41544  18.006  10.637   1.674  0.0914  0.0933  0.3283
28131W        W41545   7.288   3.997  10.938  0.0471  0.1150  0.1114
28132W        W41546   3.012   6.184   0.464 -0.2580  0.0880 -0.0356
28133W        W41547   6.670   1.944  12.211  0.1536 -0.1159 -0.1074
28134W        W41548  13.946   2.236   4.767  0.1143 -0.0309 -0.0480
28135W        W41549  12.864   0.572  14.500  0.3292  0.1544  0.0791
28136W        W41550   7.300   6.705  15.440  0.0938 -0.1515 -0.1441
28137W        W41551  13.402  12.712   0.248  0.0199  0.2586 -0.1019
28138W        W41552  13.631  14.371  14.034  0.0329 -0.1064 -0.1117
28139W        W41553   6.619   1.004   5.660  0.1285  0.0198 -0.0255
28140W        W41554   0.834  12.869  13.845 -0.1520  0.1409  0.0586
28141W        W41555   6.085   8.849   6.408  0.0551  0.1106 -0.1219
28142W        W41556  10.718   8.238   2.529  0.1494  0.3179  0.0081
28143W        W41557  16.038  13.852  13.353  0.1647  0.2556 -0.5213
28144W        W41558   6.289  13.392  14.650 -0.0386  0.0603  0.0646
28145W        W41559  17.556   7.325  11.679 -0.1306 -0.1129 -0.0746
28146W        W41560  10.263  10.762   9.611 -0.1292  0.4078  0.1424
28147W        W41561  10.487  12.703   5.000  0.2713  0.2378 -0.0031
28148W        W41562  16.696   7.861  14.809 -0.1910  0.1883 -0.1133
28149W        W41563   0.811   5.117   2.320 -0.2447  0.2879  0.1823
28150W        W41564  17.640   1.405   2.026  0.1697  0.1914  0.0061
28151W        W41565   5.385  11.469  15.035  0.2213  0.0022 -0.0570
28152W        W41566  18.231  10.641   0.925  0.2734  0.0538 -0.1336
28153W        W41567   1.501   2.122   3.696  0.0802  0.2506  0.0342
28154W        W41568  13.424   6.775  12.751  0.1492  0.2819 -0.2069
28155W        W41569  12.204   3.890  16.125 -0.0394  0.1660 -0.0215
28156W        W41570  17.468  10.573  14.399  0.0344  0.2247  0.3549
28157W        W41571  11.276   9.403   0.343 -0.2175  0.2160  0.1575
28158W        W41572   6.856  11.649   4.638 -0.3970  0.1151 -0.2231
28159W        W41573  13.227   4.275  10.637 -0.1059 -0.0405 -0.1842
28160W        W41574  12.946   0.230  12.402  0.0414 -0.2570 -0.1665
28161W        W41575   5.783  14.797  14.851  0.1291  0.2715  0.0486
28162W        W41576  11.689   3.099   1.423 -0.0963  0.0808 -0.2159
28163W        W41577   5.035   5.284  15.106 -0.0300 -0.0691  0.0008
28164W        W41578   4.845   0.849  14.280  0.0020  0.0419  0.1283
28165W        W41579  18.392  11.352   4.001 -0.0139  0.2502 -0.0289
28166W        W41580   0.534   5.712   5.957  0.0611 -0.0614 -0.0088
28167W        W41581  17.020  15.306   4.988 -0.0129 -0.1383  0.1137
28168W        W41582  14.213  10.176  14.309  0.1816  0.0949 -0.1451
28169W        W41583  14.958  12.614   5.218  0.2868  0.3442 -0.2245
28170W        W41584   8.908   8.168   1.119  0.0333 -0.4160 -0.1730
28171W        W41585   7.701   1.396   5.060 -0.2827 -0.1346  0.0330
28172W        W41586   5.114  16.293  15.428  0.2946  0.2291 -0.0930
28173W        W41587   5.547  18.289   5.021  0.0653  0.2056 -0.0845
28174W        W41588   8.572   8.510  12.341 -0.2593  0.0809 -0.1499
28175W        W41589  14.541  15.666   2.865 -0.2738  0.2203 -0.4971
28176W        W41590  11.803   2.623  11.043 -0.0830 -0.1095  0.1436
28177W        W41591   9.897   9.680  12.856 -0.1470 -0.1043 -0.0788
28178W        W41592   5.256  12.699  16.028 -0.0317 -0.2282  0.0221
28179W        W41593   1.746  12.706   0.374  0.3618 -0.0498  0.0849
28180W        W41594   3.363  11.671   3.906 -0.1485  0.1700  0.5584
28181W        W41595  14.199   8.003   2.948 -0.1840 -0.0942 -0.2491
28182W        W41596   3.212  10.169   0.904  0.0552 -0.1854  0.0600
28183W        W41597  13.557   7.719   1.470 -0.1724  0.1899  0.4675
28184W        W41598   3.758   5.198  11.615 -0.2258 -0.1982  0.4270
28185W        W41599  14.061   5.669  12.102  0.0512 -0.0006  0.0007
28186W        W41600  17.948  18.057  14.249 -0.0636 -0.3352  0.0100
28187W        W41601   4.643   1.329  13.145  0.3074 -0.3052 -0.1952
28188W        W41602  17.621   3.293   5.400  0.0876 -0.2505  0.1178
28189W        W41603  13.389  12.236  15.545  0.1993 -0.0197 -0.1703
28190W        W41604   3.389   6.526   2.475  0.0689  0.3173  0.2518
28191W        W41605   3.079  16.076  13.324 -0.0321 -0.1656 -0.0369
28192W        W41606   4.326  10.249   3.411  0.1882 -0.0601 -0.4814
28193W        W41607   8.305   1.015   2.320 -0.0683 -0.1016  0.2161
28194W        W41608   7.971   0.164   2.453  0.2057 -0.0389  0.3323
28195W        W41609  15.675   1.529  15.815 -0.3757  0.0262 -0.1132
28196W        W41610   8.381  14.407  12.273 -0.0095  0.0151 -0.0688
28197W        W41611   5.533  15.844   6.322 -0.2928  0.0154 -0.1211
28198W        W41612  13.447   9.981  12.990  0.0035 -0.3115  0.0267
28199W        W41613   8.161  11.058   4.377 -0.2586  0.2665 -0.2019
28200W        W41614   4.531   0.700   4.429  0.0956 -0.1576  0.3815
28201W        W41615   6.742   0.002   0.482  0.3051 -0.0622 -0.1457
28202W        W41616   0.046   2.865  15.303  0.0070  0.1580  0.0428
28203W        W41617  13.109   4.861  14.849  0.0249  0.1052  0.0847
28204W        W41618   5.456   7.760   4.955 -0.0008 -0.1658 -0.4070
28205W        W41619  10.101  11.420   3.003  0.0781 -0.2085 -0.1095
28206W        W41620   0.606  17.719   0.358 -0.1591  0.0690  0.0225
28207W        W41621   9.542   3.835   2.083 -0.1743 -0.1185  0.1365
28208W        W41622  17.227  10.992  11.557  0.0212 -0.1527 -0.0207
28209W        W41623  11.231  15.117  10.709 -0.2569 -0.0808 -0.0199
28210W        W41624   2.076   3.826   1.914  0.0166  0.4351  0.0201
28211W        W41625   5.725  17.536   4.899 -0.1840 -0.0835 -0.2601
28212W        W41626   1.166  12.608  14.306 -0.2846  0.0738  0.2310
28213W        W41627   9.649   6.066  11.998 -0.2982  0.0157 -0.0343
28214W        W41628   4.232   7.827  15.548 -0.1491  0.1242  0.1441
28215W        W41629   5.933   7.229   5.107  0.3378  0.0017  0.2897
28216W        W41630   4.313  11.038   6.133 -0.1944  0.1245  0.1359
28217W        W41631  13.358   4.139  12.033 -0.0313 -0.1779 -0.0004
28218W        W41632   1.639  17.467   3.473 -0.1125  0.1532 -0.0774
28219W        W41633  15.721   3.459   2.806  0.0252 -0.0835 -0.2367
28220W        W41634  13.905  12.900   4.217 -0.5180  0.0889 -0.1561
28221W        W41635   1.198   7.004   9.752  0.0412  0.0762 -0.0509
28222W        W41636   4.277   8.952  11.171 -0.2756  0.1176  0.1876
28223W        W41637   0.011   2.685  13.750 -0.4894  0.2886 -0.2068
28224W        W41638   5.400   4.622   0.481  0.1409  0.4565  0.0486
28225W        W41639  15.733   4.237  12.132 -0.1341 -0.0646  0.0146
28226W        W41640  13.295  16.266  14.400 -0.1027 -0.0601 -0.2418
28227W        W41641  10.923   1.659   2.875 -0.2777  0.0665  0.2530
28228W        W41642  10.577   8.982   1.141  0.1428  0.1180 -0.0835
28229W        W41643  16.858   0.771  11.138 -0.1549  0.1819  0.2038
28230W        W41644  16.503  14.162  11.411  0.0281 -0.1226 -0.1849
28231W        W41645   3.723   7.510  16.326 -0.1232 -0.0454  0.0612
28232W        W41646  13.530   3.870   1.915  0.1538 -0.2178  0.3394
28233W        W41647  11.941  16.616   3.072  0.0128  0.0089 -0.0321
28234W        W41648   6.266   7.799   0.100 -0.1647 -0.0440  0.4088
28235W        W41649  17.767  14.890   7.254 -0.1180 -0.1723 -0.0527
28236W        W41650   6.343  18.114   0.520 -0.2943 -0.2461  0.2260
28237W        W41651   5.842  10.163   0.444 -0.2192  0.1299  0.2229
28238W        W41652  17.420   5.324   1.198  0.1444 -0.4042 -0.2327
28239W        W41653   1.395   6.334   4.663  0.1192 -0.1579 -0.1622
28240W        W41654   3.752   0.920   1.380 -0.4248  0.1687  0.2060
28241W        W41655   1.311  15.050  12.399  0.1246  0.1010 -0.0756
28242W        W41656  17.868  15.493   1.816 -0.1666 -0.0143 -0.2345
28243W        W41657  14.786  11.622   0.596  0.0368 -0.2279 -0.2534
28244W        W41658   0.046  14.572  14.234  0.2277  0.1734 -0.0490
28245W        W41659   3.526  17.334   3.010 -0.1778  0.2490  0.0636
28246W        W41660   4.852  13.367  11.296 -0.1450  0.0000 -0.0839
28247W        W41661   6.240   2.936   5.019 -0.2728  0.2132  0.1228
28248W        W41662  10.923   8.950   3.760  0.1354  0.0395 -0.2133
28249W        W41663   2.430  10.983  10.908 -0.0149  0.0213  0.0395
28250W        W41664  10.088  13.088   2.340 -0.1033 -0.0043  0.2125
28251W        W41665   1.673  13.626   4.230  0.0670 -0.0214 -0.0572
28252W        W41666  15.837   6.801   1.038  0.0750 -0.0557  0.1675
28253W        W41667   7.478   3.015  15.463  0.0895 -0.0285  0.2186
28254W        W41668  10.512   0.401   5.047 -0.1581  0.1204  0.1796
28255W        W41669   5.124   0.868  12.512  0.1077 -0.0235  0.1637
28256W        W41670   3.143  10.746  10.282 -0.1086 -0.0683 -0.0093
28257W        W41671   3.053   4.398  16.475 -0.3548  0.1392  0.0346
28258W        W41672  11.620   6.777  11.609  0.1292  0.0242  0.2149
28259W        W41673  10.351   4.816   3.922 -0.0396  0.0100  0.0304
28260W        W41674  14.502  10.579  12.141  0.0763  0.0681 -0.3113
28261W        W41675  13.073  11.264  14.492  0.1786 -0.2144 -0.2180
28262W        W41676  13.451  11.909  12.155  0.3111 -0.0571 -0.0232
28263W        W41677  15.251  10.832  15.365  0.2223 -0.1773  0.0193
28264W        W41678   0.880  12.184  12.290 -0.0035  0.0922  0.1287
28265W        W41679  15.309  14.788   3.184 -0.0931  0.0266  0.1884
28266W        W41680   4.115   9.361   2.517  0.3691 -0.1253  0.0410
28267W        W41681  15.718   6.358  14.573 -0.0835  0.1138  0.1456
28268W        W41682   1.471   1.671   0.382 -0.0318  0.1601  0.0684
28269W        W41683   3.391  13.651  12.134  0.1864 -0.2818  0.2478
28270W        W41684   9.446  16.829  15.861  0.1176 -0.0799  0.1069
28271W        W41685  12.011  10.108  14.652  0.0300  0.0040  0.0700
28272W        W41686   1.167   6.544  11.179  0.1165  0.1656 -0.1475
28273W        W41687  12.361  10.650  10.771 -0.1539  0.0099  0.2004
28274W        W41688   2.322   6.369   2.454 -0.1048  0.1235  0.0930
28275W        W41689  15.043  12.514   2.974 -0.1402  0.2093 -0.1872
28276W        W41690   7.461   9.831  15.433  0.0776  0.3216  0.1247
28277W        W41691  13.289   4.578   1.255 -0.0664  0.0971  0.1086
28278W        W41692   4.850   0.621   3.270 -0.2073 -0.1403 -0.0829
28279W        W41693  12.066  15.026   1.971  0.0488  0.3751  0.2411
28280W        W41694  11.236   3.783   0.906 -0.2587  0.0275  0.1347
28281W        W41695   8.919   5.733  13.678 -0.1225 -0.0436 -0.1495
28282W        W41696  11.250   7.829  14.989  0.0776  0.2978  0.0892
28283W        W41697   2.233   6.791  13.921 -0.2849  0.1677  0.1568
28284W        W41698  14.882   2.123   4.598  0.1015  0.0469  0.0881
28285W        W41699   0.437   6.587  12.152  0.2924  0.2887  0.0683
28286W        W41700   9.251  12.157   1.180  0.2942 -0.1125  0.1239
28287W        W41701   0.238  13.716   4.663  0.1349  0.1428 -0.1263
28288W        W41702  16.881  12.310  12.340  0.2478 -0.0450 -0.3203
28289W        W41703  11.075   5.848   0.601 -0.0366 -0.0322 -0.1398
28290W        W41704  14.628  18.014  12.895 -0.0126  0.1463 -0.4145
28291W        W41705   9.405   2.958   3.524 -0.0184  0.0106  0.0302
28292W        W41706  13.789  13.307   4.490 -0.0161 -0.1879 -0.0768
28293W        W41707   6.774   9.022   1.486  0.0657 -0.0927  0.0699
28294W        W41708   6.626  10.410   5.146  0.1265 -0.2438  0.1626
28295W        W41709  14.064  14.981   2.612  0.1065  0.2407 -0.2402
28296W        W41710  15.913   8.929   1.594 -0.2138 -0.3282 -0.1022
28297W        W41711  15.614   4.519   0.555  0.2722  0.2988 -0.0153
28298W        W41712  12.232  10.048  11.452 -0.0044 -0.0045 -0.0675
28299W        W41713  15.169   9.977   0.980  0.0927 -0.3815  0.0546
28300W        W41714  15.225   8.931   2.226 -0.1700 -0.1209 -0.2727
28301W        W41715  15.896  14.720   5.878 -0.0552 -0.2195 -0.0210
28302W        W41716  15.316  13.214  14.067 -0.1047 -0.2939 -0.0374
28303W        W41717  17.891  16.398   7.018 -0.0925 -0.0969  0.3469
28304W        W41718  11.408   4.188   0.693  0.4019  0.1492 -0.0651
28305W        W41719  12.259  10.416  16.046  0.0329 -0.0085 -0.1905
28306W        W41720   4.805  17.198   1.705 -0.1438 -0.0072 -0.0949
28307W        W41721   5.843  17.060   4.732 -0.0079 -0.0498  0.4675
28308W        W41722  14.155   4.450   3.070 -0.3877  0.3830 -0.2646
28309W        W41723   4.651  15.623  12.964  0.0168  0.4136 -0.3236
28310W        W41724   0.584  10.240  12.331 -0.1383 -0.3133 -0.0350
28311W        W41725   9.881  17.124   3.231  0.0933  0.0519 -0.0060
28312W        W41726   6.540  12.512  10.725  0.0075 -0.0599 -0.3091
28313W        W41727   2.724  16.838  13.577 -0.2776  0.0179 -0.1157
28314W        W41728  13.698   8.457  11.339  0.0969 -0.0523  0.2779
28315W        W41729   0.710  18.394  16.084  0.0435  0.0388  0.2437
28316W        W41730   4.837   2.850   1.216  0.0637 -0.0792  0.2123
28317W        W41731  16.528   8.957   3.009  0.0148  0.0042  0.0396
28318W        W41732   2.140  18.326   2.383 -0.2348 -0.3907 -0.0535
28319W        W41733   7.290  10.128   2.216 -0.2305  0.4154 -0.0709
28320W        W41734  15.318   4.696  15.796  0.0159  0.2283 -0.1627
28321W        W41735   7.568   4.788   4.822 -0.3828 -0.1707  0.0484
28322W        W41736   0.025   9.855   9.779 -0.2270 -0.3704  0.1563
28323W        W41737  11.319  11.624   4.942  0.0182  0.5042  0.3540
28324W        W41738  10.670   5.991  11.866  0.0411  0.2820  0.1613
28325W        W41739  16.332   5.599  11.632  0.3196 -0.2153 -0.0046
28326W        W41740   2.623  15.356  12.059 -0.0583  0.0882 -0.2551
28327W        W41741  15.684  16.831  12.137 -0.1776 -0.1712  0.0805
28328W        W41742  16.242  17.274   1.111 -0.0559 -0.0314 -0.1894
28329W        W41743   9.286   3.796  10.785 -0.0641 -0.0033  0.3849
28330W        W41744   6.488  15.398   2.683  0.2244  0.2853 -0.0970
28331W        W41745   4.602  17.804   1.248 -0.0116 -0.2777 -0.0383
28332W        W41746  12.487   1.573   0.141 -0.0178 -0.0438  0.0491
28333W        W41747   7.121   3.558   4.276 -0.0021 -0.0574 -0.1625
28334W        W41748   5.066  17.721  10.723 -0.3424  0.0227  0.0103
28335W        W41749  13.464   3.704  14.405  0.3052 -0.0771 -0.1536
28336W        W41750  12.138  15.388   5.655 -0.1676  0.0515  0.1134
28337W        W41751   5.334   9.779  13.413  0.0437 -0.0038 -0.2565
28338W        W41752  12.767   4.501  14.561  0.2924 -0.0587  0.0831
28339W        W41753   1.209   3.914  11.974  0.2256  0.3532 -0.0395
28340W        W41754   1.039   0.226  13.819 -0.0669 -0.1143  0.0836
28341W        W41755  11.585   0.938   3.264  0.1301 -0.0465 -0.0466
28342W        W41756   6.692  10.239   4.590  0.1331  0.3382 -0.1621
28343W        W41757   5.293  14.970   4.041 -0.1130 -0.2012 -0.1433
28344W        W41758  14.574   9.851  12.800 -0.2235 -0.0205 -0.2884
28345W        W41759   7.817  13.374   1.208  0.1541 -0.1676  0.0054
28346W        W41760   0.592  13.597   4.013  0.1129 -0.0734 -0.0584
28347W        W41761  16.730  12.182  13.602  0.1686 -0.0375  0.1624
28348W        W41762  10.898   1.899   1.789 -0.0344 -0.2832  0.2193
28349W        W41763   8.167   0.795  15.836  0.2722 -0.2697 -0.0849
28350W        W41764  10.590  11.727  12.622 -0.2388  0.1499  0.4502
28351W        W41765   3.626   8.051  16.100  0.1040  0.0538  0.3245
28352W        W41766  10.536   5.560  15.104  0.0939 -0.0541 -0.0332
28353W        W41767   7.073  12.033  10.182 -0.1220 -0.2462  0.2234
28354W        W41768   0.169   2.763   2.688  0.0266  0.0282  0.0106
28355W        W41769   6.171  17.210   5.691  0.3236  0.2941 -0.3391
28356W        W41770   4.691  11.412  16.310  0.1821  0.0465 -0.2527
28357W        W41771   0.014   1.317  14.595 -0.2456 -0.2777 -0.0129
28358W        W41772  14.180  10.715  13.113  0.3200 -0.2770 -0.2520
28359W        W41773  16.278  10.960  12.556  0.0061 -0.0058 -0.1163
28360W        W41774   0.551   0.230   0.103 -0.1254 -0.1840  0.0685
28361W        W41775  15.296  10.746  12.468  0.0195  0.1567 -0.0348
28362W        W41776  16.687  12.384  11.822  0.2237 -0.0758 -0.1720
28363W        W41777   1.108   5.389   2.809  0.1109 -0.0511  0.0599
28364W        W41778   7.511   1.108   1.517 -0.0589  0.1280 -0.2121
28365W        W41779   9.913  12.029  10.299  0.1473  0.0400 -0.1960
28366W        W41780  14.841   4.909   4.056 -0.0598 -0.0900 -0.1317
28367W        W41781   4.828  12.517  12.463  0.0747  0.1563 -0.0749
28368W        W41782  12.460   2.903   2.867 -0.1681 -0.2117 -0.2561
28369W        W41783   5.218   8.428  11.101 -0.1939  0.2176 -0.0488
28370W        W41784  12.114   5.644  12.182  0.0730  0.2055 -0.3356
28371W        W41785   2.918  12.977   5.015 -0.3548 -0.2838  0.0842
28372W        W41786  12.692  11.968   5.266  0.1283 -0.2962 -0.0830
28373W        W41787   4.334  11.623   3.895 -0.0069 -0.0331 -0.0714
28374W        W41788  15.652   7.837  14.881 -0.0176  0.1008  0.3763
28375W        W41789  13.653  13.783   2.238  0.0173  0.0397  0.0862
28376W        W41790   9.153   8.052   2.593 -0.1339 -0.0076 -0.0847
28377W        W41791   0.907   9.313  12.175 -0.1310 -0.0966 -0.0540
28378W        W41792  12.975   0.920  11.570  0.2971  0.0518 -0.1095
28379W        W41793   6.151  10.797   4.104 -0.1160 -0.0761  0.1126
28380W        W41794   9.643  18.312  15.417 -0.1791  0.1396 -0.1529
28381W        W41795  11.120  14.127  10.711  0.0810  0.1573  0.0824
28382W        W41796  15.381  15.324   3.040  0.0108  0.1895 -0.2827
28383W        W41797  13.631   7.297   1.717  0.3633 -0.1688 -0.3506
28384W        W41798  11.390   6.985  13.429  0.0744 -0.0452  0.4895
28385W        W41799  17.972   5.520  13.193  0.2482  0.2890  0.0484
28386W        W41800  16.595   7.485   1.837  0.1616 -0.0228 -0.1098
28387W        W41801   6.774   1.264  11.171 -0.0038 -0.1121 -0.1530
28388W        W41802   7.805   8.546  14.337  0.2391 -0.2050  0.0475
28389W        W41803  10.909  17.316  11.484  0.0495  0.1815 -0.1606
28390W        W41804  13.470   7.158   4.425 -0.3833  0.0541  0.1798
28391W        W41805   7.328  17.395  14.222  0.1567  0.0967  0.1593
28392W        W41806   7.956  17.485  15.066  0.0480 -0.2648  0.1437
28393W        W41807   5.995  15.745  16.293  0.0688  0.2652  0.2561
28394W        W41808   0.416  15.475   0.218  0.0941 -0.2289  0.3169
28395W        W41809   8.135   7.754   0.039  0.2455  0.0010  0.1502
28396W        W41810  12.528  16.299  13.739  0.0295 -0.1268 -0.0139
28397W        W41811  18.149  11.641   1.926  0.1036  0.0679  0.2217
28398W        W41812   2.798  17.265   1.127  0.2551 -0.0745  0.0370
28399W        W41813   3.858   4.408   5.028 -0.3993  0.2652  0.0889
28400W        W41814   1.392   1.842  16.438  0.2707 -0.4093  0.3576
28401W        W41815   7.057   4.603   1.153  0.0090 -0.1370  0.1248
28402W        W41816   5.959  15.684   1.195  0.1012  0.0098  0.3060
28403W        W41817  13.967   8.930  11.552 -0.1177 -0.0432 -0.0955
28404W        W41818  18.273  13.661   6.632 -0.0677  0.0301  0.0674
28405W        W41819  10.676   7.652  14.395  0.1584 -0.0415 -0.0659
28406W        W41820  11.858   4.561   3.289 -0.0373 -0.2271  0.2781
28407W        W41821   9.042  16.804  14.489  0.1366  0.1386  0.0187
28408W        W41822   3.758   0.440   5.962 -0.1626  0.0153 -0.4067
28409W        W41823   7.002   6.188  13.998 -0.3180  0.1703 -0.1098
28410W        W41824   5.420   3.861   3.336 -0.5462 -0.1636  0.0933
28411W        W41825  10.170  11.801  14.610 -0.0565  0.1533  0.5956
28412W        W41826  14.122  15.030   3.173  0.4425 -0.0744 -0.0849
28413W        W41827  15.837  17.355  13.905  0.0305 -0.2593 -0.0072
28414W        W41828   9.875  13.318   0.671  0.2632  0.1844  0.2171
28415W        W41829   9.714  10.130   3.101  0.0651  0.2481 -0.2612
28416W        W41830  14.979  16.594   3.975 -0.1324 -0.1336  0.2443
28417W        W41831   5.010   0.996   4.452 -0.0412  0.0021 -0.1434
28418W        W41832   4.522   3.551  12.846  0.0861  0.0354  0.0437
28419W        W41833  15.915   3.986  14.520  0.0789  0.0403 -0.0138
28420W        W41834   1.898   0.551  16.310  0.1573  0.0394 -0.3893
28421W        W41835   0.230   3.313  12.223 -0.1216  0.1570  0.3616
28422W        W41836   5.502   7.807  15.738  0.1456  0.1649  0.0297
28423W        W41837   8.121  10.815  11.541  0.1680 -0.0844 -0.2042
28424W        W41838   7.888   2.680   2.250 -0.2258  0.1003 -0.3813
28425W        W41839   0.068  16.336  12.229  0.1352 -0.2000 -0.3673
28426W        W41840   2.406   9.324   0.901  0.3760  0.2647  0.0657
28427W        W41841   0.075   0.568  15.759  0.0809  0.0155  0.1378
28428W        W41842  10.158   1.197   0.657 -0.0519  0.1849  0.0505
28429W        W41843   8.362   3.967   0.557 -0.1395  0.4467 -0.1769
28430W        W41844   1.341   6.816  12.975 -0.2631  0.0339 -0.2346
28431W        W41845  13.671  15.972   0.162  0.0166  0.1697 -0.3887
28432W        W41846  15.701   5.052   2.433 -0.1920  0.2733 -0.1110
28433W        W41847   2.259  14.128   0.289  0.1240 -0.3027  0.2130
28434W        W41848   5.713   0.648   4.403  0.2313  0.0181  0.1397
28435W        W41849   1.422  10.201  11.476 -0.0895  0.0822 -0.1448
28436W        W41850  17.445  11.341  13.707  0.4827  0.0353 -0.2840
28437W        W41851   6.560  16.153   3.123  0.1337  0.0512  0.0146
28438W        W41852  16.192   0.853   1.478 -0.1627  0.4021  0.2024
28439W        W41853   7.971  13.829  11.277  0.1411  0.2564 -0.0721
28440W        W41854  12.869  12.045  13.133  0.1829  0.0433  0.1286
28441W        W41855  10.287   2.131  11.834  0.0700  0.1364  0.1016
28442W        W41856   0.677   8.088  11.633 -0.0946 -0.1115  0.1132
28443W        W41857   6.723  16.118  13.219 -0.0256  0.2329 -0.0418
28444W        W41858  15.637   4.534   2.642 -0.3986 -0.3092 -0.0413
28445W        W41859   8.419   4.985   5.042  0.3853 -0.1129  0.1869
28446W        W41860   1.991   0.938   6.269  0.0985 -0.0274 -0.1961
28447W        W41861   6.130   4.604  14.317 -0.1895 -0.2603  0.0694
28448W        W41862   4.518   0.264  11.102 -0.0812 -0.0286  0.2394
28449W        W41863  18.342   6.327   2.432  0.0310  0.0719  0.0956
28450W        W41864  10.480   1.066  13.389 -0.0751 -0.0536 -0.1489
28451W        W41865   7.587   5.446  11.584 -0.2606 -0.0816 -0.0669
28452W        W41866   2.772  17.366   1.989 -0.3548 -0.0673 -0.1825
28453W        W41867   9.739  17.094  12.425  0.1188 -0.2859  0.3998
28454W        W41868   9.155  15.382  16.481  0.1953  0.2602 -0.0701
28455W        W41869  11.229  15.299  11.515  0.2937  0.3281 -0.0099
28456W        W41870  15.946   9.396  12.634  0.0196  0.0141 -0.0602
28457W        W41871   4.012   8.195  11.681  0.3543  0.3951 -0.3074
28458W        W41872  13.272   0.626  12.044  0.1857 -0.0189 -0.2165
28459W        W41873  12.733  12.126   3.891 -0.1436  0.1041  0.1754
28460W        W41874   0.385  16.526   4.796  0.2399 -0.3485  0.0306
28461W        W41875   0.364  13.629   2.911 -0.1635 -0.3224 -0.1952
28462W        W41876   1.351  15.448  13.395  0.0523  0.2226  0.1077
28463W        W41877  14.039  11.720   2.885 -0.5285  0.3417 -0.1265
28464W        W41878  16.444  17.246   6.423 -0.1577 -0.0774 -0.2472
28465W        W41879  17.782   1.952  13.049  0.1045 -0.1822 -0.2809
28466W        W41880  12.783  13.220   0.842  0.0560 -0.0929 -0.0091
28467W        W41881  17.531   2.190  13.627  0.0509  0.2294  0.0596
28468W        W41882   3.309  17.602  13.528 -0.1331  0.0641  0.0768
28469W        W41883  16.407  10.499   2.487  0.1032  0.1319 -0.1000
28470W        W41884   0.789   5.636   5.069 -0.2391  0.0099 -0.1584
28471W        W41885  14.462  11.147   5.322  0.1818 -0.1098  0.1055
28472W        W41886   7.215   9.061  12.999  0.0456  0.5497  0.2786
28473W        W41887   0.554  12.964   0.169  0.0426 -0.0226 -0.1676
28474W        W41888  18.057   0.442   3.109 -0.0156  0.1499  0.1602
28475W        W41889  17.847   3.783  11.982 -0.0518  0.1894 -0.4686
28476W        W41890   4.154   4.636  11.677 -0.1162 -0.1496 -0.1822
28477W        W41891  16.182   0.281  15.491 -0.0354 -0.3186 -0.3016
28478W        W41892   9.694   5.880  16.206 -0.0684 -0.0029 -0.0953
28479W        W41893   8.011  17.164   3.961  0.3814 -0.0418 -0.0878
28480W        W41894   0.853  17.512  12.496  0.0311 -0.0019  0.2367
28481W        W41895  16.127   4.011   5.056  0.0704  0.0742  0.1264
28482W        W41896   4.137  15.385   5.550 -0.2004 -0.1509  0.1223
28483W        W41897   4.475   8.245  10.437  0.2967 -0.1411  0.0307
28484W        W41898  16.665  12.696  14.810 -0.0371  0.0701  0.0624
28485W        W41899  16.922   6.749  10.867  0.1758 -0.2198 -0.3190
28486W        W41900   9.337   1.053  13.720  0.0712 -0.1086 -0.1227
28487W        W41901   3.745  12.260   5.646  0.0750 -0.0455 -0.3229
28488W        W41902   1.921   0.699   3.740  0.3116  0.0843 -0.0282
28489W        W41903  17.316  13.961  13.038  0.1083 -0.0863  0.1244
28490W        W41904   3.276   7.848  12.290 -0.1002 -0.1685  0.2640
28491W        W41905  14.144   1.671  15.088  0.4017  0.1641 -0.0255
28492W        W41906   3.920   5.409  14.222  0.0025 -0.2087  0.2056
28493W        W41907  13.253   7.129  13.799  0.3240  0.0873  0.0104
28494W        W41908   8.283  10.691  11.079 -0.1921 -0.3840  0.5519
28495W        W41909   2.066  12.582  14.244 -0.1480 -0.0064  0.1138
28496W        W41910   7.828  11.705  10.664 -0.1314 -0.0285  0.0295
28497W        W41911   1.435  10.260   1.869 -0.1768 -0.0161  0.2003
28498W        W41912  18.032  16.963   5.859  0.3163  0.1367  0.0551
28499W        W41913  11.863   0.703  15.930  0.1683 -0.0555 -0.1814
28500W        W41914   0.692   0.883   2.267  0.1770  0.1811  0.0583
28501W        W41915   4.186   2.329   6.102 -0.2906  0.3009 -0.0966
28502W        W41916   6.295   1.696   0.847  0.0999 -0.2976  0.2250
28503W        W41917  10.182   5.029   3.167 -0.2890  0.0926  0.1679
28504W        W41918   3.405   6.568  12.775 -0.2940 -0.1780 -0.3080
28505W        W41919  10.840  10.676   3.042  0.0250 -0.0899  0.3425
28506W        W41920  11.326   6.128  16.233 -0.1066 -0.1127  0.2034
28507W        W41921   4.112   1.628   3.967 -0.0783 -0.0915 -0.1986
28508W        W41922  13.867   7.749  13.502 -0.0957  0.1115  0.2356
28509W        W41923  14.283  14.447  12.403 -0.2248 -0.1694  0.1959
28510W        W41924  17.723  17.616   3.441  0.3002 -0.0278 -0.0674
28511W        W41925  14.552  14.705   2.097 -0.1434 -0.2592 -0.3475
28512W        W41926  17.360  15.356   1.694  0.3358 -0.1537 -0.0393
28513W        W41927   9.134   0.870   0.315 -0.1327 -0.1412  0.0640
28514W        W41928  16.644   4.358   3.541 -0.4301  0.1283 -0.1583
28515W        W41929  18.099  14.835  12.811  0.0612  0.0608  0.2453
28516W        W41930   7.501   2.904   4.565 -0.1918 -0.1349 -0.0603
28517W        W41931  11.527   3.021   5.436 -0.4363  0.0618 -0.0080
28518W        W41932   8.863  16.683  15.107 -0.1099  0.2108 -0.3272
28519W        W41933  18.295  17.923  11.108 -0.1746 -0.6636 -0.0421
28520W        W41934   5.072   8.427  15.836 -0.0900 -0.2621  0.2895
28521W        W41935   6.425   3.990  12.968  0.0359 -0.1898 -0.0253
28522W        W41936  18.342   0.934   2.209  0.2320 -0.0014  0.3257
28523W        W41937  16.452   5.148   3.093 -0.2190  0.1834 -0.2161
28524W        W41938   8.792  10.993   3.301 -0.0789  0.1091 -0.1296
28525W        W41939  18.175   3.684   1.401 -0.1049 -0.0110 -0.0307
28526W        W41940   0.238   9.696   3.776  0.1462 -0.0098  0.2129
28527W        W41941   6.613   8.192   5.685 -0.1385  0.0650 -0.2965
28528W        W41942   7.942   2.176  15.379  0.1813 -0.0846  0.2092
28529W        W41943  11.043  11.135  16.245 -0.1277  0.0876  0.1303
28530W        W41944  16.629  11.318   4.119  0.0288 -0.1213  0.4578
28531W        W41945   0.383   6.561   3.347 -0.3558 -0.1605 -0.0747
28532W        W41946  15.048   2.300   5.076 -0.2205  0.2101 -0.0877
28533W        W41947   3.616   1.667   0.646  0.0020  0.0996  0.4071
28534W        W41948  14.643  13.637   5.506 -0.4309  0.1637 -0.1453
28535W        W41949  12.366  14.089   4.271  0.0632  0.2879 -0.1163
28536W        W41950   8.610  10.691  10.704  0.2736  0.2639  0.2075
28537W        W41951   0.944   2.573   4.738  0.0947  0.0533 -0.0577
28538W        W41952   8.184   6.931  15.854  0.0036  0.1292  0.0117
28539W        W41953  12.381  16.558  10.274  0.0636  0.2535 -0.0840
28540W        W41954  17.091  15.923   5.009  0.1792  0.0349 -0.2076
28541W        W41955  16.582   3.478  14.090 -0.5275 -0.3356  0.2748
28542W        W41956   1.148  10.217   2.774 -0.1050 -0.1580  0.1432
28543W        W41957  15.403  16.997  15.839  0.1388  0.0033 -0.3072
28544W        W41958  10.731   9.330  14.033  0.1816  0.0080 -0.2200
28545W        W41959  15.662  17.447   2.036 -0.1381  0.3865 -0.0739
28546W        W41960   6.434  10.261   4.108 -0.0671 -0.2480 -0.5726
28547W        W41961   9.526  13.857  13.508 -0.1492 -0.2034 -0.0952
28548W        W41962   0.170  14.532  11.213 -0.3971  0.2458 -0.0243
28549W        W41963   2.354  16.000   1.290 -0.3661 -0.1361 -0.1060
28550W        W41964  14.066  15.584  14.649  0.2080 -0.0132 -0.2275
28551W        W41965   8.936   8.538   2.704  0.2431 -0.4576 -0.0674
28552W        W41966  15.423   9.042   1.361 -0.1804  0.0895 -0.3205
28553W        W41967  12.757   0.444  12.869  0.2698 -0.0594 -0.0214
28554W        W41968  18.336  14.514  15.244 -0.1121 -0.1508 -0.2429
28555W        W41969   9.964   8.119   5.061 -0.1255 -0.4534 -0.0440
28556W        W41970  17.493   3.484   2.001  0.2378 -0.0267 -0.1598
28557W        W41971  17.011   5.153   0.991  0.2958  0.0157  0.0235
28558W        W41972  14.498   4.170  11.513 -0.0609 -0.0464  0.1276
28559W        W41973   6.170   2.304   4.482  0.3864 -0.1240  0.1304
28560W        W41974   4.885   7.046  15.936  0.0648 -0.1008 -0.0149
28561W        W41975   4.767  13.876   5.222 -0.0677  0.0595  0.2454
28562W        W41976  10.988  10.671   1.340  0.0343  0.2843 -0.4483
28563W        W41977   5.297  10.083  16.094  0.3437 -0.2302 -0.0128
28564W        W41978   4.357  16.766   0.896 -0.1369 -0.4597  0.0573
28565W        W41979   8.574  14.622   3.178 -0.0507  0.0770 -0.1917
28566W        W41980  11.972   2.102  16.141  0.1584  0.0322  0.3477
28567W        W41981   8.815  14.076   5.791 -0.1683  0.0905  0.2628
28568W        W41982  12.447   5.610  13.748  0.0988  0.0432  0.0245
28569W        W41983  16.417   3.619  14.585 -0.1406 -0.0050  0.2658
28570W        W41984   3.282  16.029  13.771  0.1731  0.1951  0.1249
28571W        W41985  13.744   9.477   0.809  0.2333  0.3594  0.0169
28572W        W41986   5.078   3.144   0.337 -0.1017  0.1960 -0.1048
28573W        W41987   1.999   4.852  12.590 -0.1051  0.0122  0.0628
28574W        W41988   2.412   4.822  16.413  0.0850  0.0709  0.5155
28575W        W41989   6.571  14.963   4.220  0.2891  0.0214 -0.1238
28576W        W41990   8.301   5.245  15.826 -0.0528 -0.1316 -0.1405
28577W        W41991   8.987  12.628   2.992 -0.1014 -0.0641 -0.0688
28578W        W41992   3.847   2.545  13.628  0.1858 -0.1556 -0.0577
28579W        W41993  14.969   1.740  14.618  0.2531  0.3133 -0.2204
28580W        W41994   7.990   7.625  13.749 -0.0668 -0.0750 -0.0664
28581W        W41995   9.645   6.819  12.128 -0.4462  0.1130  0.2687
28582W        W41996  10.036   8.564   4.817  0.0680  0.0653 -0.1637
28583W        W41997  10.578  14.133   2.963 -0.1253  0.1579  0.0534
28584W        W41998  18.177   1.416   2.086 -0.0231 -0.2523  0.0464
28585W        W41999  17.972   3.860   2.325 -0.3345  0.0192 -0.0005
28586W        W42000  11.537  13.480  15.343  0.2524 -0.2219 -0.2891
28587W        W42001   1.491  10.260   4.428  0.2433  0.2770 -0.0592
28588W        W42002   2.591   3.521   3.871 -0.0899  0.2141  0.0918
28589W        W42003  16.294   9.774  11.247  0.4261  0.4398  0.1741
28590W        W42004   1.411  15.048  15.493 -0.1457  0.3080  0.1228
28591W        W42005   9.989   6.153  15.848  0.0838 -0.1058  0.0456
28592W        W42006   6.619   9.554   6.149 -0.1465 -0.2732 -0.1255
28593W        W42007   0.569   4.842  12.840 -0.2874  0.2034  0.0022
28594W        W42008  12.785   4.015  13.035  0.0961 -0.0500 -0.1190
28595W        W42009   4.863   8.153   1.491 -0.0489  0.1989 -0.2482
28596W        W42010  15.305   8.035   2.802 -0.1466 -0.0581  0.0708
28597W        W42011   7.560   0.947   4.619 -0.2468 -0.4001 -0.0506
28598W        W42012   2.029   4.569   0.805  0.0347 -0.2655 -0.3051
28599W        W42013  12.012   7.747  11.277  0.1661 -0.0233  0.0413
28600W        W42014   8.736  15.556   5.520  0.0962  0.1530  0.0824
28601W        W42015  11.785  13.832   1.053 -0.1821  0.0488 -0.4770
28602W        W42016  10.567   2.155  14.817  0.0122 -0.2267  0.0626
28603W        W42017   6.399   5.290  14.917 -0.0879  0.3581  0.2550
28604W        W42018  12.253  12.238  12.205 -0.1089 -0.2612 -0.1964
28605W        W42019   8.208  15.901   4.074  0.1105  0.0259  0.2028
28606W        W42020   0.498  12.067   1.869 -0.1072  0.0068  0.0858
28607W        W42021  13.481   8.770  11.698  0.0543  0.2566  0.0081
28608W        W42022   1.114  16.088   2.258  0.2656 -0.0843  0.1397
28609W        W42023   1.676  13.882   6.777  0.2824  0.1650  0.0803
28610W        W42024   1.802   1.808  12.662  0.2215  0.0269 -0.0683
28611W        W42025  15.234   9.078   4.960 -0.1743  0.5542  0.2171
28612W        W42026  15.860   6.135  11.495 -0.2035  0.0721  0.3312
28613W        W42027   1.608  13.273   2.836  0.2157  0.1337  0.0607
28614W        W42028  15.731   6.646  15.215  0.3335  0.1152 -0.0538
28615W        W42029   1.473  15.810  16.069 -0.0795 -0.1642  0.1885
28616W        W42030   0.770   2.121  11.918  0.0022  0.2183 -0.0860
28617W        W42031   7.240  16.058   3.702 -0.3196 -0.0357 -0.3780
28618W        W42032   7.128   8.273   4.301 -0.1114  0.2509  0.0913
28619W        W42033   2.165  13.032  15.107  0.0853  0.1952 -0.0102
28620W        W42034   0.185  11.254   3.524  0.2264  0.0230  0.1504
28621W        W42035  10.749   6.075  15.242  0.1194  0.1124 -0.2549
28622W        W42036   9.676   7.351  11.768 -0.1051 -0.2025 -0.0744
28623W        W42037  16.995   2.969   3.857 -0.1231  0.0447  0.2860
28624W        W42038   7.875   4.057   2.523 -0.1376  0.4658 -0.4082
28625W        W42039   4.267  12.046   4.907 -0.1647 -0.4509  0.1021
28626W        W42040  14.115  15.507  11.658 -0.0215 -0.1761  0.1842
28627W        W42041   7.455  17.739  11.087 -0.0568  0.3438 -0.1558
28628W        W42042   7.475   1.245  15.329 -0.4203 -0.4496  0.0464
28629W        W42043   2.253   6.733   4.205  0.3519 -0.0360 -0.1245
28630W        W42044   4.208   9.991  15.867  0.3206 -0.3438  0.0388
28631W        W42045  13.825   5.413  14.057  0.2715  0.0702 -0.3105
28632W        W42046   1.423  18.171   6.082 -0.0954 -0.2580 -0.2311
28633W        W42047   0.011  16.238   2.807 -0.0548 -0.0741 -0.3187
28634W        W42048   2.453   9.103   3.868  0.0567  0.1054  0.0358
28635W        W42049  18.014   5.079   2.669 -0.1793 -0.0626 -0.2239
28636W        W42050   3.945   4.709   4.614  0.1605  0.1652  0.1651
28637W        W42051  10.485  15.411   0.003  0.0521 -0.0917  0.2902
28638W        W42052   9.135   1.803   0.637  0.3179  0.2577 -0.0719
28639W        W42053   5.254   1.884  11.722  0.0911 -0.3345 -0.0205
28640W        W42054  14.676   0.491  15.238 -0.0590 -0.1860 -0.2521
28641W        W42055   8.813  18.166   4.307 -0.2586 -0.1341  0.0405
28642W        W42056  15.283  11.652   1.293 -0.0891 -0.1300  0.3312
28643W        W42057   1.395  12.835   0.679 -0.2236 -0.0902  0.0142
28644W        W42058  13.461   7.535   4.680 -0.0726 -0.0765  0.2659
28645W        W42059   4.309  13.244   0.475  0.1783  0.4066  0.1242
28646W        W42060   6.156   4.444  12.794 -0.0444 -0.2152 -0.1239
28647W        W42061  11.501  11.040  12.777  0.0066  0.1707  0.0971
28648W        W42062  18.313  12.782  16.396 -0.1072 -0.0345 -0.0509
28649W        W42063   0.577  15.653   2.731  0.1456 -0.0013  0.1711
28650W        W42064   9.829   0.751  15.759  0.0738 -0.1102 -0.0358
28651W        W42065  15.249   4.748  14.457  0.2109  0.0967 -0.3951
28652W        W42066   1.095   3.403   6.164  0.1753  0.3410 -0.2202
28653W        W42067   7.099  17.420   3.114  0.0154  0.2014  0.1314
28654W        W42068   8.096   1.376  12.528  0.1360  0.1488 -0.1154
28655W        W42069  10.448   1.391  11.597 -0.0683  0.3198 -0.1515
28656W        W42070   9.793   3.414   0.309 -0.2833  0.0222 -0.0162
28657W        W42071  14.830   4.193  15.674 -0.5209 -0.3149  0.4396
28658W        W42072   4.959   8.326  14.134  0.1208 -0.3545  0.0960
28659W        W42073   4.245  13.157   0.959 -0.0932 -0.1419  0.1772
28660W        W42074  16.562   8.808   4.457 -0.0748 -0.0784  0.2242
28661W        W42075  14.771  15.192   2.280 -0.0317  0.1490  0.0999
28662W        W42076   3.349   4.744  13.326 -0.1801 -0.0614  0.2406
28663W        W42077   3.289  11.373  11.921 -0.0272  0.1256  0.0061
28664W        W42078  16.101   2.300   3.800 -0.2371  0.1056 -0.1412
28665W        W42079   0.085  18.231  14.099 -0.0493  0.0256 -0.0657
28666W        W42080   3.046  17.117  14.512  0.0806 -0.1164  0.1595
28667W        W42081   1.634   3.851   4.543  0.2322 -0.0971 -0.0088
28668W        W42082  16.859   2.058  13.057  0.0458 -0.2661 -0.1146
28669W        W42083   1.243   9.000  11.977  0.1776  0.1635 -0.1105
28670W        W42084   6.926   2.311   5.212 -0.2432  0.1926  0.2229
28671W        W42085  17.928   8.578  13.427 -0.1813 -0.1321  0.1076
28672W        W42086   5.449   9.799   3.782  0.0318  0.1987 -0.0179
28673W        W42087   9.033  12.028  11.756  0.3081  0.0223  0.0797
28674W        W42088   0.222   8.039   3.296  0.0619  0.1305  0.2163
28675W        W42089  10.182   3.072  13.856 -0.1527  0.3098 -0.1795
28676W        W42090   4.657   1.629   4.881 -0.0120 -0.2635  0.0821
28677W        W42091   6.225   2.664   1.777  0.1426  0.3500 -0.3590
28678W        W42092  13.923   0.436  11.448  0.1576  0.2576 -0.0223
28679W        W42093   8.036   0.834  12.749  0.1436  0.3931  0.2999
28680W        W42094  15.687  12.464  15.899  0.0975 -0.0548  0.0326
28681W        W42095  17.007  16.224   2.640  0.0078  0.1297 -0.2065
28682W        W42096  17.278  13.464   2.055 -0.0140  0.0147 -0.3288
28683W        W42097  15.321   3.945   0.551 -0.0356  0.5165  0.1181
28684W        W42098   6.279  11.012  10.731  0.3723  0.1000 -0.1996
28685W        W42099  18.235  13.599   3.379  0.0230  0.1887  0.0152
28686W        W42100  13.139   5.639   3.300  0.3581  0.3347 -0.0754
28687W        W42101   0.475  10.263   4.984  0.3652  0.1484 -0.1840
28688W        W42102   0.291   4.305  14.058  0.2055  0.1368 -0.0435
28689W        W42103   9.159   7.193   0.154  0.2774  0.0644  0.1610
28690W        W42104  16.169  13.711  12.924  0.1453  0.5316  0.1363
28691W        W42105   7.789  17.494  10.342 -0.2624  0.0472  0.0519
28692W        W42106   1.037   8.307   0.814 -0.0433  0.2359 -0.3294
28693W        W42107   3.200   5.795  15.007 -0.0403  0.4136 -0.0274
28694W        W42108  15.796  13.415  11.560  0.0939  0.1368  0.2217
28695W        W42109  14.032  18.267   5.402  0.1186  0.0804 -0.0253
28696W        W42110  10.558  11.077   3.151  0.1124 -0.1318  0.2091
28697W        W42111   3.083   7.982   1.011 -0.1764  0.2486  0.1529
28698W        W42112   6.335  16.666   1.657 -0.2546 -0.1713 -0.0321
28699W        W42113   3.131   5.269   3.285 -0.0651  0.0608 -0.1220
28700W        W42114  17.610   3.817   4.658 -0.0790 -0.2796 -0.2269
28701W        W42115   3.663  13.415   2.233 -0.1425  0.1415  0.1035
28702W        W42116   8.490  16.063   5.522 -0.2449  0.1336  0.1356
28703W        W42117  16.481  16.755   3.212 -0.0185  0.1221  0.1871
28704W        W42118   4.157  16.508  11.213  0.2562 -0.0849  0.1528
28705W        W42119  13.152   4.095   2.739 -0.0114 -0.0644  0.2170
28706W        W42120  12.193   4.902   5.705 -0.4144 -0.0866  0.1749
28707W        W42121  14.085  16.056  14.334  0.2187 -0.2314 -0.2526
28708W        W42122  17.564  11.269  13.248 -0.4510 -0.1532  0.1123
28709W        W42123   7.476   3.674  10.415  0.2508 -0.1792 -0.0693
28710W        W42124   0.088   2.892   0.125 -0.2616  0.3007 -0.5914
28711W        W42125  17.772  15.772  12.362 -0.0789 -0.2296  0.2294
28712W        W42126  10.466   6.029   1.129  0.0120  0.1738 -0.1280
28713W        W42127   0.117   7.488   2.226 -0.0137 -0.0800 -0.0345
28714W        W42128  16.697  15.528  13.960  0.0471  0.2106  0.0383
28715W        W42129   4.894  13.318  14.208 -0.0958  0.0170  0.0974
28716W        W42130  15.067   2.915   2.991  0.3623  0.0960 -0.0277
28717W        W42131   9.428  13.452  11.589  0.0610 -0.0850  0.0446
28718W        W42132   9.077   8.227  11.060 -0.0499  0.1578 -0.0514
28719W        W42133  12.346  17.190  13.063 -0.0641  0.2507 -0.2163
28720W        W42134   9.793  13.484  15.636  0.3268 -0.0400  0.1805
28721W        W42135   3.370  11.598  12.934  0.0429  0.4673  0.0545
28722W        W42136   6.672  17.593  12.584  0.3023 -0.1975 -0.0591
28723W        W42137  11.583  16.297  15.294 -0.0893  0.2486  0.0273
28724W        W42138  18.310  14.816  12.206  0.0438 -0.2069  0.0209
28725W        W42139   9.221  16.428  10.809  0.0770 -0.1498  0.0132
28726W        W42140   6.118   8.085   5.199 -0.1297  0.0408 -0.1960
28727W        W42141  11.640  14.258  12.926  0.3766  0.3858  0.0355
28728W        W42142  16.769   2.629   0.522 -0.4295  0.0640  0.2350
28729W        W42143   6.751  12.004  15.037 -0.0587 -0.0559  0.2122
28730W        W42144   1.990   5.159  14.084  0.0381 -0.0113 -0.1286
28731W        W42145   7.288   5.472  13.691  0.3481  0.0542 -0.0966
28732W        W42146   7.750   7.428   2.164  0.3540  0.2412 -0.0622
28733W        W42147   6.531  11.853   1.823 -0.1541 -0.2702  0.1257
28734W        W42148  12.428  10.279   2.226 -0.1180  0.2810 -0.3695
28735W        W42149  14.987   7.650   0.365 -0.3040  0.0532  0.2191
28736W        W42150   4.792  13.223   5.612  0.1810 -0.0526  0.0107
28737W        W42151   5.478   1.859  13.415 -0.1377 -0.2728 -0.0789
28738W        W42152  13.760  13.495   6.436  0.1068  0.0288 -0.4177
28739W        W42153   1.896   5.494   2.525 -0.2761  0.1430 -0.1661
28740W        W42154  17.894   7.867   0.227 -0.2297  0.0287 -0.2612
28741W        W42155  17.702   5.345   0.384 -0.3500  0.3124 -0.1111
28742W        W42156  13.682  10.554   3.420 -0.0029 -0.0084 -0.1449
28743W        W42157   2.983  12.562   3.756 -0.1526 -0.1906  0.1777
28744W        W42158   0.976  17.203  11.582 -0.2109 -0.1337  0.0123
28745W        W42159  12.329  10.401   2.706  0.3135 -0.1549  0.2367
28746W        W42160  12.453   0.713   1.969 -0.3555 -0.1806  0.1200
28747W        W42161   7.225   8.787   2.448 -0.0010  0.2240 -0.2308
28748W        W42162  12.352   8.515   2.153  0.1136  0.0208 -0.1308
28749W        W42163  14.028  18.386  15.074  0.1486  0.0015  0.1903
28750W        W42164   9.477  14.492   4.448  0.0359 -0.0474 -0.0722
28751W        W42165   4.796   1.741  12.584  0.2468 -0.3099  0.0672
28752W        W42166  12.067  14.747   0.701  0.2511  0.2750 -0.1130
28753W        W42167   1.912   9.547  15.276  0.2352  0.0633  0.0979
28754W        W42168   9.782   2.712   2.340  0.0673  0.1482 -0.0114
28755W        W42169   4.492  17.941   2.191 -0.1593  0.2183 -0.0885
28756W        W42170   2.994  17.718  14.481 -0.1312 -0.0664  0.0309
28757W        W42171  17.697   3.801   2.896 -0.1389 -0.2693 -0.0928
28758W        W42172   8.099   2.077   5.874  0.2383 -0.2674 -0.2955
28759W        W42173  16.144   7.970   5.092  0.1199  0.0387 -0.1157
28760W        W42174  16.494   1.526  16.192 -0.2023  0.3101 -0.1526
28761W        W42175  13.741  15.414   3.327 -0.3554  0.1247  0.2971
28762W        W42176   0.066   0.810   6.106  0.0026 -0.1969 -0.0100
28763W        W42177   9.463  17.440   0.085  0.2647 -0.0562  0.3041
28764W        W42178   9.860  15.704   4.576  0.1078  0.1482  0.0961
28765W        W42179  15.819   9.233   0.267  0.2089 -0.0684  0.1459
28766W        W42180  12.695  15.370  15.672 -0.0362 -0.0145  0.2438
28767W        W42181   0.099   7.488  11.981  0.0899 -0.0424  0.3663
28768W        W42182  12.589  17.578  10.252  0.0918 -0.0152 -0.2349
28769W        W42183  15.407   6.101   2.956  0.0185  0.0480 -0.1899
28770W        W42184  15.799   5.537   3.550  0.5970  0.0772  0.0259
28771W        W42185   6.402   4.956   4.425 -0.2321  0.0556 -0.0991
28772W        W42186  14.957  16.875   1.224 -0.0565 -0.1819 -0.0156
28773W        W42187  16.552  10.713  15.527  0.1991 -0.3742  0.3097
28774W        W42188   2.063   9.438   1.803 -0.0699  0.1654 -0.0464
28775W        W42189  12.270  13.955   1.229 -0.2426  0.0008  0.2843
28776W        W42190   4.594   3.395   4.136 -0.0074  0.0560  0.2928
28777W        W42191  12.232   7.883  13.108  0.1827 -0.0989  0.2006
28778W        W42192  13.520   5.419   3.870 -0.0421  0.0922 -0.0285
28779W        W42193  17.521  11.748  12.971 -0.0547 -0.0640 -0.0835
28780W        W42194   9.792   3.537  15.957  0.2590  0.1165  0.3426
28781W        W42195   8.337   2.764   4.081  0.0458  0.2204 -0.1301
28782W        W42196   5.725   0.931   0.933  0.2659 -0.1817  0.1794
28783W        W42197   9.020  16.987  11.401  0.0393  0.0741  0.0195
28784W        W42198  15.076   9.837  11.650 -0.0307  0.0365  0.2884
28785W        W42199  14.637   9.885  10.802 -0.1304  0.3064  0.0486
28786W        W42200   3.244  16.348  16.121 -0.1757 -0.3159  0.2587
28787W        W42201  14.718   1.692  13.181  0.2406  0.3595  0.1032
28788W        W42202   3.818   5.143  11.102  0.0258 -0.0975  0.1538
28789W        W42203  12.581  10.334   1.664 -0.0852 -0.0160 -0.1343
28790W        W42204  11.749   9.536   0.958 -0.2722  0.1940 -0.2023
28791W        W42205  15.795  16.202   5.975  0.0350 -0.1623 -0.4477
28792W        W42206  11.065  14.970  14.432  0.0395 -0.2332 -0.3606
28793W        W42207   1.249   3.766  11.081 -0.2824  0.0889 -0.2130
28794W        W42208  15.868   6.041   0.341 -0.4199 -0.5162  0.0381
28795W        W42209  17.653   0.513   0.729 -0.1967 -0.1933 -0.0116
28796W        W42210   6.711  10.423   0.936 -0.2152  0.1384  0.0013
28797W        W42211   8.668  13.195  15.839 -0.2816 -0.2381 -0.2164
28798W        W42212  12.113   6.529  12.315 -0.4422  0.0745 -0.0324
28799W        W42213  16.538  11.922   1.504 -0.1176 -0.1523  0.1182
28800W        W42214   1.254  10.468  15.688  0.0038 -0.2098 -0.2892
28801W        W42215  16.313   4.933   9.964 -0.0855  0.3562  0.0589
28802W        W42216  13.903  14.475   5.766 -0.2352  0.4016  0.0119
28803W        W42217  16.144  11.317  13.838  0.0447  0.1701  0.0113
28804W        W42218   6.488   1.880  14.084  0.0248  0.2465  0.0880
28805W        W42219   6.462   1.783   2.497  0.1307 -0.1621 -0.0057
28806W        W42220   7.583  10.306   0.361  0.2807 -0.0995  0.0384
28807W        W42221   1.160   5.302  14.131  0.0035 -0.1323 -0.0401
28808W        W42222  17.832  11.698  13.357  0.0448  0.1980  0.0354
28809W        W42223   9.609   9.841   1.974  0.1549  0.2023  0.1396
28810W        W42224   9.624   3.351   5.107 -0.1997  0.2071 -0.0748
28811W        W42225   7.219   4.259  15.091  0.0063  0.2082  0.2157
28812W        W42226   6.881   8.664   3.925 -0.0280 -0.2464 -0.0417
28813W        W42227   9.874  14.102  12.424  0.2105 -0.0028 -0.1764
28814W        W42228   1.666   5.632   2.116 -0.2093  0.2437 -0.0975
28815W        W42229   0.493   4.758  11.903  0.0334 -0.2067 -0.2968
28816W        W42230  11.785  11.532   1.795 -0.2351  0.0178  0.1903
28817W        W42231  17.441   4.626   2.430  0.1679 -0.2246 -0.2217
28818W        W42232  12.826   4.110  14.933 -0.3007  0.0921  0.0122
28819W        W42233  13.868   2.359   3.157 -0.0657 -0.0457 -0.0295
28820W        W42234  13.967   1.482  13.048 -0.0483  0.1207 -0.1530
28821W        W42235   3.141   4.682  15.650 -0.1402  0.1852  0.1179
28822W        W42236  14.643  17.638   3.135 -0.0206  0.1435  0.0678
28823W        W42237   4.721   3.514  11.852 -0.3360  0.0947 -0.2960
28824W        W42238   3.745  14.640   3.160 -0.0510 -0.2602 -0.4349
28825W        W42239   2.944  11.748  11.165  0.3696 -0.1136  0.2206
28826W        W42240  10.679  13.503   2.875  0.1051 -0.0868 -0.0447
28827W        W42241  17.790  16.208   0.326  0.1378  0.4088 -0.1642
28828W        W42242   8.636   4.516   2.906 -0.0819  0.0427  0.1302
28829W        W42243   3.156  10.013  13.959 -0.1037  0.3012  0.0713
28830W        W42244   7.925  11.536   5.219  0.0072 -0.3585  0.2345
28831W        W42245   0.649   5.703  16.041  0.3318 -0.1559 -0.1253
28832W        W42246   5.937  16.223   3.033 -0.1005  0.1795 -0.4755
28833W        W42247  17.926  16.766  15.657 -0.1478 -0.0539 -0.2896
28834W        W42248   0.832  11.779   0.587  0.0301 -0.0625  0.1039
28835W        W42249  14.409   4.564   2.675 -0.1877  0.1598 -0.2668
28836W        W42250   1.093   7.740   2.940 -0.2811 -0.0944 -0.3942
28837W        W42251  15.525   2.143   0.586  0.1844 -0.0708  0.2142
28838W        W42252   7.996   4.674  11.257  0.2921 -0.2701 -0.3062
28839W        W42253   5.313   0.379  13.392 -0.0794 -0.0855 -0.0619
28840W        W42254   4.486   0.209  13.942  0.2450 -0.4999  0.4706
28841W        W42255   3.483  11.105   5.466  0.4628  0.1166 -0.0686
28842W        W42256   8.938   3.534  15.479  0.0622 -0.3006  0.4228
28843W        W42257  10.464   0.842   0.497 -0.1289 -0.1699  0.2177
28844W        W42258  17.054   6.305  14.152 -0.0374  0.0743  0.2217
28845W        W42259   5.047  10.998   1.191 -0.4901  0.0663  0.2639
28846W        W42260   5.334   1.829  15.395 -0.2541  0.1014 -0.1577
28847W        W42261   7.376  11.007   2.418 -0.1051  0.3356  0.1572
28848W        W42262  14.044   8.958   6.154 -0.0515  0.0966 -0.1705
28849W        W42263   2.515   4.910  12.275 -0.3894 -0.0844 -0.5899
28850W        W42264   6.736   1.921  11.119  0.3561 -0.1795  0.3632
28851W        W42265  10.760   9.914   6.248  0.0926  0.0900 -0.2553
28852W        W42266   2.446  17.997   3.723 -0.1038 -0.0011 -0.4303
28853W        W42267   6.872  13.899   1.796 -0.0142 -0.1764 -0.1175
28854W        W42268   1.701  11.958  12.649  0.2423  0.3094 -0.1886
28855W        W42269   7.410  14.073  13.061 -0.1337  0.2048  0.0622
28856W        W42270  13.052   1.734  15.578  0.3354  0.1089 -0.0966
28857W        W42271   4.137   7.172  16.345  0.3113  0.1325 -0.4050
28858W        W42272   7.272  12.339  14.431 -0.1281  0.0798  0.2447
28859W        W42273  17.829   5.692  14.476 -0.0381 -0.1659 -0.0667
28860W        W42274   4.977  15.690  14.625 -0.2268 -0.1478 -0.0680
28861W        W42275  17.137   7.079   2.800  0.2097  0.1976 -0.0164
28862W        W42276  14.868   9.445  14.724 -0.1157 -0.0065  0.0150
28863W        W42277   4.581   8.761  10.744  0.2721 -0.2248  0.1552
28864W        W42278  15.668  14.242   6.234 -0.0682 -0.0305 -0.2235
28865W        W42279  10.476   3.960   4.810  0.0239  0.1571 -0.0177
28866W        W42280   9.251   9.100  13.831 -0.0754  0.0330  0.0198
28867W        W42281   7.387   6.181   0.583  0.1309 -0.0673  0.0988
28868W        W42282   9.901   9.005   4.098  0.2477 -0.1631  0.0995
28869W        W42283   2.544  11.501  12.552 -0.2467 -0.5426 -0.1706
28870W        W42284  13.606   9.040  14.749 -0.0652  0.1614  0.0717
28871W        W42285   0.796  13.579   1.052 -0.0194  0.1459 -0.1461
28872W        W42286   9.012   8.791   1.285  0.3486 -0.3447 -0.1386
28873W        W42287  13.059   3.966  15.820  0.0207  0.0548  0.0662
28874W        W42288   5.703  12.547   0.633 -0.0098 -0.2896 -0.2334
28875W        W42289  10.633   7.723  11.403  0.4078 -0.0873 -0.2584
28876W        W42290  15.201   7.024   9.876  0.0666  0.1651 -0.0726
28877W        W42291  14.438  11.701   6.248  0.3363  0.1135  0.1893
28878W        W42292   5.254  16.408   4.727  0.0127  0.0679 -0.0787
28879W        W42293   7.754  12.586  16.297  0.2655  0.0056  0.1660
28880W        W42294  11.583  18.046  14.205 -0.0562  0.2441 -0.2069
28881W        W42295  15.882   3.960  10.495  0.2090  0.0408  0.0036
28882W        W42296  14.852  17.600  14.099  0.0009 -0.2704 -0.1939
28883W        W42297  14.443  14.158   0.267 -0.0844 -0.3860  0.0291
28884W        W42298   3.508   7.159  11.009  0.0831  0.0207 -0.1482
28885W        W42299  16.381  13.237  15.767 -0.2050  0.2547 -0.1112
28886W        W42300  16.707  14.062   2.873  0.2265  0.1852  0.3693
28887W        W42301   1.126   2.345  12.408 -0.2761 -0.0254  0.2677
28888W        W42302  15.435  10.434  14.537  0.1159  0.0315 -0.0322
28889W        W42303  12.885   8.592  15.943 -0.0309 -0.2465 -0.2015
28890W        W42304   9.423  11.390   6.314 -0.2090 -0.1480  0.0526
28891W        W42305  17.847   6.834   4.734  0.0378  0.0946  0.1999
28892W        W42306   5.946  10.941   1.417  0.0096 -0.2507 -0.1262
28893W        W42307  10.685   7.161  14.469  0.1187 -0.1581 -0.0843
28894W        W42308  16.011   3.710   1.477  0.1377 -0.0740  0.1030
28895W        W42309   1.783   3.103  13.786  0.0799  0.0436 -0.2464
28896W        W42310   0.631   4.910   5.250  0.1700 -0.3765  0.2640
28897W        W42311   3.927   5.605  10.882  0.1424 -0.2702  0.2365
28898W        W42312  12.678   3.126  14.780  0.0580 -0.1748 -0.3230
28899W        W42313   5.154  16.088  14.965  0.1413 -0.3560  0.5071
28900W        W42314  15.282   5.496  15.529  0.1139 -0.0384 -0.2070
28901W        W42315  10.933  10.965  12.301  0.2407  0.0275  0.0263
28902W        W42316  10.990   6.853   5.457  0.0956  0.0970 -0.0860
28903W        W42317   6.500   3.217   2.443  0.0124 -0.0622 -0.0360
28904W        W42318   6.680   0.026   3.830  0.1273  0.0149 -0.2000
28905W        W42319   9.385   3.884  12.619 -0.0187  0.0528  0.1040
28906W        W42320  10.995  16.725   5.213  0.0633  0.1486  0.3091
28907W        W42321  14.557  18.063   0.737  0.1835 -0.0894 -0.0281
28908W        W42322  13.135  16.991   2.229 -0.2738 -0.1246  0.5198
28909W        W42323   3.427   1.447  10.657  0.0919  0.2618 -0.2014
28910W        W42324  16.913   1.407   1.389 -0.1580 -0.0356  0.1613
28911W        W42325  18.342  11.000   1.329  0.0736 -0.0625  0.1427
28912W        W42326  17.304  15.406  15.779 -0.2028  0.1570  0.1000
28913W        W42327  16.893   0.692  10.661  0.1361 -0.0214  0.0013
28914W        W42328  14.046  17.506   4.520 -0.0881  0.0327 -0.3202
28915W        W42329   4.392   4.466  16.327 -0.2929 -0.2152 -0.0172
28916W        W42330  10.868  11.744   3.576 -0.0864  0.0162 -0.0952
28917W        W42331  13.871  16.815  12.713  0.0704  0.0429  0.1589
28918W        W42332   5.367  15.537   1.681  0.2487 -0.1551 -0.1128
28919W        W42333   4.486   6.745   2.408  0.2344 -0.1214  0.1355
28920W        W42334  10.307   7.837   4.758 -0.0574  0.0123  0.4393
28921W        W42335  13.163  14.861  16.140  0.1620  0.1737  0.2660
28922W        W42336  14.927  10.879  10.692 -0.0827 -0.2187  0.4998
28923W        W42337  15.714  13.785   0.395 -0.1000  0.3022  0.1666
28924W        W42338  10.274   7.949   1.694  0.1988  0.0651  0.0509
28925W        W42339   0.570   7.469   3.787 -0.0668 -0.4490 -0.0133
28926W        W42340   5.425   7.867   4.374 -0.1160 -0.3396 -0.0281
28927W        W42341  10.090   9.044  11.664 -0.0132 -0.0495 -0.0054
28928W        W42342  17.150   2.449   6.183  0.1940 -0.2701  0.3530
28929W        W42343   2.119   3.476  15.974 -0.1753 -0.2541  0.1935
28930W        W42344   9.561   1.777  15.086  0.1082  0.1772  0.1260
28931W        W42345   1.896  15.056   5.298  0.0247 -0.1513  0.1248
28932W        W42346   6.166  10.016  16.057  0.0696  0.2699  0.2629
28933W        W42347  14.544   4.736  13.244  0.0327  0.0161 -0.2909
28934W        W42348  12.076   7.320  10.382  0.2249 -0.0181  0.1893
28935W        W42349   6.989   2.165  14.068 -0.0835 -0.0718 -0.0842
28936W        W42350   2.640  17.820   1.122 -0.0468  0.1731  0.1008
28937W        W42351   0.548   5.416  11.089 -0.2378  0.3294 -0.0773
28938W        W42352   1.558   3.638  15.188 -0.2026 -0.0775  0.3178
28939W        W42353   8.288  13.207  12.783 -0.1077  0.0228 -0.0512
28940W        W42354   0.057   7.301  13.004 -0.3510 -0.1293  0.2888
28941W        W42355   5.428  17.024   0.847 -0.4049  0.1890 -0.1649
28942W        W42356   2.324  11.099  10.400 -0.3113 -0.1014  0.1956
28943W        W42357   4.799  12.663   3.506  0.1687 -0.1065  0.3453
28944W        W42358   5.790   0.866   5.114 -0.0444  0.0488  0.0216
28945W        W42359  13.998  15.003  14.589  0.0749  0.0270  0.1835
28946W        W42360   8.162  12.988  15.597 -0.5225  0.1397  0.2736
28947W        W42361   0.698   2.591   1.831 -0.5365 -0.0263 -0.1317
28948W        W42362  14.841   8.687   4.904  0.1172 -0.3601  0.0883
28949W        W42363  15.971   8.601  12.076 -0.1221 -0.2970 -0.1374
28950W        W42364  17.871  12.127  15.814  0.2088  0.1164  0.0251
28951W        W42365  16.058   7.202  10.198 -0.2149  0.3179  0.1419
28952W        W42366   0.825  12.793  12.364 -0.1670 -0.0061 -0.0762
28953W        W42367   6.174  12.612   3.686 -0.1971  0.0553 -0.1695
28954W        W42368   0.859   6.638  11.892  0.4120  0.1010  0.0469
28955W        W42369   4.092  18.212   2.000 -0.0990  0.1114 -0.0100
28956W        W42370   8.297   8.431  11.664  0.1280  0.1795  0.2112
28957W        W42371  14.464  12.891   1.570 -0.0742 -0.2392  0.1031
28958W        W42372   8.035   2.379   3.854  0.0071 -0.1083 -0.1711
28959W        W42373  17.771  16.522   3.612  0.5269  0.1489 -0.0172
28960W        W42374   0.437  13.186   3.583 -0.4544 -0.3437 -0.0004
28961W        W42375   5.694   3.150  15.526 -0.1836 -0.2860 -0.0832
28962W        W42376   1.904  12.801   4.857  0.0149 -0.0671 -0.0311
28963W        W42377   5.766  10.969  13.612 -0.2978  0.0825  0.2943
28964W        W42378   1.576   1.625  11.677 -0.1062 -0.0873 -0.0987
28965W        W42379  17.145  13.330  12.279  0.1108 -0.0316  0.0012
28966W        W42380   2.943   3.539  14.236  0.1416  0.0977  0.2564
28967W        W42381  18.028   3.545   5.989 -0.0961  0.0556 -0.0179
28968W        W42382  18.277  14.600   4.619 -0.0653  0.2905  0.1265
28969W        W42383  14.085   1.371   4.648 -0.2908 -0.0525 -0.2328
28970W        W42384  14.404   8.691   1.332 -0.0934  0.0851 -0.1928
28971W        W42385   7.799  17.159   4.424  0.2858 -0.0794 -0.0806
28972W        W42386  14.183   3.173  12.838  0.0731  0.1687 -0.0440
28973W        W42387   8.237  15.406   4.039  0.2314 -0.2671  0.0287
28974W        W42388  12.332  13.838   3.863 -0.0806 -0.0578 -0.3289
28975W        W42389  10.400  15.399  15.711 -0.2467 -0.2566 -0.3496
28976W        W42390   1.834  17.892  13.202 -0.0522  0.2982 -0.1471
28977W        W42391   6.628  17.614  10.047  0.2428  0.3588 -0.1623
28978W        W42392   6.164  16.756   0.428 -0.1584 -0.2986 -0.0307
28979W        W42393  16.327  14.200  12.743  0.1302 -0.2799  0.1469
28980W        W42394  11.516  17.837  13.237  0.1328  0.2066  0.0586
28981W        W42395  11.569   2.759   5.044 -0.1588 -0.2291 -0.1287
28982W        W42396  14.307   8.845  12.384  0.0871  0.0771 -0.2338
28983W        W42397  10.866   4.188   3.181 -0.0289 -0.0833 -0.4961
28984W        W42398  15.375   7.110  12.216 -0.1433 -0.1375 -0.0665
28985W        W42399   5.869  11.186  14.569  0.1214  0.1651  0.0228
28986W        W42400   3.929   8.158   5.500  0.0450 -0.1391 -0.2760
28987W        W42401   3.933   1.998  11.433 -0.3059 -0.5331  0.0781
28988W        W42402  12.558   8.010  14.185 -0.0435  0.1926 -0.0992
28989W        W42403  13.545   4.214   1.470  0.0318  0.2733 -0.6179
28990W        W42404   3.719   0.331   0.454 -0.1651 -0.1841  0.0511
28991W        W42405   3.022   3.158  14.570  0.1376  0.3450  0.0241
28992W        W42406  13.275   4.825  10.933 -0.1790  0.0222 -0.1963
28993W        W42407   4.610  10.672   1.177 -0.0896 -0.4233 -0.3144
28994W        W42408   1.201  12.980   6.304 -0.1668 -0.1375 -0.1846
28995W        W42409   6.400   5.100   5.280 -0.1889 -0.0805 -0.1666
28996W        W42410   5.098  15.492  15.138  0.0821 -0.0265  0.0132
28997W        W42411   1.701  16.627  13.356  0.0192 -0.2968  0.2523
28998W        W42412  12.193   8.784  12.855  0.2002 -0.0179  0.0395
28999W        W42413  12.929   2.836   9.859  0.2427 -0.0164  0.1296
29000W        W42414  11.620  16.442   0.245 -0.1762  0.0765 -0.2718
29001W        W42415  12.259   2.327   4.689 -0.0974  0.1763  0.2298
29002W        W42416  15.290  15.645   3.468  0.0785 -0.0117  0.1682
29003W        W42417   7.119  10.767   0.816 -0.2497  0.3025  0.0494
29004W        W42418   7.501   9.565   3.810 -0.0079 -0.1568 -0.0356
29005W        W42419   3.989   4.566   0.787 -0.0256  0.2367  0.0421
29006W        W42420   6.341  11.648   4.793  0.4280  0.0749  0.2086
29007W        W42421   5.114  15.623  13.184  0.1726  0.1369  0.1241
29008W        W42422  11.248   1.636  14.672  0.0905  0.2527 -0.2657
29009W        W42423   6.496  11.532   5.736  0.2540  0.2023 -0.1419
29010W        W42424   9.624  12.474  14.341  0.0636 -0.1396  0.0941
29011W        W42425   5.967   8.960   5.515  0.2602  0.4886 -0.5619
29012W        W42426  13.727   3.738   4.396 -0.2667 -0.0651 -0.0942
29013W        W42427   6.719  11.757   5.180  0.1523  0.0680  0.0043
29014W        W42428   8.136  11.477   0.244 -0.1715  0.3645  0.3640
29015W        W42429  18.319  15.556  13.208  0.1403 -0.0213 -0.2184
29016W        W42430  14.244  16.999   2.567 -0.3063  0.0879  0.1985
29017W        W42431   9.707  11.066   4.238 -0.1221  0.3021 -0.0936
29018W        W42432  11.971  15.164  11.496 -0.1395  0.0569 -0.1907
29019W        W42433  12.998  17.535  14.561  0.3757  0.1384  0.0763
29020W        W42434  11.521   5.175   1.809  0.1719 -0.2312  0.5156
29021W        W42435   6.796  15.747   2.308 -0.0041 -0.0815 -0.0190
29022W        W42436   5.302   7.813   0.687  0.0440  0.0268  0.2315
29023W        W42437   2.371   6.679  14.927 -0.0022 -0.0522 -0.1679
29024W        W42438   3.974  18.049   3.155  0.0621  0.1551  0.0117
29025W        W42439   9.923  13.038  13.619 -0.1187  0.0611 -0.0936
29026W        W42440  14.230   0.170   0.369  0.2417  0.2052  0.0751
29027W        W42441  12.598  15.059  12.505  0.0359  0.0426 -0.0058
29028W        W42442   6.544   6.302  11.404 -0.2740  0.0990  0.1084
29029W        W42443  12.630   2.343   2.563  0.0665  0.1036  0.0486
29030W        W42444   7.255  11.425   5.370  0.0227  0.1082 -0.1361
29031W        W42445   8.370  11.123  10.817  0.3162 -0.1228  0.2166
29032W        W42446   7.618  10.568  10.809 -0.1158 -0.0262  0.1190
29033W        W42447   5.327   1.644   1.724 -0.1833  0.1827 -0.3364
29034W        W42448   0.585   3.841  15.500  0.0070  0.0153 -0.1857
29035W        W42449   6.232  16.884  12.202  0.0174 -0.0681  0.1676
29036W        W42450   5.989   2.408   9.934 -0.0303 -0.2159 -0.0264
29037W        W42451   7.043  16.332   0.847  0.0390 -0.3223  0.0784
29038W        W42452  13.607   2.282  14.075 -0.3236 -0.0165  0.1328
29039W        W42453  15.265   9.898   1.933 -0.3105 -0.0155  0.1164
29040W        W42454  17.416  16.663  12.192  0.2104 -0.1544  0.0265
29041W        W42455   7.944  18.254  14.177 -0.1502  0.0172  0.1261
29042W        W42456  15.731   1.502   4.182  0.3331  0.0923  0.0062
29043W        W42457   6.866   6.166   0.662  0.4130 -0.1531  0.2761
29044W        W42458  10.664   1.380   0.452 -0.0800  0.1043 -0.1498
29045W        W42459   1.112  11.092  16.372  0.0557  0.0569 -0.2380
29046W        W42460   9.689   1.813  13.392  0.1240  0.1170  0.1856
29047W        W42461   9.950   3.156   4.738 -0.1207 -0.0319 -0.0136
29048W        W42462   3.193   0.652   3.052 -0.0843 -0.1808  0.1763
29049W        W42463  16.155   8.872  14.494  0.0147  0.2141  0.0659
29050W        W42464   8.041   2.824  13.148 -0.0654  0.2481  0.1387
29051W        W42465   3.381  13.624   2.877 -0.1859  0.3781 -0.1558
29052W        W42466   0.110   7.554  16.164 -0.1426 -0.2669 -0.0422
29053W        W42467  10.239   6.410   1.516 -0.1550  0.2566 -0.1855
29054W        W42468  15.434  12.463   5.723 -0.1170  0.2542 -0.0073
29055W        W42469  10.040   6.491  14.910 -0.0476  0.1529  0.2533
29056W        W42470   4.748   2.659  12.736  0.2615 -0.2144  0.0984
29057W        W42471   0.297   0.521  14.946  0.0306  0.0365  0.2017
29058W        W42472   5.820   7.403  15.886 -0.2690 -0.2913 -0.0659
29059W        W42473   6.381   2.338   3.999  0.1022 -0.2418 -0.1245
29060W        W42474   2.464   6.411   1.489 -0.0430 -0.1764 -0.2152
29061W        W42475  15.922   4.768  10.801 -0.0282 -0.1035  0.1589
29062W        W42476  10.009   4.677  12.855 -0.0515  0.0608  0.2782
29063W        W42477   5.782   8.755   2.087 -0.0921  0.0139  0.3151
29064W        W42478   3.081   7.926  14.932 -0.2340  0.1679  0.0762
29065W        W42479   4.644  13.519   1.223 -0.0117  0.1032  0.0262
29066W        W42480   9.703   3.232   2.396 -0.1626 -0.0857 -0.3332
29067W        W42481  11.474   0.460   3.338  0.1967  0.2122  0.2364
29068W        W42482   3.283   4.731  16.181 -0.2443  0.3196  0.0306
29069W        W42483   7.348   2.519  10.850  0.2444  0.0589  0.0305
29070W        W42484   7.287  12.886   2.236 -0.1024 -0.1811 -0.2419
29071W        W42485  11.812  10.617  14.446  0.1379  0.1353 -0.1947
29072W        W42486   0.717  14.318  11.066  0.0139  0.0414  0.0224
29073W        W42487   7.414  12.255  16.116 -0.0824 -0.0798  0.0201
29074W        W42488   1.702  13.638  11.959 -0.1605  0.3452  0.3209
29075W        W42489  15.120   9.797   3.783 -0.1052 -0.0151 -0.1487
29076W        W42490  14.413   8.322   0.605 -0.2748 -0.4687  0.0332
29077W        W42491   0.672   1.311  13.509 -0.2041 -0.0083  0.2248
29078W        W42492  11.012  15.271  15.747  0.2053  0.0387  0.1463
29079W        W42493  16.662  12.032  14.520  0.3991  0.1095  0.2702
29080W        W42494   9.187   1.426   5.161 -0.0109  0.0321 -0.1380
29081W        W42495   3.921  16.852  12.470 -0.1154 -0.1542 -0.2332
29082W        W42496  17.777   1.169  13.978  0.0684 -0.0403 -0.2382
29083W        W42497  15.903   1.345   4.663  0.1359 -0.1405  0.4426
29084W        W42498   2.665   3.789   2.346  0.3358  0.3461 -0.0109
29085W        W42499  11.251   3.412   1.693 -0.2170 -0.3609  0.2824
29086W        W42500   7.720  13.386   5.754 -0.2799  0.2013 -0.0371
29087W        W42501  14.165   4.746  11.279  0.1813  0.0821  0.2506
29088W        W42502  13.845  12.624  13.319  0.0385 -0.2409  0.4045
29089W        W42503   1.206   9.401   4.807  0.0331  0.1689 -0.0608
29090W        W42504  12.761   7.253  12.270 -0.1668  0.0186  0.0379
29091W        W42505  17.146  18.120  16.132  0.2313  0.2997  0.1492
29092W        W42506   1.038  14.535  13.885 -0.0866 -0.2806  0.1882
29093W        W42507   3.427   8.261  11.625  0.1641  0.0138 -0.0766
29094W        W42508  12.448   7.426  15.403  0.4745  0.0591  0.0073
29095W        W42509   4.684   6.023  13.959  0.1002 -0.0404  0.0966
29096W        W42510  15.308   5.569   0.680  0.1026  0.2441 -0.1529
29097W        W42511  14.690   3.486  15.114 -0.2067 -0.0985 -0.3922
29098W        W42512  12.894   5.044  12.922 -0.0124 -0.0343 -0.3305
29099W        W42513  11.711   6.506   4.163 -0.2958  0.0117 -0.0990
29100W        W42514  11.207   8.136  14.141 -0.3377  0.0617 -0.1436
29101W        W42515   4.543   7.986  16.173 -0.3646  0.1406  0.2917
29102W        W42516  18.369   4.533   4.008  0.0793 -0.0170 -0.2057
29103W        W42517   1.473   1.256   1.483 -0.0373 -0.0736 -0.1452
29104W        W42518  11.226   7.753   1.900 -0.1476 -0.1709 -0.0781
29105W        W42519   6.534   1.075  15.086 -0.0994  0.5733 -0.0793
29106W        W42520   5.085   9.649   2.288  0.1596  0.0414  0.1112
29107W        W42521  17.531  13.143   0.838 -0.0767  0.0712 -0.0209
29108W        W42522  11.990   9.201   1.268 -0.0356  0.1230  0.0820
29109W        W42523   0.111   8.179   0.395  0.0712 -0.2106 -0.0726
29110W        W42524  17.172   0.474  14.117 -0.0339  0.1149 -0.1198
29111W        W42525   3.050   5.178   4.973  0.1904  0.1652 -0.1431
29112W        W42526   3.759  12.019  11.672 -0.2080  0.1046 -0.2859
29113W        W42527   6.962  12.488  16.132 -0.2315  0.1055 -0.0897
29114W        W42528  16.587   0.413  10.925 -0.0770  0.0270  0.1818
29115W        W42529   3.163   5.670   1.870  0.1914  0.0899 -0.1289
29116W        W42530  12.836  16.608  16.429  0.0423  0.0595 -0.1173
29117W        W42531   2.958   6.317  11.999  0.1684 -0.1770  0.0287
29118W        W42532   8.353  10.707   2.914  0.0709  0.3110  0.3162
29119W        W42533  13.956   5.370  13.546  0.2650 -0.0885 -0.0527
29120W        W42534  13.530  14.834  13.243 -0.1637 -0.2108 -0.0115
29121W        W42535  10.882   6.133  14.407  0.0321  0.2747 -0.0652
29122W        W42536   2.364   1.941   3.775  0.2044 -0.1823  0.0061
29123W        W42537   9.824   6.354  12.355  0.3508 -0.1438  0.0414
29124W        W42538  17.219  10.871   1.327  0.3553  0.3449  0.2304
29125W        W42539  15.117  14.277   0.808 -0.2089 -0.1451  0.3483
29126W        W42540   8.952  13.086   0.885  0.3121  0.5587  0.2349
29127W        W42541  12.413  11.937  11.506 -0.4286  0.0573 -0.0347
29128W        W42542  10.049   0.629  13.249 -0.2832  0.2981 -0.0800
29129W        W42543   0.171   3.320   5.629 -0.2950  0.1299  0.0193
29130W        W42544   9.606   6.734   3.020 -0.1609  0.4516  0.0268
29131W        W42545   2.770   2.483   2.342 -0.0201 -0.2973  0.1523
29132W        W42546   4.408  13.481   5.309 -0.1630 -0.1633  0.0018
29133W        W42547   1.510   9.450   2.518  0.0617  0.0015 -0.1487
29134W        W42548  14.424   8.039   3.796 -0.1276 -0.0710 -0.3793
29135W        W42549   7.385  11.211   3.382  0.1260  0.2317  0.2049
29136W        W42550   7.140   1.083   3.819 -0.0553  0.3194  0.0843
29137W        W42551  16.736   7.977  11.798  0.1045 -0.1051 -0.1401
29138W        W42552   7.530   5.928   4.579 -0.1272 -0.0055  0.1755
29139W        W42553   4.675   6.898  16.360 -0.2608 -0.0446 -0.1608
29140W        W42554  16.502   3.041   4.787  0.0247 -0.0559  0.1871
29141W        W42555  13.115  18.046  13.056 -0.3338 -0.3180  0.2464
29142W        W42556   1.046  10.738   4.515  0.0626 -0.0060 -0.2719
29143W        W42557   2.041  14.707   1.549  0.0708  0.1286  0.1680
29144W        W42558  12.362  12.827  11.558  0.1160  0.1342  0.2835
29145W        W42559  17.668  13.379  15.969 -0.1291 -0.0641 -0.0416
29146W        W42560   9.096   5.891   4.537 -0.2199 -0.2195  0.2318
29147W        W42561  12.576   7.653   1.712  0.1204 -0.1838 -0.2124
29148W        W42562  10.899   0.413   3.798 -0.1169 -0.0752  0.1595
29149W        W42563  15.166   7.674  14.913  0.0398 -0.0212 -0.2245
29150W        W42564  11.209   4.522   4.501 -0.1375 -0.0510  0.0271
29151W        W42565   4.135  14.154  15.247  0.2769  0.2367  0.2484
29152W        W42566  16.853  18.172   3.582  0.3210  0.0311  0.2883
29153W        W42567   7.130   3.782   2.267  0.1354 -0.0045  0.0596
29154W        W42568   8.809   4.891   4.658  0.1259 -0.2164  0.3589
29155W        W42569  17.693  16.186   3.964  0.2474 -0.2386 -0.0392
29156W        W42570   9.461   4.584  15.870 -0.3051 -0.2494  0.1078
29157W        W42571   8.328  15.312   4.777  0.1610 -0.0993  0.0220
29158W        W42572  13.861   0.458  14.138 -0.0280  0.0584  0.0934
29159W        W42573   8.164  13.892   1.945  0.1201  0.0470 -0.4158
29160W        W42574  16.464  13.011  13.441 -0.1447  0.0461 -0.1364
29161W        W42575   1.019  17.216  15.838 -0.0511  0.2520 -0.2878
29162W        W42576   7.610   8.717  15.619  0.1188 -0.2103 -0.3676
29163W        W42577  17.528  15.785  14.352  0.0085 -0.0049 -0.2707
29164W        W42578   8.274   2.157  11.059  0.2940  0.1392  0.1009
29165W        W42579  13.895  16.735   5.095 -0.0146  0.1441 -0.2413
29166W        W42580   8.842   8.294  14.307  0.1084 -0.5420  0.2627
29167W        W42581   7.866   0.823  14.034  0.3071 -0.0072 -0.0367
29168W        W42582   4.040   3.535   0.815 -0.0915 -0.0142 -0.1536
29169W        W42583   8.620  16.344  11.573 -0.0332 -0.3306 -0.1957
29170W        W42584   4.236  17.717  11.449 -0.0713 -0.2094 -0.2964
29171W        W42585  16.744   2.682   6.495  0.1562  0.2110 -0.1444
29172W        W42586   8.665  15.264  15.215 -0.0617  0.0013 -0.0294
29173W        W42587   3.449   6.898  14.149  0.1414  0.3213  0.1222
29174W        W42588   7.430   7.648   2.440  0.5863 -0.1681 -0.4021
29175W        W42589   1.581   1.040   1.947 -0.0041 -0.2253 -0.0834
29176W        W42590   9.429  13.461  14.226 -0.0113 -0.0147 -0.0585
29177W        W42591   2.903   2.182   4.972 -0.1732 -0.0268  0.0707
29178W        W42592   1.441   9.445  15.038  0.0416  0.0878  0.1250
29179W        W42593   5.795  10.012   3.391  0.0057 -0.1599  0.3187
29180W        W42594  14.030   0.073   2.974  0.2211  0.0701  0.2923
29181W        W42595   6.522  17.028  12.763 -0.2088  0.3152  0.0368
29182W        W42596  15.418   8.006  15.330 -0.3535 -0.0643 -0.3461
29183W        W42597  11.488   5.610   3.581 -0.4374 -0.0460 -0.2659
29184W        W42598  13.198  14.004   3.893  0.1674  0.0682 -0.2104
29185W        W42599  14.538  17.480  15.438 -0.1297  0.3201  0.1623
29186W        W42600  12.788   6.674  14.462 -0.0606 -0.2306 -0.1341
29187W        W42601  10.231  11.438   1.016  0.0465 -0.0743 -0.4214
29188W        W42602  11.235   2.645  11.826 -0.0791  0.2916 -0.0724
29189W        W42603   4.952   1.997  10.853  0.2124  0.1886  0.1958
29190W        W42604   7.387   6.963   4.646 -0.0977 -0.1262  0.1159
29191W        W42605   8.613   2.361  14.687 -0.1334 -0.0513  0.2731
29192W        W42606  18.221   4.971   5.000  0.2172  0.0748 -0.1593
29193W        W42607   0.592   6.216  11.816  0.2190 -0.1469 -0.0913
29194W        W42608   8.764  11.377   1.254  0.0195 -0.0136  0.2185
29195W        W42609  15.568  16.232   5.267  0.0255 -0.1192 -0.1304
29196W        W42610   6.986   5.957   2.644  0.0411  0.1453 -0.0012
29197W        W42611  14.975  16.804  12.892 -0.2186 -0.1389  0.2415
29198W        W42612   0.066   4.542  11.564  0.1056  0.1383 -0.2135
29199W        W42613   0.490  13.902  15.048  0.1199 -0.0749  0.1730
29200W        W42614  12.713   9.742  16.010  0.1324  0.5164  0.3135
29201W        W42615  11.782  15.777  15.957 -0.1285  0.0432  0.1748
29202W        W42616   5.000  13.020  10.534 -0.1469  0.0862  0.2610
29203W        W42617   7.478  15.407  14.087  0.1299 -0.2653 -0.1249
29204W        W42618   6.460   6.991   5.122 -0.1033  0.0736  0.3182
29205W        W42619  10.260   8.718   4.390 -0.1748  0.3089 -0.0757
29206W        W42620   2.631   8.340  12.685  0.1262  0.1160 -0.5025
29207W        W42621  16.252  18.365  13.612 -0.1696  0.0752  0.1470
29208W        W42622  10.397   6.954  11.368 -0.0674  0.0627  0.2546
29209W        W42623   3.317  10.018   2.935 -0.0561  0.2107 -0.0653
29210W        W42624   0.194  13.147   5.822  0.2334 -0.0931 -0.0993
29211W        W42625   4.187  12.541  11.174  0.0687 -0.0115  0.2377
29212W        W42626  15.300   8.396   2.117 -0.2499 -0.2157  0.0533
29213W        W42627   0.879  15.630   1.332 -0.0462 -0.4920 -0.0474
29214W        W42628   0.304   1.094   5.668 -0.0111 -0.0251  0.0872
29215W        W42629  14.358   8.345  15.414  0.1247  0.1629  0.2030
29216W        W42630   5.879  16.160   3.985 -0.1331  0.1230 -0.0571
29217W        W42631  15.811   8.145  13.849 -0.0508 -0.1723  0.2226
29218W        W42632  17.382   8.252   3.565 -0.3877 -0.1177  0.2155
29219W        W42633  12.737  17.336  13.786 -0.0473 -0.0452  0.1222
29220W        W42634  10.358  17.183   1.414 -0.2282 -0.0441 -0.2927
29221W        W42635   3.314  16.258  12.891  0.2157  0.1570 -0.0887
29222W        W42636   0.728  12.419   0.823 -0.1227 -0.0612 -0.0267
29223W        W42637   3.878   4.711   2.294 -0.2315 -0.1022  0.0334
29224W        W42638   8.365   9.442  15.939  0.2276 -0.3263  0.2880
29225W        W42639  11.370  11.555   3.539  0.4932 -0.0163  0.3508
29226W        W42640   0.558   3.040   5.430  0.3000  0.1111  0.1395
29227W        W42641   0.078  17.340  13.796 -0.1853  0.0327  0.0628
29228W        W42642  17.634   7.947   3.255 -0.1895  0.0105 -0.1835
29229W        W42643   2.142  16.930  11.043  0.4828 -0.3061 -0.0943
29230W        W42644   9.010   7.986   5.615 -0.1860  0.1084 -0.2053
29231W        W42645  15.490   1.088   4.029  0.2020  0.0193 -0.2841
29232W        W42646  15.348  12.805   1.558 -0.3155  0.2510 -0.0459
29233W        W42647   5.716   3.831  13.486 -0.0140 -0.0996  0.1347
29234W        W42648  10.307   1.068  12.128 -0.0737  0.0275 -0.0344
29235W        W42649  10.236   8.437  12.431 -0.3628  0.1891  0.2758
29236W        W42650   1.834  15.648   3.063 -0.0366 -0.1536  0.2514
29237W        W42651  13.224   0.250  12.915  0.0144  0.0263  0.1355
29238W        W42652  16.197   3.046  13.267  0.0905  0.1802  0.0131
29239W        W42653  16.439   8.517  11.787 -0.1926 -0.0054 -0.0602
29240W        W42654   8.314  13.975  10.948  0.0022  0.4615  0.0415
29241W        W42655  11.179  18.373  16.021  0.4093  0.0782  0.0949
29242W        W42656   6.165   3.188  12.382  0.0355 -0.1579 -0.4153
29243W        W42657  11.440  11.046  14.518 -0.0481  0.2674 -0.1507
29244W        W42658  11.351  11.892   0.575 -0.0130  0.0593 -0.0459
29245W        W42659  16.418   8.734   0.854  0.2411 -0.2033 -0.1628
29246W        W42660  12.868   7.542  11.815 -0.1871  0.1149 -0.3232
29247W        W42661  12.497  16.272  13.160  0.2009  0.1900  0.0593
29248W        W42662  17.511  14.522  14.216 -0.3346  0.0550 -0.0363
29249W        W42663   1.420  17.244   1.570  0.3007  0.0858 -0.1451
29250W        W42664   9.833  17.901  13.104 -0.0824 -0.0282  0.1805
29251W        W42665  13.373  12.157  16.072 -0.0812 -0.0346 -0.2838
29252W        W42666  17.745   4.644   2.824  0.1544 -0.0887  0.1608
29253W        W42667   3.248   4.104  14.426  0.3555  0.0694 -0.3069
29254W        W42668   4.459  18.053   3.145  0.1498  0.0042 -0.0959
29255W        W42669   8.016   0.419  13.647 -0.1159  0.1066 -0.0990
29256W        W42670  11.727   6.685  15.467 -0.0621 -0.0679  0.1809
29257W        W42671  11.714   3.914  14.156 -0.0100  0.0796  0.5622
29258W        W42672   2.421   6.993  15.582 -0.1097 -0.2854  0.0920
29259W        W42673   5.563   4.459   4.903 -0.2775  0.2089 -0.2501
29260W        W42674  13.158  15.512   4.079 -0.2623 -0.0765 -0.3987
29261W        W42675   1.249  16.005   0.513 -0.0343 -0.1414 -0.1952
29262W        W42676  12.046   3.178   2.848  0.0760  0.0048 -0.0382
29263W        W42677   2.081  13.546  14.770  0.4157  0.1497 -0.4575
29264W        W42678   2.117  14.347  10.905  0.1918 -0.1643  0.2471
29265W        W42679  10.441   3.187  13.433  0.0579 -0.1303 -0.1647
29266W        W42680  12.976   9.803   5.795  0.1197  0.3087  0.0418
29267W        W42681   4.086  12.388  11.662  0.0185 -0.0523  0.1501
29268W        W42682  17.170  14.827   1.816  0.0902 -0.0310  0.1625
29269W        W42683  17.446   8.555  12.239  0.0433 -0.3350 -0.0302
29270W        W42684   2.882  17.720   2.400 -0.3837  0.0500 -0.2368
29271W        W42685  16.842  16.056  14.623  0.3324 -0.2024  0.0583
29272W        W42686   0.405  16.516   1.643 -0.2453 -0.1040 -0.0062
29273W        W42687   9.396   4.883  14.571  0.0330 -0.0879 -0.0576
29274W        W42688   4.068   9.491  10.982 -0.0932 -0.0961  0.0598
29275W        W42689   5.928  15.898   3.457  0.1057 -0.1972 -0.2778
29276W        W42690  11.975  15.310   2.848 -0.0555  0.2948 -0.1006
29277W        W42691  14.187   6.108  11.016 -0.0464 -0.0224 -0.5194
29278W        W42692   7.106  17.777  13.866  0.0877  0.0356  0.2935
29279W        W42693   6.165  14.249  10.332  0.3744  0.2354 -0.1096
29280W        W42694  12.230   2.037  10.623  0.2117  0.0024 -0.2636
29281W        W42695   4.423   6.191   5.636  0.1786 -0.2169  0.0847
29282W        W42696   7.651   3.648   2.219 -0.0328  0.1370 -0.0319
29283W        W42697  10.461   5.854  14.364 -0.1847 -0.1669 -0.3080
29284W        W42698   5.994  12.494   0.173 -0.0468  0.0895 -0.1611
29285W        W42699  15.211  14.415  13.912 -0.0977  0.0241 -0.2952
29286W        W42700   6.430   0.172  15.043  0.2647  0.0129 -0.0001
29287W        W42701   9.830  17.295  10.970 -0.4023 -0.3156  0.0128
29288W        W42702  13.690   1.452  16.289 -0.2417 -0.1675  0.0193
29289W        W42703   5.490  18.108   1.524  0.1114 -0.0488  0.0406
29290W        W42704  10.892   2.389   4.935  0.2728  0.1420  0.2634
29291W        W42705   4.244   6.486   0.581 -0.1041  0.1684 -0.0359
29292W        W42706   8.892   7.804  14.104  0.1455  0.2340  0.1822
29293W        W42707   7.922   0.162  13.152  0.0643 -0.0973  0.0777
29294W        W42708   1.759   6.912  12.758  0.2700 -0.1865 -0.0495
29295W        W42709   9.717   3.326   3.742  0.2093  0.0474  0.0355
29296W        W42710   2.037   7.136   2.704 -0.2273  0.2556 -0.1687
29297W        W42711  17.160  12.029   3.564  0.1883  0.2822 -0.2544
29298W        W42712  10.032  17.110  15.929 -0.2238  0.0016 -0.0403
29299W        W42713  17.352  14.905   6.831 -0.1514 -0.2639 -0.1320
29300W        W42714  14.654  18.101  16.020 -0.2931  0.1709 -0.2449
29301W        W42715   8.744  17.789  13.825  0.0116  0.2481  0.0991
29302W        W42716  12.574   1.220  15.774  0.0483  0.5678  0.1041
29303W        W42717   3.450  11.354   4.636  0.0819  0.0009 -0.2315
29304W        W42718   5.891   3.942   3.505 -0.1020  0.3637 -0.1128
29305W        W42719   6.041   3.966  12.618  0.3127 -0.2309 -0.0139
29306W        W42720  13.073  12.930  15.913  0.5023  0.0546  0.1493
29307W        W42721   8.045  12.009   5.138  0.1266  0.0389 -0.1860
29308W        W42722  14.915   6.509   1.671 -0.1475 -0.1665 -0.0992
29309W        W42723   3.996   0.680  11.961 -0.3013  0.0222  0.0697
29310W        W42724   0.312   9.044  10.915 -0.2603 -0.2609 -0.2219
29311W        W42725   9.015  15.265   3.062  0.0101 -0.0689  0.0110
29312W        W42726  10.432   4.749   1.221  0.0216 -0.0890 -0.0250
29313W        W42727   7.187   0.186   3.546 -0.1936  0.0064  0.0057
29314W        W42728   6.746   2.642   0.175  0.0610 -0.0885  0.0823
29315W        W42729  16.631   7.548  13.214  0.0251 -0.0840 -0.1510
29316W        W42730   9.894   1.903   4.041 -0.0417  0.2259 -0.0668
29317W        W42731  12.079   8.166   3.544  0.0361  0.0250  0.2046
29318W        W42732   2.022  11.560  14.131  0.1483 -0.0063 -0.3469
29319W        W42733   6.281  17.755   2.618  0.1711  0.2325 -0.3386
29320W        W42734   1.691   3.746   0.344  0.0350  0.0355  0.1851
29321W        W42735  18.324  12.030   1.311  0.1320  0.1378  0.3062
29322W        W42736   8.546   2.702  10.368 -0.2269  0.2278 -0.2064
29323W        W42737   6.315   7.677   4.406  0.0328  0.0362 -0.1931
29324W        W42738  10.325   9.089   4.747  0.1088  0.1925 -0.0689
29325W        W42739  16.922   6.855  11.394 -0.1171  0.3737  0.2787
29326W        W42740  16.943  15.917   1.761  0.4189  0.0660 -0.1853
29327W        W42741  16.569   4.580  14.060 -0.1431 -0.0487 -0.0312
29328W        W42742   2.724  11.220   0.852  0.0126  0.3312  0.0471
29329W        W42743  10.178  16.790   2.264 -0.0009 -0.1138  0.1150
29330W        W42744  11.667   6.519   5.699  0.2441  0.1399  0.4546
29331W        W42745  13.175   4.689  13.229  0.1705 -0.2413  0.2530
29332W        W42746  11.914  14.390  10.832  0.1808  0.3025  0.1127
29333W        W42747   0.761  12.033   2.250 -0.0200  0.2286  0.0532
29334W        W42748   4.783   1.128  10.934 -0.2285  0.0484 -0.0767
29335W        W42749  16.144   6.029   3.530 -0.0864  0.0466 -0.1229
29336W        W42750   3.201   5.956   1.441  0.3066  0.3310  0.0053
29337W        W42751   1.139   3.225   0.566 -0.0475 -0.1217 -0.0171
29338W        W42752  17.522  14.040  12.533  0.3115 -0.0361  0.1093
29339W        W42753  10.621  10.886   4.780  0.1845 -0.0034  0.0081
29340W        W42754   7.825   7.811  15.494 -0.0200  0.1533  0.2274
29341W        W42755   4.063  10.666   5.757 -0.1869 -0.0088 -0.1329
29342W        W42756  10.943   9.971   9.715 -0.0891  0.1132  0.0502
29343W        W42757  13.718  17.908   4.331 -0.0189 -0.2187 -0.0706
29344W        W42758  10.654   5.286  11.038 -0.0601  0.1622 -0.0957
29345W        W42759  16.073  11.436   3.334 -0.0731  0.1306  0.0388
29346W        W42760   0.575  11.050  10.227 -0.0256 -0.3565 -0.0947
29347W        W42761  12.547  16.163   4.238 -0.1808  0.4395 -0.0968
29348W        W42762   2.499  14.840  11.010 -0.1244 -0.1712 -0.0058
29349W        W42763  18.283  11.487  14.027 -0.0180  0.1857 -0.0061
29350W        W42764  17.626   7.555  11.254  0.1163 -0.1122  0.0239
29351W        W42765  17.223  16.529  10.305  0.0342 -0.1287 -0.3047
29352W        W42766   4.032   5.275  14.825  0.2313 -0.2956 -0.1178
29353W        W42767   0.962   7.969  11.200 -0.0996 -0.0782 -0.1587
29354W        W42768   8.222   1.252   5.913 -0.0928  0.2627  0.1846
29355W        W42769   6.136  18.205  13.046 -0.2854  0.0844 -0.0624
29356W        W42770   3.038  12.797  15.713 -0.0569 -0.2341  0.2198
29357W        W42771   5.168   2.828  11.309 -0.3970  0.0565  0.4150
29358W        W42772  17.228  18.098  13.671  0.2498  0.0517 -0.1300
29359W        W42773  17.210  15.244   2.941 -0.1424 -0.0369  0.0423
29360W        W42774   0.423  16.934   2.156 -0.1486 -0.0755  0.6163
29361W        W42775  12.025   7.478  12.840  0.0008 -0.1603  0.1365
29362W        W42776   7.766  17.740  13.153  0.0646 -0.0293  0.1642
29363W        W42777  14.521  17.721  14.936 -0.0328  0.0025  0.3413
29364W        W42778   6.848  14.968  10.594  0.0296 -0.0827  0.0688
29365W        W42779   4.575  11.683   0.230  0.1519  0.0853 -0.1116
29366W        W42780   4.842   4.530  14.808 -0.0213  0.0571  0.0795
29367W        W42781   7.600   7.897   5.090  0.2423 -0.1769  0.2720
29368W        W42782  12.358  17.236   4.648  0.0191 -0.1641 -0.2612
29369W        W42783   6.473   3.677   1.713 -0.0409  0.1972  0.1854
29370W        W42784  16.332   1.848  10.432  0.0108  0.1144 -0.2526
29371W        W42785   1.923   5.342  12.868  0.2095  0.1578 -0.0892
29372W        W42786   2.228   3.489   2.412  0.0998 -0.0904  0.0194
29373W        W42787   9.708  14.185   3.454 -0.1188 -0.0230  0.1181
29374W        W42788   5.599   0.085   4.449  0.1543  0.0618 -0.2635
29375W        W42789  11.066  13.125   3.669  0.4604 -0.0691  0.1822
29376W        W42790  15.552   8.153  12.857 -0.1018 -0.0593  0.2547
29377W        W42791   5.838   9.063  12.352  0.0332 -0.0674  0.0389
29378W        W42792   8.973  13.714  10.525 -0.5243 -0.0816  0.0539
29379W        W42793   7.345   7.292   3.807 -0.0288 -0.2359  0.1437
29380W        W42794   2.467  10.212  16.131 -0.1182 -0.3075 -0.1234
29381W        W42795   6.115  16.864  14.662  0.0364 -0.1900  0.3037
29382W        W42796   5.820   4.282   5.286 -0.1586 -0.2633  0.1470
29383W        W42797   1.022   2.202   3.040 -0.2450  0.0364  0.1338
29384W        W42798  13.890   2.185  13.656  0.2423  0.1445  0.0648
29385W        W42799  10.914  12.532   0.811  0.1490 -0.1412 -0.1600
29386W        W42800   0.096  17.371   4.128 -0.3905 -0.2900  0.1862
29387W        W42801  16.617  10.510  13.841  0.0655 -0.2931  0.1843
29388W        W42802  18.019  11.658  12.469 -0.1113 -0.2288  0.2066
29389W        W42803  15.462  17.840  14.632  0.3146  0.2944 -0.1171
29390W        W42804  15.366  10.830   5.964  0.0656  0.2890 -0.0522
29391W        W42805   6.416  17.076  11.775  0.2845 -0.1412 -0.2081
29392W        W42806  11.640   1.566   1.000 -0.1146  0.1757 -0.1942
29393W        W42807   0.306   4.047   3.168 -0.1965 -0.2021 -0.0771
29394W        W42808   7.722  14.608  11.673 -0.2074 -0.0305  0.1995
29395W        W42809  15.936  11.155  14.877  0.0058  0.0377 -0.0231
29396W        W42810  13.773  14.417   3.569  0.2732 -0.1893  0.2784
29397W        W42811  10.684   0.035  14.268  0.0250  0.0074  0.0777
29398W        W42812  15.250   4.935   1.450 -0.1572  0.2131 -0.1282
29399W        W42813  13.636   7.730  15.127 -0.0458 -0.2565  0.1660
29400W        W42814  14.628   5.463  11.764  0.2644 -0.1416 -0.3167
29401W        W42815   0.410  11.023  14.534 -0.0377  0.2058 -0.1943
29402W        W42816   5.576   5.269   1.315 -0.0575  0.2450 -0.0766
29403W        W42817   7.390  12.841   0.019 -0.1654  0.0437 -0.3060
29404W        W42818  17.153  16.048   4.062  0.2331  0.2728  0.2628
29405W        W42819  13.392   3.417   1.075 -0.3589  0.0906  0.2865
29406W        W42820  15.737  12.500   0.943  0.0658  0.1570  0.0582
29407W        W42821   5.449   1.434  11.504  0.0410 -0.1660 -0.1155
29408W        W42822   7.125  13.698  10.920  0.1393  0.1448  0.0363
29409W        W42823   0.382  10.886   0.491  0.2541 -0.1261  0.0183
29410W        W42824   4.549  17.373   2.165 -0.0716  0.1111  0.1078
29411W        W42825   9.000   6.189  14.006 -0.2754  0.3051  0.0238
29412W        W42826  17.476   8.697   5.198  0.1611 -0.3041 -0.1865
29413W        W42827  11.128   8.383   3.965 -0.1325 -0.0103 -0.0640
29414W        W42828  14.443  17.875   2.631  0.0527 -0.1970  0.0442
29415W        W42829   8.509   7.728   4.524 -0.0591 -0.0410 -0.1050
29416W        W42830   8.488  17.780  11.407  0.0374  0.0217  0.1260
29417W        W42831   1.895   1.204   5.283 -0.3285 -0.1721 -0.1125
29418W        W42832  10.300  15.429   3.584 -0.0872  0.1268  0.2762
29419W        W42833   3.311  12.129  13.052  0.0668  0.1371 -0.2887
29420W        W42834  17.057  14.737   2.252  0.0801  0.1401 -0.1805
29421W        W42835   4.683   4.986   4.076 -0.0272  0.2964  0.2168
29422W        W42836  15.772   3.417  13.591  0.1847  0.1122  0.2716
29423W        W42837   5.845   3.884  10.942  0.1085 -0.2307  0.2652
29424W        W42838   3.464  11.916  12.565  0.2292  0.1468 -0.1494
29425W        W42839   2.723  14.258  12.157  0.1696  0.2317  0.0092
29426W        W42840  11.752   5.858  16.489 -0.0334  0.0578  0.0297
29427W        W42841   5.452  17.940  12.554 -0.0059 -0.2656 -0.1209
29428W        W42842  11.041   8.631   1.621 -0.0032 -0.1000  0.2725
29429W        W42843   4.499   1.493  15.509  0.1133  0.0159 -0.2259
29430W        W42844  17.512  16.185  12.218  0.2747  0.2075 -0.2474
29431W        W42845   9.757  10.265   2.100 -0.1129 -0.1139  0.1231
29432W        W42846   0.319   8.564  11.940  0.0420  0.0861  0.2411
29433W        W42847  17.152  10.335  12.255  0.2603  0.0128  0.1108
29434W        W42848  10.894   2.762   4.314 -0.1293 -0.0996 -0.1112
29435W        W42849  14.356  10.717   5.934 -0.2176 -0.0334  0.0732
29436W        W42850   8.005   1.885  10.734  0.2265  0.2348 -0.1796
29437W        W42851  14.810  11.832   5.921 -0.2730  0.2042  0.2388
29438W        W42852   5.442  14.067   3.049  0.3503 -0.2837 -0.4462
29439W        W42853   7.914   8.109  10.685 -0.2287 -0.0753 -0.1087
29440W        W42854   8.682   6.416   3.729 -0.1761 -0.3440  0.0730
29441W        W42855  15.002   3.097  14.419  0.1036 -0.0344  0.2429
29442W        W42856  14.584  11.051  14.437  0.1212  0.2427  0.1684
29443W        W42857  15.794  11.111   3.698 -0.2270  0.0274 -0.0322
29444W        W42858  17.190  15.374   4.069  0.2797 -0.0582 -0.0390
29445W        W42859  16.220  15.530  15.167 -0.0178  0.2334  0.0836
29446W        W42860  11.640   7.000   2.401  0.1932 -0.3559  0.2430
29447W        W42861   4.588  10.393   2.516 -0.0262  0.1842  0.0837
29448W        W42862  11.251  17.645  15.529  0.2069 -0.0359 -0.1554
29449W        W42863   0.099  13.134   0.461  0.2254  0.3753 -0.0756
29450W        W42864   3.914   3.439  11.364 -0.0858 -0.0218 -0.1495
29451W        W42865   3.963  16.879   3.634 -0.0038  0.0397 -0.1536
29452W        W42866   2.412  15.039  12.489 -0.2487 -0.0620 -0.2338
29453W        W42867  17.909   2.661   4.759  0.0718  0.2217  0.0396
29454W        W42868   3.086   0.077   3.244  0.0192 -0.4415 -0.0335
29455W        W42869   8.485   9.920  13.275  0.2902  0.0634 -0.0272
29456W        W42870  18.066  13.181  16.248 -0.4248  0.1961 -0.3936
29457W        W42871  16.646   0.702   2.708  0.0943  0.4455 -0.2749
29458W        W42872   5.358   5.353  16.442  0.1264 -0.0087 -0.0888
29459W        W42873   9.157  10.128  13.451  0.0517  0.0630 -0.1213
29460W        W42874  17.473  17.803  11.338 -0.1395 -0.1806 -0.1983
29461W        W42875  17.586   4.765  10.024  0.1480  0.0921 -0.0559
29462W        W42876   7.285   6.339   0.130  0.0970  0.0751 -0.5067
29463W        W42877  17.505  12.643  14.081 -0.1993 -0.3138  0.0625
29464W        W42878   5.817  10.190  11.657 -0.0173 -0.0455  0.0474
29465W        W42879  11.143  11.489   0.827  0.1666  0.2208 -0.1125
29466W        W42880   4.477  11.573  12.731 -0.2502  0.1349 -0.3744
29467W        W42881   8.800   9.633   1.094  0.0341  0.0038  0.0306
29468W        W42882   4.173  12.547   4.686 -0.0802 -0.0892 -0.0217
29469W        W42883  12.218  11.433  15.643 -0.1063 -0.0732  0.2277
29470W        W42884  10.326  14.293  15.139 -0.2321  0.0225 -0.1358
29471W        W42885   3.188   5.886  14.132 -0.1455 -0.0995 -0.0227
29472W        W42886  15.244  12.636  14.935 -0.1174  0.1132 -0.2576
29473W        W42887  17.331   7.511  13.315  0.1760  0.0710  0.1313
29474W        W42888  17.609  13.935   4.397 -0.0749  0.2198 -0.1233
29475W        W42889  13.424  14.321   0.895 -0.0234  0.0235  0.3743
29476W        W42890  16.268   9.339   2.972 -0.0199 -0.2005  0.4028
29477W        W42891   6.306   6.827  13.755  0.0553  0.2980  0.1614
29478W        W42892   6.672   5.699   0.283 -0.2196 -0.0180  0.0090
29479W        W42893   3.963  17.216   0.565  0.1894 -0.1355  0.0608
29480W        W42894   5.551   0.777  15.281 -0.0710  0.1124 -0.0092
29481W        W42895  10.061   9.074  15.413  0.1872  0.0260 -0.0476
29482W        W42896   3.160   1.450  14.536  0.1868 -0.0485 -0.0639
29483W        W42897   4.681   1.659  16.105  0.1951 -0.2599 -0.1099
29484W        W42898  15.828  18.349  15.687  0.0741 -0.0873  0.0075
29485W        W42899   3.436   6.310   1.171  0.4501  0.3333 -0.1306
29486W        W42900  15.265   8.531   2.592 -0.1448  0.3786  0.1809
29487W        W42901   7.797   0.840  15.410  0.0010 -0.1578  0.0055
29488W        W42902   3.901   0.885   0.466  0.1026  0.0707 -0.0999
29489W        W42903  14.556  12.439   0.762 -0.2521  0.0468  0.1300
29490W        W42904   3.445   8.612  15.777  0.3655  0.0020  0.3208
29491W        W42905   7.530  14.449   6.278  0.4022  0.1779 -0.3704
29492W        W42906  11.011  14.448  11.998 -0.1126 -0.0909 -0.0870
29493W        W42907  10.170   3.046  14.862  0.4306  0.1756  0.1376
29494W        W42908  14.437  13.853  16.345  0.0613  0.3075 -0.0539
29495W        W42909  15.657  14.560   4.678  0.2003 -0.1888 -0.2504
29496W        W42910  17.171   1.985  14.632  0.1549 -0.2946  0.1634
29497W        W42911   7.973  10.384   6.462 -0.1579  0.3171 -0.2234
29498W        W42912   3.344   0.294  16.410  0.0944 -0.2492 -0.2565
29499W        W42913  16.746   9.237   2.060  0.1119 -0.1269  0.0941
29500W        W42914   8.756   1.638  15.768 -0.3806 -0.0296  0.0505
29501W        W42915   5.380   8.349   0.128 -0.0577 -0.1691  0.0349
29502W        W42916   5.359  14.843  15.703  0.3989 -0.1739  0.1800
29503W        W42917   1.835  13.207   5.644 -0.0780  0.1098 -0.1963
29504W        W42918   4.708   4.671   2.987 -0.1409 -0.1119 -0.1363
29505W        W42919  14.343   4.379  15.212  0.2619  0.3954  0.2336
29506W        W42920  14.579   6.269   4.961  0.0516 -0.0724 -0.0754
29507W        W42921   8.621  10.449   1.824  0.2680 -0.2202  0.0729
29508W        W42922   8.061  14.560  15.795 -0.4550  0.2192 -0.4807
29509W        W42923   1.236   6.239   3.596  0.0339 -0.1035  0.0450
29510W        W42924  13.976  16.466   6.545  0.0149  0.1164  0.2293
29511W        W42925   0.112   9.604  14.975 -0.3754  0.0689 -0.0404
29512W        W42926  11.502   7.585   5.703 -0.3271 -0.3438  0.1451
29513W        W42927   3.557   4.279   1.003 -0.2562  0.0848  0.1434
29514W        W42928   7.835   7.397   3.019  0.1420  0.1674 -0.1662
29515W        W42929  10.923  10.540   3.969  0.1897  0.1220  0.1149
29516W        W42930  11.669   6.823  13.050 -0.1566  0.0893 -0.2954
29517W        W42931  16.370  16.607   5.334  0.0481  0.2595 -0.0185
29518W        W42932   1.600   0.202  13.953  0.1203  0.2419 -0.6448
29519W        W42933   3.763  17.894  11.420 -0.1070  0.3562  0.0439
29520W        W42934   2.895   4.301  10.661 -0.0382 -0.0643  0.1284
29521W        W42935  15.479  15.797   0.497 -0.2461  0.0240 -0.1428
29522W        W42936  17.242  16.297  15.385 -0.0959  0.1282  0.0872
29523W        W42937   4.913   0.859  13.154  0.0806 -0.2878  0.0709
29524W        W42938  12.073   4.886  13.301  0.2413  0.0155 -0.3699
29525W        W42939   9.904   2.672  13.012 -0.1494  0.3289  0.0059
29526W        W42940  17.435  16.859   0.037 -0.4695 -0.2166  0.0211
29527W        W42941   5.379  15.898  15.487 -0.1147  0.2282  0.2529
29528W        W42942   5.683  11.227   3.631  0.2360 -0.1028 -0.1727
29529W        W42943   2.071   7.359   1.310  0.0070 -0.1276 -0.1066
29530W        W42944  17.834  11.851   1.546 -0.0240 -0.0134 -0.0864
29531W        W42945   1.738   1.316   0.609  0.0615  0.0647 -0.4333
29532W        W42946   9.690   6.142  14.952  0.0083  0.1957 -0.2619
29533W        W42947  14.602  16.053   2.441 -0.1596 -0.3545 -0.0478
29534W        W42948   7.723   5.492   0.407  0.1255  0.1405  0.1257
29535W        W42949  17.695  12.864   1.569 -0.0964  0.0371 -0.0495
29536W        W42950  11.214   1.514   1.588  0.0395 -0.2769  0.0258
29537W        W42951  16.742   6.177   4.847  0.1853 -0.1156 -0.0413
29538W        W42952  15.612   1.087   5.588  0.0768  0.1478 -0.0427
29539W        W42953  11.541  15.759   5.945 -0.0526  0.3067 -0.1642
29540W        W42954   3.250  12.987   2.993 -0.1919  0.1636  0.1839
29541W        W42955  14.685  12.771   4.679 -0.0974 -0.1414 -0.0877
29542W        W42956   5.108   2.758  13.077  0.3464  0.2137  0.0912
29543W        W42957  14.743  11.759  12.600 -0.2154  0.1263 -0.1340
29544W        W42958   0.392  15.422  15.379  0.2085  0.0826 -0.0115
29545W        W42959  14.541  11.765   4.302 -0.2397  0.0050 -0.0996
29546W        W42960   1.297   3.842  10.578  0.0051  0.0060 -0.0300
29547W        W42961   7.129   7.281   4.381 -0.0415  0.2176 -0.4546
29548W        W42962   3.509  12.925   0.064 -0.2503  0.0585 -0.1574
29549W        W42963   3.043  10.331  13.507 -0.2592 -0.0868 -0.0195
29550W        W42964  17.488   2.042  15.991  0.1930 -0.1231 -0.3066
29551W        W42965   8.237  12.346   1.428 -0.0046 -0.0727  0.4011
29552W        W42966   8.552  12.106   1.895 -0.1585  0.0380 -0.0793
29553W        W42967   4.503  16.088  12.682 -0.3680 -0.0016  0.1860
29554W        W42968  13.306  18.248   4.831 -0.0224 -0.0796  0.3989
29555W        W42969   8.252  13.499  13.537 -0.2469 -0.0231 -0.1189
29556W        W42970   8.680  18.375   3.638  0.0777 -0.0071 -0.1354
29557W        W42971   3.465   0.023   1.541 -0.0611  0.2744 -0.2583
29558W        W42972  10.923  14.609   0.350  0.1916  0.2888 -0.0770
29559W        W42973   5.032   7.301  14.181  0.3419 -0.1220 -0.2261
29560W        W42974  11.625   7.471  16.176 -0.3672 -0.1953  0.4239
29561W        W42975  15.319   6.478  16.210 -0.2598 -0.1017 -0.0256
29562W        W42976  10.053  15.332   5.937  0.0621 -0.2230  0.0716
29563W        W42977  13.959  10.909  16.436 -0.0654  0.1004 -0.1019
29564W        W42978   5.695   7.117   3.028  0.0626 -0.1100 -0.0740
29565W        W42979  14.950  10.222   1.747 -0.1121 -0.1247 -0.1557
29566W        W42980  14.744  10.602  13.211  0.3108  0.2359 -0.0453
29567W        W42981  10.678  17.101   0.608 -0.5297  0.6693  0.0453
29568W        W42982  12.145  15.862  12.521  0.3055  0.0000  0.1235
29569W        W42983   3.260  11.710   5.020  0.1330  0.1213  0.0234
29570W        W42984   1.164   1.692  10.581 -0.2195 -0.1988  0.1839
29571W        W42985   0.567  17.300  13.865  0.2132  0.1960  0.2408
29572W        W42986   1.020   4.889  12.074  0.0790  0.2558  0.2120
29573W        W42987  16.750   9.865  10.439  0.3844 -0.0595  0.0283
29574W        W42988   3.137  18.165  12.194  0.1334  0.6142  0.1231
29575W        W42989   7.055   1.496  13.474 -0.2403 -0.1407  0.1464
29576W        W42990  13.546   1.669   4.916  0.0476 -0.3778  0.0856
29577W        W42991   8.481   1.025  12.661 -0.1100  0.2889 -0.1132
29578W        W42992   1.356   2.438  14.574  0.2377 -0.0755 -0.2225
29579W        W42993   5.752   6.084  15.941  0.2440  0.3174 -0.1918
29580W        W42994  12.752   3.409   1.176 -0.0861  0.1649 -0.0728
29581W        W42995  18.096   4.002   4.006 -0.0626  0.2613  0.1049
29582W        W42996   6.838   8.478  10.497 -0.0582 -0.0152  0.1375
29583W        W42997  17.499   2.278   5.408 -0.0923 -0.2415  0.2751
29584W        W42998   2.738  16.582  12.107  0.1408  0.0422  0.1848
29585W        W42999   4.688   3.577   1.912  0.0553  0.2612  0.2280
29586W        W43000  11.697   0.094  12.653  0.1363 -0.0568 -0.0501
29587W        W43001  11.479   7.255  13.872  0.2145 -0.1007 -0.3380
29588W        W43002   0.495   3.703   2.526 -0.1726  0.1322 -0.1502
29589W        W43003   3.679   0.489  12.364 -0.1796 -0.0189  0.1190
29590W        W43004   1.493   9.690   2.001 -0.0286  0.0262  0.1618
29591W        W43005   5.992  15.488  13.273  0.1179 -0.2814 -0.0949
29592W        W43006   0.928   7.595  12.805 -0.1174 -0.1386 -0.0385
29593W        W43007   3.703  12.459  12.622 -0.2374 -0.0396  0.1328
29594W        W43008  15.779  15.343   0.522  0.1738  0.1576 -0.0422
29595W        W43009  10.434   5.380  16.396 -0.2492  0.0955  0.3244
29596W        W43010   7.587  17.082   2.456  0.1201  0.2751 -0.3891
29597W        W43011   1.126   7.549   1.944 -0.0971  0.2924 -0.3144
29598W        W43012  11.164  11.826  14.887 -0.3756  0.1081  0.4064
29599W        W43013   6.742  17.821  16.174  0.0528 -0.2807  0.3668
29600W        W43014   8.389  13.643   4.225 -0.0329 -0.3692  0.4582
29601W        W43015   1.403  12.689  12.913  0.0100  0.1573 -0.1539
29602W        W43016  10.519   9.813  15.449 -0.3462 -0.0594  0.2103
29603W        W43017  12.802   8.139  12.734 -0.1633  0.4722  0.0303
29604W        W43018   0.996   9.513   1.587  0.2742  0.0310  0.3639
29605W        W43019   1.925   9.455  13.954  0.2964  0.1543 -0.1813
29606W        W43020   7.657   2.331   4.621  0.1197 -0.0677 -0.0278
29607W        W43021   5.207  16.975  10.477 -0.2159  0.1286 -0.1809
29608W        W43022  17.597  10.990  11.171  0.3345  0.1181  0.2189
29609W        W43023  10.572   2.883  14.201 -0.3962  0.3439 -0.1498
29610W        W43024   8.696   7.172  11.546 -0.0341  0.1193 -0.2616
29611W        W43025   7.847  16.278  14.622 -0.2445 -0.2622 -0.3135
29612W        W43026  12.631   0.566  12.184  0.2632  0.0387 -0.3002
29613W        W43027   7.458  15.537   4.398 -0.1036 -0.0061 -0.2834
29614W        W43028  17.614  10.778  13.941  0.0462  0.1903  0.2314
29615W        W43029  12.106  14.552   2.772  0.1462 -0.1008 -0.1402
29616W        W43030   4.973   1.781   2.093 -0.0220 -0.1660  0.0589
29617W        W43031  12.656   4.883  13.366 -0.0561  0.0600  0.1389
29618W        W43032   0.698   3.264  13.699 -0.0817  0.0812 -0.0919
29619W        W43033   5.686   5.944  13.447  0.3750 -0.3348 -0.2423
29620W        W43034   8.322   0.498  15.450  0.3965 -0.1562  0.2399
29621W        W43035   7.652   0.134   0.497  0.1861 -0.0060 -0.1059
29622W        W43036   8.957  14.247  10.674 -0.1738 -0.2076 -0.0453
29623W        W43037   6.521   7.661  12.580 -0.1535  0.5742 -0.1322
29624W        W43038  15.207   5.228  14.858 -0.1214  0.1702 -0.1593
29625W        W43039  11.079   8.540  13.807  0.2648 -0.3745  0.0173
29626W        W43040   9.425   2.057  13.716  0.1871  0.3515  0.1224
29627W        W43041   7.440   7.224  11.296  0.1951  0.0276  0.1639
29628W        W43042  11.999   2.084  10.166 -0.0649 -0.3121  0.2122
29629W        W43043  12.160   7.345  12.278 -0.2632 -0.0315 -0.0828
29630W        W43044   6.206   3.586   0.811 -0.0765  0.3102  0.0420
29631W        W43045   0.520   4.958   3.295 -0.2391 -0.1502  0.1071
29632W        W43046  12.268   2.468   5.829  0.0136 -0.0874 -0.0870
29633W        W43047   2.220  14.924   2.437  0.0590 -0.1329  0.0952
29634W        W43048  13.822  15.978  11.720  0.0913 -0.0128 -0.3303
29635W        W43049   8.739   6.371  10.186  0.3637  0.0904 -0.0838
29636W        W43050   6.136  14.731   4.212  0.2794 -0.1093  0.0981
29637W        W43051  16.507  10.685  14.701  0.1347  0.1315  0.1181
29638W        W43052  12.104  11.855  15.271 -0.0834  0.1987 -0.0700
29639W        W43053   1.676  15.860   0.346 -0.0437  0.1935 -0.0993
29640W        W43054   5.718  14.431  10.373 -0.0238  0.0776 -0.1973
29641W        W43055  13.418  10.821   1.395  0.2778  0.0994  0.0652
29642W        W43056   5.457   8.862  11.963 -0.3462  0.0138  0.3672
29643W        W43057   2.483   0.712  12.079 -0.0346 -0.2891  0.3271
29644W        W43058   6.786   8.507   2.773 -0.1604  0.3606  0.2928
29645W        W43059  18.035   9.931  12.520 -0.0733 -0.1498 -0.1206
29646W        W43060   4.147  17.984   4.071  0.3357 -0.0928 -0.1693
29647W        W43061   4.153  17.256   3.378 -0.1358  0.0782  0.0392
29648W        W43062   7.586  16.160  15.304 -0.1692  0.0236  0.0970
29649W        W43063   8.298  14.361  15.390  0.0064 -0.2046  0.0120
29650W        W43064   9.185  10.238  12.433  0.0846  0.1180  0.1452
29651W        W43065  13.438   0.384  12.467  0.0873  0.1667 -0.1000
29652W        W43066   3.498  14.825   0.558 -0.0764  0.3183  0.0942
29653W        W43067   2.750  15.640   5.883 -0.3594  0.2383 -0.0512
29654W        W43068  16.860  12.350  10.908  0.3051 -0.1466  0.3192
29655W        W43069   7.712  16.860  13.548 -0.0392  0.2869  0.0483
29656W        W43070   2.204  11.084   0.846 -0.3627  0.0367 -0.0787
29657W        W43071   7.757  16.553   1.672  0.3121  0.1745  0.2215
29658W        W43072   5.630  12.284  16.012  0.1681 -0.1188  0.0554
29659W        W43073  14.412   5.194  11.257  0.1762  0.0370  0.1182
29660W        W43074   5.159   9.123   2.205 -0.0553 -0.1007  0.1926
29661W        W43075   4.787   1.466   4.305  0.3636  0.0411 -0.3736
29662W        W43076  10.888  16.657  11.633 -0.0251  0.0390  0.0715
29663W        W43077   6.313   9.423  10.195  0.0679  0.1631  0.0835
29664W        W43078  12.660  14.516  14.165 -0.2760 -0.1817 -0.1473
29665W        W43079   6.168  17.930  16.206 -0.0219  0.1753 -0.1161
29666W        W43080   4.511  13.310   2.792 -0.0793  0.2510 -0.0353
29667W        W43081  18.079  15.498  13.808 -0.0110 -0.1608 -0.2500
29668W        W43082   9.330  11.232   1.329  0.0029  0.0490  0.1651
29669W        W43083   3.221  18.014   5.600  0.0040 -0.1432  0.2346
29670W        W43084  12.803   1.132   1.334  0.1379 -0.4824 -0.1791
29671W        W43085   1.077   8.703   1.088 -0.1102 -0.0792 -0.1181
29672W        W43086  18.294   0.703  13.200 -0.1785  0.1439  0.1591
29673W        W43087   6.232   6.954   1.373  0.0779 -0.0943 -0.1693
29674W        W43088  17.270  17.416   1.881  0.0033 -0.3574 -0.2484
29675W        W43089   4.462  16.902  12.764 -0.1088  0.1815  0.1403
29676W        W43090   8.156   9.365   0.465  0.5901 -0.0147 -0.0156
29677W        W43091   0.407   2.607   4.576 -0.3469 -0.1665  0.1677
29678W        W43092  13.786   9.603  12.193  0.1389 -0.0029  0.2024
29679W        W43093   9.712  17.739  10.611 -0.0232 -0.1209  0.0769
29680W        W43094  12.217   6.048   0.130 -0.0182  0.1207  0.2998
29681W        W43095   5.364   3.637  13.776  0.1234 -0.4865  0.3412
29682W        W43096  15.183  16.182  14.591  0.3270  0.1882 -0.3694
29683W        W43097   4.790  12.492  11.113  0.2171  0.2440 -0.1155
29684W        W43098  10.680   9.842  10.187 -0.4238 -0.2418 -0.0171
29685W        W43099   3.241   7.142   3.030 -0.0138 -0.1415  0.0377
29686W        W43100  18.371  18.194   5.200 -0.0443  0.4069 -0.2589
29687W        W43101  11.186   3.903  10.082  0.1807  0.1525  0.1369
29688W        W43102  15.814  14.348  16.064  0.2173 -0.1116 -0.0030
29689W        W43103   0.814   9.060  15.326  0.0085 -0.0200  0.0060
29690W        W43104  11.730  15.565  11.542  0.0229  0.2715  0.1466
29691W        W43105  11.637  10.052   1.746 -0.3714  0.1724 -0.4008
29692W        W43106  11.896  11.756   2.833 -0.2597 -0.0096 -0.3080
29693W        W43107  11.515   0.075   1.857 -0.0888 -0.1131 -0.2869
29694W        W43108   2.666   5.043  10.316  0.0695  0.1684  0.0546
29695W        W43109  10.080  11.342   1.997 -0.0339  0.0785 -0.1076
29696W        W43110  10.325  16.384   0.781  0.0253 -0.0057  0.0950
29697W        W43111  12.915  12.528   3.704 -0.0372 -0.0154 -0.1506
29698W        W43112   0.741  17.665  15.973 -0.0122 -0.1301  0.3012
29699W        W43113  16.794   6.903  15.122 -0.2484 -0.1745 -0.0877
29700W        W43114  12.282   8.751  14.931  0.1695  0.1093 -0.2378
29701W        W43115   3.831  14.072   3.410  0.2125  0.1921  0.0720
29702W        W43116   2.418  17.375  13.312 -0.2324 -0.1973  0.5818
29703W        W43117   7.091  16.520   3.426 -0.2239  0.1558 -0.0373
29704W        W43118  17.733   1.172  11.248 -0.0605 -0.0359 -0.2383
29705W        W43119   4.334  16.998  12.170 -0.0409  0.0694  0.3174
29706W        W43120  17.527   1.375  12.873  0.2186  0.0393 -0.0540
29707W        W43121   3.045   8.111   3.660 -0.1310  0.1924  0.2076
29708W        W43122  12.253  17.324  13.564  0.0441  0.0775 -0.2136
29709W        W43123   4.266   2.233  12.109 -0.1926  0.0946 -0.2289
29710W        W43124  11.377   3.894   1.372 -0.1190 -0.0657 -0.0115
29711W        W43125  11.052  10.907  14.938  0.2506 -0.0320 -0.0133
29712W        W43126  11.063   7.125  13.082  0.1111  0.1023 -0.1427
29713W        W43127  12.695   4.160  14.189 -0.1572 -0.0669  0.1443
29714W        W43128  11.772  17.595   5.208  0.0998  0.1208  0.0352
29715W        W43129  15.904   1.088  10.685 -0.1468  0.2065 -0.1070
29716W        W43130   1.397  15.759  13.009 -0.1200 -0.0258 -0.0095
29717W        W43131   1.877   3.678   6.509  0.0974  0.1872  0.1049
29718W        W43132  13.471   1.836  13.714 -0.0157 -0.0315  0.2095
29719W        W43133  11.584   5.883   0.884 -0.0959  0.2146  0.0348
29720W        W43134   4.586   8.040   5.944  0.0618 -0.3511 -0.0038
29721W        W43135   7.285  15.056  13.182 -0.0092  0.1232  0.2124
29722W        W43136   6.798  15.929   0.967  0.1457 -0.0675 -0.1614
29723W        W43137   1.374  16.797  13.657  0.1250 -0.1099  0.0770
29724W        W43138  16.454   6.169  11.858 -0.1226 -0.1432  0.0226
29725W        W43139  17.506  17.867  10.740 -0.1535  0.1263  0.2130
29726W        W43140   2.550   9.541  13.258  0.2174  0.0624 -0.1766
29727W        W43141   3.632  11.691   2.585 -0.1005  0.2475 -0.2044
29728W        W43142   9.680   4.096   3.077 -0.1104  0.1152 -0.1151
29729W        W43143   2.437  17.341   3.108 -0.0673 -0.0877  0.2797
29730W        W43144  15.786   3.302  15.508 -0.0521 -0.1468 -0.2261
29731W        W43145   6.542  13.931  14.067  0.0741 -0.2383 -0.0083
29732W        W43146   6.304   9.262   1.339  0.0494 -0.2030 -0.1277
29733W        W43147   9.039   2.199   4.542 -0.3361  0.2638  0.1554
29734W        W43148   1.451   5.753   1.671 -0.0364 -0.0054  0.0267
29735W        W43149   5.293  16.757   2.782 -0.0611 -0.0278  0.1503
29736W        W43150   2.710  14.086  16.423 -0.2245  0.0324 -0.0446
29737W        W43151  13.906   3.506  11.452  0.2340 -0.2118 -0.4611
29738W        W43152  10.385  14.880   4.343  0.1784  0.2813 -0.1897
29739W        W43153   2.946  14.649   0.696 -0.2428  0.2426  0.0225
29740W        W43154   5.306  12.937   4.316 -0.4047 -0.1228  0.1919
29741W        W43155  12.889  13.896  11.781 -0.1340 -0.0771 -0.3660
29742W        W43156  10.259   9.596  11.039 -0.2789 -0.1144  0.1127
29743W        W43157  16.379  12.088   6.687 -0.0072 -0.0668 -0.0464
29744W        W43158  15.663   8.250   4.353 -0.1908 -0.0867  0.0592
29745W        W43159   1.622  12.312   0.607 -0.1981 -0.1668 -0.1112
29746W        W43160  13.039   3.218  12.713 -0.2832  0.1688  0.0058
29747W        W43161  13.642  15.905  10.699  0.0100  0.0454 -0.0270
29748W        W43162  17.572   8.807   3.402 -0.0189 -0.0779 -0.0378
29749W        W43163   3.946  11.840   4.131  0.0976  0.0083 -0.2125
29750W        W43164  10.583   9.672  14.541 -0.3415 -0.0434 -0.2032
29751W        W43165  17.205   2.402  10.432 -0.1992 -0.0256  0.3738
29752W        W43166   4.319   5.804   5.925 -0.3515 -0.2966  0.3048
29753W        W43167   2.412  17.798   2.830 -0.1391 -0.0539  0.0061
29754W        W43168   7.743  14.039  15.577  0.1878  0.2157  0.0422
29755W        W43169  10.845  13.925   5.034 -0.0753  0.3410  0.0485
29756W        W43170   2.166   2.111   1.421  0.3273  0.0500  0.2457
29757W        W43171  14.138   9.126   0.670  0.3925 -0.0490 -0.1219
29758W        W43172  14.260   9.349   3.025  0.3092  0.0062 -0.3349
29759W        W43173  15.150   0.787  16.129 -0.3679  0.1470  0.1411
29760W        W43174   4.057   8.323  12.524  0.0949 -0.3128  0.1551
29761W        W43175  12.568  13.034   3.145  0.1477  0.0789 -0.1821
29762W        W43176   2.604  11.527   3.984 -0.2393 -0.2645  0.3478
29763W        W43177  15.198  13.839  13.716 -0.2160 -0.1913 -0.2036
29764W        W43178   3.109  13.481  11.513  0.0778 -0.1278 -0.0001
29765W        W43179   0.066   4.400  13.258  0.0258  0.0007 -0.3742
29766W        W43180  11.533   4.848  13.313  0.0370  0.1980 -0.0285
29767W        W43181   4.466   4.349  15.284  0.1720 -0.2494 -0.1088
29768W        W43182  16.435   1.668  11.417  0.3115  0.0006 -0.3663
29769W        W43183   1.331  17.319  14.191 -0.1078  0.0820 -0.0625
29770W        W43184   3.034  16.001   5.587 -0.1256  0.2098 -0.4101
29771W        W43185   4.858   8.955  15.185  0.1066  0.2121 -0.1245
29772W        W43186   4.893   2.091  14.588 -0.0402  0.1619 -0.1217
29773W        W43187  17.789   0.944  13.074  0.4066 -0.1747 -0.2368
29774W        W43188  12.863   0.452   2.065  0.0359 -0.1617  0.2377
29775W        W43189  15.622   5.027   9.522 -0.1056  0.0130 -0.1792
29776W        W43190   9.080   4.939   2.134 -0.2204 -0.2544  0.0115
29777W        W43191  11.408   3.813   3.766 -0.0152 -0.1836  0.1649
29778W        W43192  12.533  18.058  16.467 -0.0028 -0.0125  0.2697
29779W        W43193   3.904  15.006   4.810 -0.1348 -0.2188 -0.0543
29780W        W43194   6.938   4.308   2.068 -0.0696  0.2390  0.1512
29781W        W43195  17.216   3.998  10.589  0.1066 -0.3661 -0.1942
29782W        W43196   0.828   7.925  12.268 -0.0462 -0.1870  0.2309
29783W        W43197   0.667  17.704   3.336  0.0137 -0.1119  0.1116
29784W        W43198   4.115  18.088   0.265 -0.0865  0.0345  0.1417
29785W        W43199   8.051   7.157   4.331  0.1490  0.1420  0.1019
29786W        W43200  13.071  10.784  16.474  0.1618  0.1418  0.1159
29787W        W43201   5.723  10.570  14.237  0.1777  0.0519  0.3392
29788W        W43202   5.614  12.302  11.716  0.1539 -0.1175 -0.0715
29789W        W43203   1.489  10.082   0.561 -0.0529  0.0590 -0.0593
29790W        W43204   8.584   1.648  12.490 -0.1006 -0.1777  0.1131
29791W        W43205   1.833  10.792  12.069  0.1396 -0.0664 -0.0201
29792W        W43206  14.189   5.127   4.141  0.1776  0.0603 -0.0765
29793W        W43207   4.686   8.618  11.942 -0.1416  0.0363 -0.2892
29794W        W43208  13.307   2.561  10.001 -0.0308 -0.0785 -0.2568
29795W        W43209  12.331   0.933  11.905 -0.3084  0.2943  0.0517
29796W        W43210   3.776  12.366   4.937  0.2046  0.2903 -0.2224
29797W        W43211   8.530   6.190   2.231 -0.3293  0.1403  0.1950
29798W        W43212   5.339   6.060   2.087 -0.1114  0.0270  0.0683
29799W        W43213  10.243   6.305  14.457  0.0776  0.2177 -0.0496
29800W        W43214   3.430   7.743  15.385  0.0395 -0.1305  0.0198
29801W        W43215  14.855  17.371   2.102  0.2280  0.0137  0.1429
29802W        W43216  11.393  15.800  14.037 -0.2340 -0.1394 -0.2184
29803W        W43217   5.635   0.117  12.436  0.0030  0.4203 -0.0146
29804W        W43218  16.030  10.898   5.328 -0.1421 -0.0480 -0.2312
29805W        W43219  17.277   9.098  10.134 -0.0985  0.1414  0.0378
29806W        W43220   5.831  10.211   2.115 -0.0683  0.0146  0.0645
29807W        W43221  11.715   2.101  14.650  0.1899  0.3570  0.1394
29808W        W43222   9.896   8.379   2.376  0.0526 -0.0963  0.0843
29809W        W43223   4.147  13.609  10.541 -0.3477  0.2718 -0.3193
29810W        W43224  12.210  10.747   4.854  0.1963  0.0706 -0.2956
29811W        W43225  14.984  15.798  14.374 -0.0537  0.0490  0.3449
29812W        W43226   6.209  11.548  12.038 -0.1918  0.2656  0.2076
29813W        W43227  17.768   0.503   2.141  0.1625 -0.3289  0.0012
29814W        W43228   6.436   6.378  15.527 -0.0069  0.1229 -0.0660
29815W        W43229  13.229   2.354  15.256 -0.1635  0.0450 -0.1762
29816W        W43230  12.742   4.262  10.729 -0.1404  0.2104  0.1018
29817W        W43231   2.676   6.732   3.941 -0.0899 -0.0030 -0.0224
29818W        W43232  10.697  16.823   1.334  0.1660 -0.0798  0.5200
29819W        W43233   2.536   3.711   4.426 -0.2444 -0.0134 -0.0521
29820W        W43234   0.083   5.054  13.679  0.0655 -0.1508  0.0915
29821W        W43235  16.146   6.011   6.130 -0.1882 -0.0330 -0.2292
29822W        W43236  14.794   5.552   1.592  0.1538  0.0555  0.1229
29823W        W43237   1.762   2.873  15.465 -0.3371 -0.0448 -0.1421
29824W        W43238  11.063  11.397  14.672  0.1073  0.0223 -0.2287
29825W        W43239   8.814  16.370  14.511 -0.1633 -0.0399 -0.0134
29826W        W43240   0.418   9.715   2.059 -0.2273  0.0981  0.3483
29827W        W43241   1.489  13.394   1.473 -0.0223  0.0005  0.0206
29828W        W43242  14.262   2.932  10.114  0.0287 -0.3928  0.1341
29829W        W43243   2.626  12.813   3.654 -0.1934 -0.1970 -0.0071
29830W        W43244  11.264   3.299   1.157  0.2866 -0.1538  0.0454
29831W        W43245  16.065   9.704   5.579  0.2622 -0.1870 -0.2188
29832W        W43246  12.310   4.261   1.241 -0.0364  0.2136  0.0442
29833W        W43247  10.705   5.951   2.689  0.1780 -0.2283  0.0162
29834W        W43248  15.520  13.798   4.004  0.0797  0.2701  0.0330
29835W        W43249  15.401   3.695  11.393 -0.0993 -0.4417  0.1385
29836W        W43250   1.361   1.005  11.077 -0.2522  0.3905  0.0881
29837W        W43251   9.763   1.420  13.801  0.0158 -0.0995  0.2123
29838W        W43252   6.627  13.726   0.584  0.1031  0.2206  0.0856
29839W        W43253  14.015  14.638   4.807 -0.1327  0.4006  0.0310
29840W        W43254  14.054  10.067   1.262 -0.3052  0.0199  0.2944
29841W        W43255  16.571  14.593  11.642 -0.0361  0.0029  0.1330
29842W        W43256  10.780   1.502  11.997  0.2057 -0.4255  0.0664
29843W        W43257   5.381   0.504  11.097  0.1821  0.2756  0.0306
29844W        W43258   9.196  17.295  13.319  0.3919  0.1968  0.0622
29845W        W43259  12.312  10.377  14.264  0.0916  0.0205 -0.1397
29846W        W43260   4.758   1.368   2.309 -0.5330  0.0306  0.2379
29847W        W43261  13.595   3.388   6.069 -0.5169 -0.0378 -0.0245
29848W        W43262   4.398   3.221   0.973 -0.3053 -0.3218  0.0713
29849W        W43263   8.379  13.471   2.957  0.0891  0.0490 -0.0375
29850W        W43264  17.922  10.962  14.575 -0.3296 -0.0914  0.3765
29851W        W43265   9.654  16.112   0.207  0.2579  0.1654  0.1637
29852W        W43266  16.951  16.362   6.040 -0.1016  0.2945 -0.1467
29853W        W43267   9.092   3.964  11.236  0.1343  0.3042 -0.0201
29854W        W43268   5.943  11.908   4.262 -0.0840 -0.0992 -0.0291
29855W        W43269   7.926  14.883   0.065 -0.2379 -0.1882  0.0909
29856W        W43270  10.598  12.824   1.591  0.3007 -0.2580 -0.0544
29857W        W43271   8.281   5.195  14.120 -0.1756 -0.0851 -0.2129
29858W        W43272   7.712  18.219  12.824  0.0750  0.0673 -0.0430
29859W        W43273  17.302  11.930   1.766 -0.0160  0.1598  0.1119
29860W        W43274  16.585   9.299  16.289 -0.2311  0.0150 -0.2078
29861W        W43275  16.020  14.735   2.575  0.2258  0.0896  0.0222
29862W        W43276   0.547   3.020  15.339  0.1446 -0.0051  0.1125
29863W        W43277   8.722  12.729  10.205 -0.1611 -0.0674  0.0028
29864W        W43278   6.262   8.495  14.922 -0.0975  0.2942 -0.2325
29865W        W43279  12.092   4.851  12.689  0.0065  0.2400 -0.0713
29866W        W43280   3.739   1.259  11.042 -0.2353 -0.0611 -0.0575
29867W        W43281   9.508   9.892   9.947  0.0328  0.1159 -0.2508
29868W        W43282  13.600   3.721  12.231 -0.1784 -0.0999  0.2887
29869W        W43283   3.136   5.653   3.610  0.2076  0.0651  0.3160
29870W        W43284   2.185  16.073   2.806  0.2575  0.1895 -0.0762
29871W        W43285   4.321   7.651   2.439  0.2670 -0.0470 -0.0927
29872W        W43286  13.689  16.259   2.404 -0.1616 -0.0735 -0.3794
29873W        W43287  18.262  13.458  12.702 -0.1260 -0.3688  0.1226
29874W        W43288   9.031  12.716   4.439 -0.2215 -0.3037  0.0412
29875W        W43289   4.972   3.969  15.656 -0.0766  0.1520 -0.2465
29876W        W43290   5.485  14.486   0.040  0.1021  0.3585  0.2330
29877W        W43291   3.239   2.724   5.707 -0.1054  0.1356 -0.1087
29878W        W43292  16.913   0.557   2.299 -0.3658  0.2983 -0.1654
29879W        W43293   7.499  11.635   5.785  0.1575  0.1412 -0.1495
29880W        W43294   3.565   7.177  11.499  0.4012  0.1483 -0.1036
29881W        W43295   6.909   9.764  15.517  0.0223  0.0582 -0.0317
29882W        W43296  10.223   9.682   4.775  0.0585 -0.5126 -0.1709
29883W        W43297  16.306   4.663  13.283 -0.2675  0.0317 -0.0860
29884W        W43298  10.011  18.367  13.111 -0.2037  0.2004  0.0169
29885W        W43299   6.610   4.016  13.504  0.0677  0.0879 -0.0691
29886W        W43300   8.718  14.467   4.486  0.0983 -0.2855 -0.0866
29887W        W43301   8.353  11.130   2.048  0.0347 -0.0120  0.2500
29888W        W43302  12.673   9.558   9.907  0.1282  0.0422  0.1589
29889W        W43303   1.930  10.315  16.166  0.1061  0.0731 -0.1755
29890W        W43304   6.947  11.591  16.108 -0.1215 -0.0950  0.1965
29891W        W43305   9.265   2.393  12.894 -0.4280  0.0961 -0.1823
29892W        W43306   8.797   9.865   3.242  0.0004 -0.2551 -0.1483
29893W        W43307   5.623   9.064  16.347 -0.1478 -0.0838 -0.2911
29894W        W43308  11.886  10.998  15.767 -0.0988  0.0395 -0.2799
29895W        W43309  14.268  12.267  12.082  0.0685 -0.1400 -0.0080
29896W        W43310  18.138  11.993   3.618 -0.1541 -0.0920 -0.3230
29897W        W43311   7.621   2.786  16.362  0.1870  0.1583 -0.0390
29898W        W43312  17.661  15.216   4.510 -0.2613  0.0427  0.0848
29899W        W43313  15.295   3.532  11.840  0.2312  0.1962  0.1404
29900W        W43314   4.034  16.971  11.021  0.0495  0.1059 -0.1598
29901W        W43315   0.339   8.246  13.823 -0.0565 -0.0993  0.0715
29902W        W43316   7.003  16.577  11.592 -0.1869  0.2068 -0.0127
29903W        W43317   2.092   9.237   5.160  0.0610  0.3082 -0.1029
29904W        W43318   0.094   9.126   5.975  0.1518  0.1015 -0.0792
29905W        W43319   6.486  16.040  12.729  0.3292  0.2314 -0.4236
29906W        W43320   5.338   4.584  13.356  0.1488 -0.1923  0.0670
29907W        W43321   3.634   2.435  11.356 -0.1171  0.1044  0.1673
29908W        W43322   0.182  14.518   5.869  0.0564  0.0333 -0.0289
29909W        W43323  12.094   0.030  14.666 -0.2909 -0.3304 -0.0260
29910W        W43324  11.865  15.172  15.505 -0.0218  0.0825  0.1662
29911W        W43325  15.847   5.128  12.566 -0.2109 -0.0318 -0.1449
29912W        W43326   7.618   5.887  13.074  0.1170 -0.1694 -0.2371
29913W        W43327   2.766  10.753   0.441  0.0954 -0.1635  0.1171
29914W        W43328   4.162  13.485   4.788  0.0579 -0.0277  0.0602
29915W        W43329  16.638  13.810  16.465 -0.0081  0.3453 -0.1643
29916W        W43330  10.399   4.583  14.298 -0.4074  0.0384 -0.2147
29917W        W43331  13.994   8.813   3.247 -0.1261  0.1687  0.0562
29918W        W43332   8.735   8.619   0.189 -0.1712 -0.0690 -0.2003
29919W        W43333  15.976   5.742   5.312  0.3631 -0.1061  0.2482
29920W        W43334   6.072   5.510  10.597 -0.5263  0.2238 -0.3908
29921W        W43335  12.434   6.726   4.463 -0.3582  0.0754  0.0313
29922W        W43336   3.981  15.881  15.847  0.0711 -0.2064  0.1325
29923W        W43337   0.279   5.323  15.018 -0.3885  0.0691  0.0265
29924W        W43338  14.847   2.597  13.385 -0.0492 -0.0838 -0.0732
29925W        W43339  15.439   7.998   0.101 -0.0489  0.1780  0.0237
29926W        W43340  16.339   2.082  12.805  0.1141 -0.0757  0.0334
29927W        W43341  14.440   0.210  14.917  0.0105  0.0872 -0.0727
29928W        W43342   7.727   9.626  14.979  0.0969  0.3072  0.0806
29929W        W43343   1.941   9.241  14.859  0.0882  0.0471 -0.0229
29930W        W43344   4.527   5.984  14.993  0.0974 -0.0399 -0.1866
29931W        W43345  12.591   7.030   4.116 -0.1347 -0.4921  0.2387
29932W        W43346  11.995  16.956   4.415  0.2056 -0.2888 -0.0207
29933W        W43347  12.485  11.585  16.063 -0.2682  0.2693 -0.1344
29934W        W43348   7.789   8.076   1.035  0.1042 -0.1347 -0.0201
29935W        W43349  10.900   9.461  14.818 -0.2074 -0.0494  0.1784
29936W        W43350  12.404  14.549  15.743 -0.0250 -0.1055 -0.3209
29937W        W43351  17.472  13.092   4.842  0.0004 -0.3174 -0.0912
29938W        W43352  11.220   0.146  11.793 -0.1013 -0.1289  0.0111
29939W        W43353   0.897  12.860  14.735  0.1202 -0.0746 -0.1030
29940W        W43354  13.070  10.450  16.047 -0.2405  0.0269 -0.1412
29941W        W43355  11.659   2.518   2.195  0.1720 -0.1474  0.2590
29942W        W43356  14.859  15.884   5.996 -0.0879 -0.1259 -0.0760
29943W        W43357  11.800  11.852   0.352 -0.0395 -0.1283  0.3122
29944W        W43358  12.864   7.562   4.087 -0.0848 -0.1091  0.1083
29945W        W43359  14.616  14.323  14.271 -0.3853  0.1503  0.2961
29946W        W43360  15.381   2.886   6.237  0.0035 -0.0128 -0.0650
29947W        W43361  15.501   8.562  12.536 -0.0708  0.0443  0.3430
29948W        W43362   7.542   4.250   2.926 -0.0207  0.2457 -0.0483
29949W        W43363  11.435  10.179   5.756  0.0392  0.0412 -0.1807
29950W        W43364   4.952   9.590  11.436  0.1038 -0.2748 -0.0761
29951W        W43365  16.516  16.630   7.100 -0.0898  0.1103 -0.2334
29952W        W43366  17.214  13.186  14.140  0.2466 -0.1387  0.2231
29953W        W43367  17.716   9.946   0.857  0.1852 -0.2014  0.2506
29954W        W43368  16.243   0.271  14.569 -0.0394  0.2383  0.3393
29955W        W43369   5.629  10.248   3.755 -0.0768 -0.2295  0.1186
29956W        W43370  18.274   4.055   1.922 -0.1859  0.1679 -0.0636
29957W        W43371   3.462   4.614  14.376  0.0032  0.1576  0.0442
29958W        W43372  10.975   4.081   1.146  0.3695 -0.4370  0.2103
29959W        W43373  12.672   0.972   5.365  0.1542 -0.1221  0.1150
29960W        W43374  11.886  16.042   1.822 -0.1429 -0.1601 -0.2039
29961W        W43375  14.714  17.629  11.848  0.0928  0.1187  0.3735
29962W        W43376   5.389   4.074  10.733  0.2215  0.3292 -0.2543
29963W        W43377  13.489  14.350   3.996 -0.2778  0.0259 -0.1427
29964W        W43378  16.711   4.795   5.912  0.2134 -0.1240  0.0514
29965W        W43379   1.308  15.036   3.841  0.1270  0.0819 -0.1255
29966W        W43380   3.175   7.920  12.794 -0.2230  0.2849 -0.2326
29967W        W43381   8.514  12.646  14.493  0.0665 -0.3531 -0.0391
29968W        W43382   4.594   4.447  15.816  0.2837  0.0411  0.1658
29969W        W43383  15.703  13.926  16.402  0.0090 -0.0309  0.0535
29970W        W43384   4.881   6.913  12.986  0.2046 -0.2251 -0.0647
29971W        W43385   2.285  10.787   1.898  0.3060 -0.0411 -0.3098
29972W        W43386   1.897  14.913  14.280 -0.0250  0.2515 -0.1157
29973W        W43387  17.035  10.770  10.412  0.1851  0.2298  0.0722
29974W        W43388   0.753  15.102  16.484 -0.1602 -0.0218  0.2548
29975W        W43389   7.052   5.535  14.174  0.0626  0.4026  0.3793
29976W        W43390   9.799  18.053   1.680 -0.0067  0.1141 -0.1504
29977W        W43391  13.948   4.349  13.760 -0.2501 -0.1573 -0.2291
29978W        W43392   2.173   5.809   4.560 -0.1203 -0.2905  0.1420
29979W        W43393  16.468   5.140  11.647 -0.0525 -0.0778  0.1749
29980W        W43394  13.597   9.967  14.307 -0.1707  0.1776 -0.4878
29981W        W43395  11.760   4.394   1.941  0.2521 -0.0928 -0.0406
29982W        W43396   0.346  14.328  15.510  0.2380 -0.1084  0.2073
29983W        W43397   1.641   3.256   4.286 -0.1105  0.0754 -0.0278
29984W        W43398  17.638   5.166  11.391  0.0835 -0.2918 -0.0682
29985W        W43399  15.369   4.942   2.838  0.2609 -0.2471  0.3504
29986W        W43400   1.623  12.194   5.429 -0.2486  0.3187  0.3142
29987W        W43401   6.772   2.175   0.012  0.3188  0.0918  0.3069
29988W        W43402   2.121   0.280   2.750 -0.2169 -0.0850  0.3679
29989W        W43403  15.415   8.955   3.905 -0.0045 -0.0897  0.0128
29990W        W43404   0.934  15.139   2.508 -0.1079  0.0330 -0.1968
29991W        W43405  18.346   0.590   3.872 -0.1094  0.3529 -0.2160
29992W        W43406   5.644   3.368   2.737  0.1493  0.0626 -0.1689
29993W        W43407   9.831   1.262  12.083 -0.1004 -0.1606 -0.2961
29994W        W43408   8.106   3.129  16.084  0.1586 -0.1281 -0.1479
29995W        W43409  10.279   4.464   4.730  0.0541  0.4952  0.2293
29996W        W43410  14.947   4.607   2.866 -0.1297 -0.1145  0.2101
29997W        W43411  15.432  15.723  16.393 -0.0799 -0.1243 -0.0133
29998W        W43412  13.167   8.987   3.434  0.0787 -0.1149  0.1708
29999W        W43413  14.574   9.411   0.697 -0.2226  0.0249  0.2997
30000W        W43414   5.816  18.114   5.764 -0.1193 -0.2017  0.2608
30001W        W43415  10.382   5.093   2.261 -0.0141 -0.1237 -0.2938
30002W        W43416   0.945   1.650   0.068 -0.1110 -0.0956 -0.0215
30003W        W43417  14.564  16.612   4.954 -0.1131 -0.2131 -0.0952
30004W        W43418  15.797   5.555   0.033 -0.3042 -0.1270  0.1868
30005W        W43419   1.016   1.545   0.560 -0.0078 -0.2229 -0.0513
30006W        W43420  11.078   6.666   0.949 -0.0930  0.3745  0.0751
30007W        W43421   9.790   8.706   2.727 -0.1471  0.0067 -0.1543
30008W        W43422  16.539  10.419   4.628 -0.1165 -0.2399 -0.1225
30009W        W43423  12.983  17.350   0.289 -0.6140 -0.1930  0.0063
30010W        W43424  12.451  11.436  15.191  0.0047 -0.2974  0.2862
30011W        W43425  18.108   3.808  11.001 -0.1990 -0.2891  0.0594
30012W        W43426   7.033   7.189  13.693  0.1980 -0.1817  0.2170
30013W        W43427   0.129  17.169   6.084 -0.1951  0.2482 -0.0279
30014W        W43428  10.607   2.888  11.962 -0.3380  0.0315 -0.0567
30015W        W43429   7.486   5.926  11.805  0.1285 -0.0240 -0.3986
30016W        W43430   9.763  16.614  12.041 -0.0143 -0.0831  0.3000
30017W        W43431  14.704   7.457  11.983  0.0251  0.0455 -0.0958
30018W        W43432   6.584   0.839  11.288  0.0087  0.2000 -0.0770
30019W        W43433   8.947  10.771   0.120 -0.1473 -0.2728  0.0984
30020W        W43434  16.828  12.200   1.795 -0.0511  0.4208  0.0108
30021W        W43435   5.641   1.061  14.934 -0.0926 -0.1743 -0.0897
30022W        W43436   0.041  13.901  15.756  0.0625 -0.2073  0.1519
30023W        W43437   6.589  14.147  14.494 -0.1024 -0.1416 -0.0229
30024W        W43438   3.189  10.277   1.690  0.0979  0.3190  0.0746
30025W        W43439   8.438   7.777  12.760 -0.0020 -0.3146  0.0808
30026W        W43440   2.128   4.454   5.924  0.1013 -0.0916  0.1990
30027W        W43441   9.156   2.576   1.805  0.0042  0.0729  0.0273
30028W        W43442   2.714  17.956   1.941 -0.2465 -0.0870 -0.1029
30029W        W43443   6.064   4.589   2.623 -0.0449  0.0649 -0.0647
30030W        W43444  16.117  12.689  12.154  0.0438  0.1473 -0.3972
30031W        W43445   5.609   3.907  14.545  0.2870  0.2743  0.5094
30032W        W43446   8.912  17.458  12.920  0.1313  0.0779 -0.0352
30033W        W43447  18.384  10.150   4.633 -0.1688 -0.0019 -0.1324
30034W        W43448   5.004   4.573   1.970 -0.0562  0.2383 -0.0151
30035W        W43449  11.457  11.989  11.722  0.2237  0.3421  0.0531
30036W        W43450   6.294   9.886   3.486 -0.0311  0.1209  0.0977
30037W        W43451   9.408  16.286  16.040  0.1806 -0.1077  0.4366
30038W        W43452   9.613   0.299   3.793 -0.0572 -0.0566 -0.0347
30039W        W43453   7.362   7.968   5.642 -0.2390  0.3054  0.0109
30040W        W43454  18.170   9.803  12.974  0.2785 -0.1475 -0.0570
30041W        W43455   9.286   2.667  15.022 -0.0344  0.0986 -0.3126
30042W        W43456  16.961  13.275  13.544 -0.1345  0.3431 -0.4248
30043W        W43457  14.520  15.214  12.556  0.0377 -0.2934  0.3014
30044W        W43458   7.184  14.013   2.193 -0.3433 -0.1389  0.1225
30045W        W43459  11.101   8.014   4.295  0.1794 -0.0538  0.3932
30046W        W43460  15.288  16.057   2.686  0.1694  0.0813  0.1417
30047W        W43461  17.858   8.260  14.818  0.0674 -0.0709  0.2561
30048W        W43462  16.624   2.412  15.512  0.1010 -0.0014 -0.1482
30049W        W43463  14.350  10.549   0.038 -0.0801  0.0034  0.1781
30050W        W43464   4.498  14.319   5.292 -0.1409 -0.1945 -0.1106
30051W        W43465  18.391  12.880   0.919 -0.1535  0.2930  0.0229
30052W        W43466   4.414  13.965  15.595 -0.0264  0.1546 -0.3412
30053W        W43467  12.099   7.518   1.058 -0.3660  0.0910 -0.1432
30054W        W43468  18.023   1.990  16.408  0.1620  0.0368 -0.1673
30055W        W43469   5.020   1.156   3.940 -0.1519 -0.3476 -0.3247
30056W        W43470   8.754  15.743  11.526  0.0386 -0.0224 -0.1021
30057W        W43471   8.940  16.091   4.727  0.3190 -0.1417  0.0599
30058W        W43472  14.818   8.062  14.013  0.0223  0.3347  0.0378
30059W        W43473  16.647   0.098  15.504 -0.3671 -0.0593  0.2514
30060W        W43474   4.007   1.069   2.925 -0.1754  0.2156 -0.0202
30061W        W43475   4.467   2.640  11.826  0.1724  0.1675 -0.1503
30062W        W43476   8.366   3.110   4.886  0.1435 -0.2144  0.0825
30063W        W43477  18.007   9.220   0.308 -0.1926  0.0557 -0.2550
30064W        W43478   7.235   9.543   5.621  0.1254  0.0247  0.0288
30065W        W43479   8.950  15.598   5.032  0.0042 -0.2071  0.1250
30066W        W43480   0.796   0.011  12.352  0.0744 -0.0763  0.0402
30067W        W43481  11.633   3.827  11.742  0.0387 -0.0864  0.3235
30068W        W43482   1.225   1.960  14.547 -0.1259  0.1709  0.0120
30069W        W43483  14.532  16.578   5.462  0.0109 -0.2600  0.0782
30070W        W43484   3.625  18.087   4.223 -0.1711 -0.1037  0.1261
30071W        W43485  11.398   6.199  15.398  0.0093  0.0319  0.1446
30072W        W43486   3.134  17.719  11.965 -0.0248 -0.0689 -0.1526
30073W        W43487   2.185   6.005  14.810  0.2588  0.4721  0.2291
30074W        W43488   7.332  15.115  10.531  0.0150 -0.1447 -0.1983
30075W        W43489   6.558  16.062  15.043  0.1472  0.1511  0.3423
30076W        W43490  13.389  16.108   0.509 -0.0798  0.1611 -0.0101
30077W        W43491  12.381   7.151   2.265 -0.0742  0.0587 -0.1910
30078W        W43492   3.011   6.750   2.799  0.1111  0.1149  0.2751
30079W        W43493  12.490   8.533  13.545  0.0652 -0.1517  0.0868
30080W        W43494  12.715   8.457   0.772 -0.0020 -0.0387  0.0633
30081W        W43495  16.737   7.356  15.656  0.0862 -0.0329  0.0718
30082W        W43496  14.567  13.627  12.775  0.1157 -0.1698  0.0110
30083W        W43497   0.029   0.011   2.216 -0.1255 -0.0045 -0.2567
30084W        W43498   9.568   6.638   3.895  0.0506 -0.0682  0.1384
30085W        W43499   9.218  14.973  15.098 -0.0290 -0.1476 -0.1662
30086W        W43500  16.895   5.130   2.882  0.1254  0.1257  0.1627
30087W        W43501  11.791  12.791  13.980 -0.0859 -0.3562 -0.2662
30088W        W43502   2.719  16.254  13.676 -0.2699  0.0512  0.0320
30089W        W43503   9.089   6.205   2.342 -0.0331 -0.0947  0.1055
30090W        W43504  15.694   8.264   2.574 -0.1039  0.1196 -0.0907
30091W        W43505   2.808   4.792   0.211 -0.1185  0.0364 -0.0734
30092W        W43506  16.409   7.361   3.298  0.0331  0.1657  0.0622
30093W        W43507  15.785   5.788   4.778 -0.3776 -0.0191 -0.1046
30094W        W43508  12.126  12.127   2.625  0.2076 -0.0125 -0.2248
30095W        W43509  14.684  17.592  16.042  0.0872 -0.2160  0.0497
30096W        W43510   9.509  13.601  16.043 -0.2880  0.1514  0.4159
30097W        W43511  13.551   5.281  15.848  0.0998 -0.0890  0.0287
30098W        W43512   3.578   6.108  12.111 -0.0405 -0.1182 -0.1428
30099W        W43513   6.325  12.799  15.483 -0.1277 -0.1335  0.1001
30100W        W43514   7.785   9.834  11.174 -0.2212 -0.1230  0.0829
30101W        W43515   7.502   9.716  13.339  0.1154  0.0351 -0.1652
30102W        W43516   6.686   5.604  11.294 -0.0190 -0.0194 -0.1017
30103W        W43517   6.557  12.919  15.942 -0.1496 -0.1311 -0.0365
30104W        W43518   5.607  13.033   0.229 -0.2889  0.0192 -0.0007
30105W        W43519  13.003  15.386   6.141 -0.0879 -0.0268  0.1501
30106W        W43520   0.896  11.337  15.722 -0.0244  0.1244 -0.0454
30107W        W43521  15.219   3.488  13.689  0.0954  0.1339  0.0289
30108W        W43522   9.161   7.714   2.933 -0.0203  0.1497  0.1132
30109W        W43523  11.374  12.030  10.097  0.2023 -0.3767 -0.1804
30110W        W43524   8.112  18.269   3.690  0.2021  0.0956 -0.1664
30111W        W43525   0.466   0.337   4.613  0.0360 -0.0611 -0.2926
30112W        W43526   7.227  12.093   2.421  0.2654 -0.0536  0.0416
30113W        W43527  10.517  12.489   2.886  0.1805  0.2039 -0.1685
30114W        W43528   4.722  13.894   3.555  0.2334  0.0738 -0.1518
30115W        W43529   0.393   2.645   4.008  0.0229  0.0425  0.0457
30116W        W43530   7.898   2.969   3.824 -0.3347 -0.0061 -0.2246
30117W        W43531  15.604   7.007   2.952 -0.0579 -0.2441  0.3169
30118W        W43532  11.099   6.818  14.379 -0.1281  0.1577 -0.1923
30119W        W43533  14.250   0.458  11.872 -0.1328  0.0033  0.1409
30120W        W43534   1.227   5.667   4.709 -0.1394 -0.1278 -0.0491
30121W        W43535   9.218   3.367  11.096  0.2231  0.0252 -0.0388
30122W        W43536  12.549   4.284   6.211 -0.1356 -0.0909  0.0475
30123W        W43537   8.686  17.277   1.030  0.0913 -0.0968 -0.0362
30124W        W43538   6.032  11.839   3.094 -0.1433 -0.3845 -0.0644
30125W        W43539   0.151  13.622   5.738 -0.0560  0.3740  0.1478
30126W        W43540  17.968  15.570   2.343 -0.0027  0.3225 -0.1936
30127W        W43541   0.434   1.167   1.967  0.3157  0.2413  0.1852
30128W        W43542   7.502  15.754   3.393  0.2069  0.4826  0.0555
30129W        W43543   9.547   2.871   0.884 -0.2531  0.0963 -0.3237
30130W        W43544   9.376  18.033   0.142 -0.0107  0.1727 -0.0373
30131W        W43545  15.350   7.330  14.013 -0.0073  0.2128 -0.3639
30132W        W43546  14.620   7.322   0.384 -0.1007 -0.0803 -0.2766
30133W        W43547   6.270  13.967  11.186  0.0073 -0.0174  0.1749
30134W        W43548   6.989  15.802  12.172 -0.0863 -0.2222 -0.0178
30135W        W43549   3.383   4.730   4.661  0.2113 -0.1314  0.1670
30136W        W43550   7.504  15.514  10.958 -0.2202  0.0242  0.3492
30137W        W43551  14.783  14.459   2.472  0.1235 -0.3057  0.3161
30138W        W43552   2.060  14.755   3.525  0.2637  0.1138 -0.0435
30139W        W43553   4.319   8.913   5.763 -0.3974 -0.0904  0.0442
30140W        W43554   5.967   8.735  16.474  0.0971  0.3568 -0.0656
30141W        W43555   0.081  10.961  14.972  0.0133 -0.0460  0.0885
30142W        W43556  12.407  11.027  11.180 -0.3812 -0.3414 -0.1940
30143W        W43557  16.140   3.599   6.047  0.2064  0.1477 -0.2009
30144W        W43558   5.022  10.804  14.742  0.2345  0.1310 -0.1438
30145W        W43559   0.154   8.044   5.063 -0.0744 -0.2205  0.1528
30146W        W43560  14.354   7.283   5.122  0.1391  0.1155  0.0692
30147W        W43561   5.694   2.878   2.878  0.1395  0.0783  0.2262
30148W        W43562  17.954  14.949   1.244  0.1562  0.1525 -0.2634
30149W        W43563   9.294  10.894   4.500  0.1758  0.0285  0.0930
30150W        W43564   4.506  10.949  11.683 -0.1408  0.3181 -0.1637
30151W        W43565   5.874  12.621   2.597  0.0747 -0.2784 -0.0142
30152W        W43566   0.235   1.884   5.361 -0.1814  0.1711 -0.0835
30153W        W43567   0.671  12.629   1.332 -0.3620 -0.1031  0.0386
30154W        W43568  11.597  14.960  14.362 -0.0602  0.1670  0.0662
30155W        W43569   3.606  14.977  15.020 -0.1121  0.0451 -0.0937
30156W        W43570   5.530  13.382  15.738  0.1250  0.2026 -0.0135
30157W        W43571  12.838   0.874  10.749 -0.0728  0.1838  0.0082
30158W        W43572   7.492  10.644   3.462  0.2071 -0.1069  0.0370
30159W        W43573   8.627   6.591  10.612 -0.1609 -0.0034  0.0103
30160W        W43574  16.120   7.194   2.053  0.2695 -0.1410 -0.2060
30161W        W43575  16.319  17.550   2.850 -0.0591  0.0221 -0.2355
30162W        W43576  13.117   8.958   4.202 -0.2461  0.0611 -0.2917
30163W        W43577   5.676   0.074   3.656 -0.1784  0.1645 -0.0618
30164W        W43578  13.819  14.859  14.047  0.0303  0.3442  0.2181
30165W        W43579  14.115  15.406   0.720 -0.0342  0.0793  0.1602
30166W        W43580  14.250   0.070  11.312  0.1060  0.0210 -0.0339
30167W        W43581  10.781   0.995  13.795  0.1654  0.0308 -0.1404
30168W        W43582  16.148  14.110  15.038  0.3145 -0.0506 -0.0557
30169W        W43583   2.435   6.811  12.640  0.2025  0.2055 -0.1257
30170W        W43584   4.309   0.620   0.199 -0.3875  0.0053  0.0672
30171W        W43585   1.360  10.605   0.593  0.1778 -0.2129  0.0174
30172W        W43586  17.257   3.138  13.198  0.0797 -0.1142  0.0680
30173W        W43587   2.029  16.991  14.991 -0.0037  0.0070  0.3630
30174W        W43588  17.009   3.465   5.508 -0.0985 -0.0412  0.2060
30175W        W43589  14.208   8.526  11.201  0.3581  0.1371 -0.1273
30176W        W43590  17.697   0.961   5.626 -0.1282 -0.0108  0.1706
30177W        W43591   0.596  14.795  11.007 -0.1029  0.1365  0.1201
30178W        W43592  17.234   1.470  15.305 -0.2202 -0.0555  0.1261
30179W        W43593   6.452   2.639   4.653 -0.0267  0.0170 -0.2089
30180W        W43594  11.367  17.155  11.712 -0.2318 -0.2126 -0.0000
30181W        W43595  10.736   5.018   2.928 -0.0863 -0.1317  0.1932
30182W        W43596   2.241   1.594   4.730 -0.0025 -0.0647  0.1466
30183W        W43597  17.225  18.169   6.250  0.1176 -0.0999 -0.3357
30184W        W43598   9.328   3.099  13.648 -0.1345 -0.0137  0.0803
30185W        W43599   6.028  10.119   2.554  0.3378  0.1954 -0.0831
30186W        W43600  14.671  17.471   1.649 -0.0434  0.2745 -0.3517
30187W        W43601   3.992  16.924   5.011  0.1751  0.0101 -0.2704
30188W        W43602  14.673  12.253  12.895 -0.0768  0.0674  0.0839
30189W        W43603  17.973   4.414  13.434 -0.0194  0.3180  0.1161
30190W        W43604  14.929  12.939   1.364  0.4135 -0.1487 -0.0396
30191W        W43605  18.253  12.091  13.335  0.0033  0.0574  0.1580
30192W        W43606   9.614  12.625  13.031  0.1804  0.1778  0.0385
30193W        W43607  11.975   8.441  16.294 -0.0298  0.1323  0.3348
30194W        W43608   4.970   0.094   5.571 -0.0855 -0.1648 -0.0780
30195W        W43609   7.835  15.536   9.904  0.1306  0.1353 -0.1053
30196W        W43610  12.181  14.480   6.095  0.0110 -0.0482 -0.1511
30197W        W43611  10.523  16.132  15.563  0.0814  0.1497  0.4647
30198W        W43612  10.021  17.385   9.982  0.0329 -0.2429  0.2549
30199W        W43613   5.639  16.056   5.852 -0.1052 -0.1293  0.0251
30200W        W43614  16.065   9.059   3.898 -0.1423  0.0168  0.3173
30201W        W43615  12.042  13.178  14.028 -0.3239 -0.0431 -0.0788
30202W        W43616  12.111   0.205   0.558  0.1632 -0.0239  0.2248
30203W        W43617  13.809  10.311  11.594 -0.1057 -0.1534  0.1985
30204W        W43618   3.732  14.515   5.761 -0.0546  0.0482 -0.0587
30205W        W43619  10.433  15.625   1.882  0.1188  0.0539  0.0737
30206W        W43620   2.437  16.283   0.097  0.0400 -0.2741 -0.0700
30207W        W43621  12.852  11.070   2.307 -0.0358  0.0881 -0.0639
30208W        W43622   9.049   1.760  12.210  0.1708  0.1153 -0.0531
30209W        W43623   8.914   4.887  13.562  0.0628 -0.0536 -0.2427
30210W        W43624   6.469  12.931   3.256  0.2515  0.3428 -0.0238
30211W        W43625   0.779   7.068  16.471 -0.2972 -0.0677  0.1898
30212W        W43626   7.735   7.647  14.313 -0.0447 -0.3827 -0.0994
30213W        W43627   4.286   6.430  11.363  0.0701  0.1312  0.4115
30214W        W43628  18.253   7.334  12.476  0.0211  0.3822  0.1532
30215W        W43629   2.538   8.469  14.172  0.1261 -0.0821  0.0884
30216W        W43630  15.175   5.794  14.165  0.1078  0.0956 -0.2984
30217W        W43631  17.198  14.500  11.853 -0.0011  0.1663  0.3532
30218W        W43632   4.219  16.373   3.720  0.0836 -0.2545 -0.3321
30219W        W43633  14.446  11.471   1.089 -0.0740 -0.2945  0.2117
30220W        W43634  11.771   7.135  11.939 -0.2831 -0.5914 -0.0030
30221W        W43635  17.474   2.581   1.601 -0.1145 -0.1646 -0.1147
30222W        W43636  16.415   6.535  13.420  0.0709  0.0114 -0.2642
30223W        W43637  17.671   8.846  13.018 -0.2476 -0.1015  0.2085
30224W        W43638  14.229  14.413  10.943 -0.0800 -0.1500  0.0663
30225W        W43639   9.799  15.386   3.988  0.1281 -0.0602  0.0444
30226W        W43640  10.861   0.257   1.124  0.1461 -0.0831 -0.0817
30227W        W43641  16.690  14.279  16.302  0.0017 -0.4888  0.0253
30228W        W43642   4.057   2.388  15.510  0.0985  0.2200  0.0076
30229W        W43643   7.346   8.108  13.433  0.1221 -0.2111 -0.4468
30230W        W43644  11.344   7.168  16.479 -0.3091  0.1181 -0.0131
30231W        W43645   9.670  11.088  15.383 -0.2659  0.1313 -0.2874
30232W        W43646   8.209   4.291   3.763 -0.2098  0.2230 -0.0058
30233W        W43647  10.061   9.084  10.796  0.0293  0.1548 -0.1879
30234W        W43648  17.949  15.963  15.562 -0.2322  0.0388  0.2035
30235W        W43649   8.929  11.740   5.486  0.0031  0.0757  0.0541
30236W        W43650   3.900  15.274   2.824  0.1483  0.3417 -0.2253
30237W        W43651  16.780  15.598  12.589 -0.0220  0.2067 -0.1335
30238W        W43652  10.551  14.628   4.849  0.0655 -0.0421 -0.0741
30239W        W43653   6.549   5.847  14.838  0.0022 -0.0991  0.0429
30240W        W43654   1.985   5.022   3.938  0.0491 -0.1435 -0.0963
30241W        W43655  11.104   8.910  12.576 -0.2158  0.1235 -0.2353
30242W        W43656   7.547  14.198   5.025  0.2836 -0.6361 -0.1524
30243W        W43657  11.085   6.387   3.647  0.1589  0.0955  0.0242
30244W        W43658   1.627  16.902   0.452  0.1745  0.1953 -0.0089
30245W        W43659   0.365   9.052   1.377  0.0037 -0.0920  0.0298
30246W        W43660   5.454  11.006   5.104 -0.1595 -0.1355 -0.1359
30247W        W43661  10.556  11.967  11.584  0.1175 -0.1721  0.1165
30248W        W43662  10.433   1.698   4.520  0.1771  0.2958 -0.1530
30249W        W43663   1.293   4.770   4.525 -0.0833  0.1667  0.2362
30250W        W43664   9.345   2.096  10.277 -0.0330  0.0005 -0.4613
30251W        W43665   5.032   9.247  16.207  0.2763 -0.2135 -0.1117
30252W        W43666   4.326  15.080  14.829  0.2045  0.1106  0.0167
30253W        W43667   7.875  13.395  11.583 -0.1867 -0.1066 -0.1196
30254W        W43668  13.866   7.592   0.011  0.3627  0.2227 -0.0839
30255W        W43669  12.758   9.479  12.045 -0.1281  0.1399 -0.3412
30256W        W43670  12.224   5.476   3.048  0.0746  0.1695 -0.1932
30257W        W43671   6.470  18.143   2.831 -0.3094 -0.2623 -0.1172
30258W        W43672   4.547   3.112   2.068  0.1752  0.0185  0.0980
30259W        W43673  12.210  14.837   5.706 -0.1984  0.1580 -0.0140
30260W        W43674   7.833   5.943  11.437 -0.0598  0.1059 -0.0794
30261W        W43675   6.612  15.464   4.400  0.1385 -0.1196  0.3165
30262W        W43676  12.446   0.101  13.852  0.1606 -0.2014  0.1389
30263W        W43677   9.332  12.663   4.984  0.0301 -0.1067 -0.1575
30264W        W43678  14.831   6.105  15.008 -0.3394  0.0607 -0.1474
30265W        W43679  11.348  17.561   0.086 -0.4609  0.1461  0.0240
30266W        W43680   2.031   0.812   3.047  0.0501 -0.0803  0.1490
30267W        W43681   4.769   6.449  11.240  0.1496  0.0188 -0.1755
30268W        W43682  16.068   1.768  15.981 -0.0583 -0.2825  0.0435
30269W        W43683   9.161   6.922  14.938 -0.1174 -0.1809 -0.1198
30270W        W43684   0.018   3.667  11.770  0.1271 -0.3412 -0.1659
30271W        W43685   9.261  10.145  14.222  0.2431  0.0397  0.0701
30272W        W43686  16.408   9.537   4.374  0.0295 -0.3313  0.0655
30273W        W43687  11.546  16.371  12.741  0.1691  0.0142  0.4215
30274W        W43688   1.622   5.128   2.280  0.1055  0.2510  0.2181
30275W        W43689  16.875  15.582  13.509 -0.1844  0.1984 -0.0817
30276W        W43690   8.577  17.572  10.374  0.1052 -0.0210  0.0838
30277W        W43691   6.450   0.971   4.883 -0.1006  0.0565 -0.2979
30278W        W43692  10.408  12.580  14.958 -0.0379 -0.5418  0.0011
30279W        W43693  17.469  17.245   3.107  0.1057  0.1493 -0.2324
30280W        W43694   7.631   3.530   5.414  0.0897 -0.1826  0.2230
30281W        W43695   8.723   4.139   4.303 -0.2019 -0.2923 -0.0477
30282W        W43696   8.052  16.153  11.018  0.0800 -0.3660 -0.2656
30283W        W43697   6.322  14.809   2.321 -0.3499 -0.1969 -0.0465
30284W        W43698   9.065  15.933  14.781 -0.0310  0.2698  0.0831
30285W        W43699   9.400  14.372  12.403  0.0207 -0.1471 -0.2252
30286W        W43700  15.153   5.993  15.373  0.2003  0.3058  0.0312
30287W        W43701   9.942   6.909  15.195  0.0158 -0.0742 -0.2808
30288W        W43702  10.039  13.511   1.117  0.0337  0.0892 -0.1488
30289W        W43703  13.718  10.031   4.957 -0.0144  0.0085 -0.2662
30290W        W43704   2.427  17.884   1.559  0.3482 -0.1018  0.1065
30291W        W43705   8.422   5.453  12.552  0.2674  0.2113  0.1835
30292W        W43706   3.364  18.324  13.227 -0.0782  0.0428 -0.1242
30293W        W43707  12.185   0.216   1.128  0.1766  0.0068  0.1077
30294W        W43708   8.576  11.746  14.145 -0.0881 -0.1564  0.1144
30295W        W43709   4.159   9.849  11.304  0.1212  0.4141  0.0744
30296W        W43710   4.263   3.333   4.741 -0.2798  0.2615  0.3442
30297W        W43711   8.968   8.796   9.743 -0.2080 -0.1971  0.3377
30298W        W43712   3.486  11.646  16.137 -0.0178 -0.0972  0.0136
30299W        W43713  16.567   0.682   3.595  0.2533  0.1587  0.1767
30300W        W43714   9.509   9.330   1.339 -0.0620  0.2073  0.1345
30301W        W43715  16.628  15.643   0.882  0.0615 -0.4112 -0.0334
30302W        W43716   4.461   7.655   0.444  0.2472 -0.0153 -0.0394
30303W        W43717   8.864  11.484   3.667  0.1016 -0.0066  0.0267
30304W        W43718  10.244  17.452   5.316 -0.2825  0.3674  0.1461
30305W        W43719   5.531  10.921  11.732 -0.1040  0.0789 -0.0482
30306W        W43720   1.421  17.380  12.256 -0.0657  0.0597  0.1051
30307W        W43721   1.502  15.896   6.289 -0.0760 -0.0504 -0.1077
30308W        W43722  10.328  10.049  12.827  0.1279 -0.3311  0.0368
30309W        W43723   6.664  10.568  13.245  0.0055  0.2159 -0.1077
30310W        W43724   7.463  10.836   2.928  0.0129  0.0104  0.0311
30311W        W43725   2.412   5.137  13.346  0.4078 -0.2536 -0.0384
30312W        W43726  11.160   2.382  15.906 -0.4971 -0.1743  0.0984
30313W        W43727   2.414  10.724   5.625  0.1899  0.4080  0.0217
30314W        W43728   3.584  15.025   2.521 -0.0614 -0.1194  0.0033
30315W        W43729   5.690  11.728  13.147 -0.0037  0.1678 -0.0879
30316W        W43730  14.643   1.763  11.396  0.2161 -0.0582 -0.1653
30317W        W43731  10.674  11.379   0.015 -0.0325 -0.3761  0.0439
30318W        W43732  13.060  13.240  11.447 -0.0285 -0.2293  0.1518
30319W        W43733  10.956   7.563   9.954  0.0120 -0.0098  0.1870
30320W        W43734  18.222  18.178   0.636 -0.0984 -0.0260 -0.2588
30321W        W43735   2.632   9.053  14.568  0.1332  0.1557 -0.0122
30322W        W43736  10.204  17.192  11.339  0.3816 -0.1594  0.1577
30323W        W43737   3.555   1.964  11.797  0.0320 -0.0890  0.3350
30324W        W43738  13.623   3.084   3.943  0.0242 -0.2693  0.2925
30325W        W43739  16.687  10.665   5.378 -0.0827 -0.4680 -0.1091
30326W        W43740  11.641  11.450  13.960  0.1257 -0.2965  0.0938
30327W        W43741  14.467  16.704  13.076  0.2074  0.1833  0.3445
30328W        W43742   8.431  13.834   5.225  0.0187  0.0886 -0.1199
30329W        W43743   4.951   9.991   1.762 -0.1824  0.3673  0.2696
30330W        W43744  10.665  11.403   1.832 -0.1416  0.1237  0.1073
30331W        W43745   9.965   4.419  15.805 -0.2225 -0.0637  0.2111
30332W        W43746   2.656  10.010   2.443  0.0544 -0.0896  0.1216
30333W        W43747   4.514  11.615   4.703 -0.0981 -0.2931 -0.1200
30334W        W43748  14.486   8.776   5.255 -0.1488  0.1418  0.1201
30335W        W43749   3.380   4.877   2.437  0.4097 -0.1295 -0.1090
30336W        W43750   4.219   7.040   1.442  0.2911  0.0839 -0.3587
30337W        W43751  14.208   8.076  13.236  0.2207 -0.3042 -0.5168
30338W        W43752   1.367  13.710   3.792  0.1108  0.0528 -0.2313
30339W        W43753   4.925   1.453   5.389 -0.1414  0.0017  0.1673
30340W        W43754  14.761  13.557  11.069 -0.1080 -0.2649  0.1152
30341W        W43755   1.675  14.300   5.584 -0.3173 -0.0859  0.2387
30342W        W43756  18.318   7.297   0.872 -0.0077 -0.3002 -0.1699
30343W        W43757   2.911   7.021   3.489  0.0416 -0.0209  0.0223
30344W        W43758  15.541  14.532  12.981  0.0918  0.0684 -0.0073
30345W        W43759   4.567   8.501  16.493  0.1737 -0.1442  0.2325
30346W        W43760  14.680   3.853   0.838 -0.2929  0.0230 -0.0868
30347W        W43761  16.545   8.907   2.414  0.0421 -0.0748 -0.1157
30348W        W43762   8.081   8.273  12.099 -0.2940  0.0277 -0.0266
30349W        W43763   6.902   3.242  13.312 -0.0690 -0.0634  0.0012
30350W        W43764   3.399   2.089   1.476 -0.2710 -0.1869 -0.1041
30351W        W43765   3.674   1.529  13.054  0.1750 -0.1845  0.1223
30352W        W43766   3.539   4.042   1.483 -0.1793  0.1311  0.1192
30353W        W43767  15.017  18.189   4.804  0.2226  0.1956  0.1309
30354W        W43768  13.282   3.167  13.181 -0.1466  0.0948  0.0173
30355W        W43769  12.884  10.293  13.697  0.0571 -0.0454  0.1838
30356W        W43770   5.449   5.150   0.441 -0.1988  0.0305 -0.1443
30357W        W43771   5.936  15.642   5.716 -0.1053  0.0082 -0.0259
30358W        W43772  10.368   2.054  14.098  0.0353  0.3637  0.2388
30359W        W43773  12.213  16.467  14.146  0.4099  0.3249  0.2567
30360W        W43774  13.682   6.786   0.899 -0.0501 -0.0857 -0.1170
30361W        W43775   0.777  11.221   0.664  0.0521 -0.1937  0.3203
30362W        W43776  17.681   4.183  13.040  0.4654  0.1405 -0.0891
30363W        W43777  13.080  10.039   0.615 -0.0679 -0.2226 -0.1228
30364W        W43778  11.026   9.058  15.617  0.2229 -0.3448  0.0145
30365W        W43779   2.204   4.825  13.712  0.0511 -0.0757 -0.2198
30366W        W43780   5.222   1.832  11.216  0.1676 -0.4987  0.0453
30367W        W43781   1.001  10.662  16.207  0.3285 -0.0865  0.1462
30368W        W43782   0.621   3.015   4.795  0.1762 -0.1897 -0.0667
30369W        W43783   8.534  14.611  15.757  0.0806  0.1175 -0.0255
30370W        W43784   8.887  14.690  13.266  0.5123  0.0238  0.0564
30371W        W43785   0.194  14.066  11.473 -0.0913  0.0052 -0.2428
30372W        W43786  12.498   4.689  10.506  0.1203  0.0063 -0.1647
30373W        W43787   9.240  15.905  10.278  0.0893  0.1866  0.1030
30374W        W43788   9.764   1.366  15.847  0.0242 -0.1689  0.1041
30375W        W43789  13.665   3.271  15.636 -0.2869 -0.0994  0.0032
30376W        W43790   6.076   5.199   4.805  0.2989  0.1257  0.1192
30377W        W43791   0.657   8.923  11.923 -0.0547 -0.0695  0.0198
30378W        W43792   2.229   7.223  15.089  0.2481 -0.0593  0.4638
30379W        W43793   0.613   4.699   1.520 -0.3328 -0.4520 -0.1530
30380W        W43794   5.319  15.297   2.394 -0.0009  0.1602  0.0526
30381W        W43795   8.694   5.047   2.572  0.0335 -0.1116  0.1820
30382W        W43796  17.326   3.794   3.287  0.3357  0.0187 -0.1505
30383W        W43797  18.300   6.300  15.695 -0.1956 -0.4258 -0.1548
30384W        W43798  14.683   1.582  15.720  0.0228  0.0641  0.1132
30385W        W43799  17.654  15.766   1.296 -0.0934  0.0109  0.3784
30386W        W43800   5.281  11.138   2.350 -0.1217 -0.2726 -0.1562
30387W        W43801   7.389   8.706   4.155 -0.0520  0.1461 -0.2646
30388W        W43802   5.206   0.211  11.658  0.0462  0.2677 -0.1871
30389W        W43803  15.566   2.808   0.519 -0.3928  0.1259 -0.5852
30390W        W43804   9.170  15.018  14.603  0.1585 -0.1749 -0.2924
30391W        W43805   6.713   5.814  16.246 -0.2236 -0.0117 -0.0098
30392W        W43806  13.112   8.880  14.906  0.1898 -0.0615  0.1914
30393W        W43807  17.916   5.657   1.358 -0.1732  0.1244  0.0302
30394W        W43808   4.040  11.832  10.774 -0.1338 -0.1090  0.1345
30395W        W43809   4.113  12.355   4.196  0.1564 -0.0026  0.4459
30396W        W43810  12.189   1.794   4.269 -0.1406  0.2644 -0.2952
30397W        W43811   1.886  18.040  16.414 -0.1359  0.0707  0.1398
30398W        W43812   7.765   1.722   3.528 -0.0219  0.2472  0.1508
30399W        W43813   9.757  15.020   3.591 -0.1233 -0.0303 -0.0074
30400W        W43814   8.013   9.663   5.916  0.1777  0.2237  0.2495
30401W        W43815  17.230  12.634   3.088 -0.2001 -0.0708 -0.2429
30402W        W43816  14.075   7.377   1.558  0.1215 -0.4150  0.1426
30403W        W43817   0.611   2.159   4.158 -0.2385  0.0462 -0.2025
30404W        W43818  17.736   8.828  11.156 -0.0968  0.0740  0.0211
30405W        W43819   6.860   4.240   0.867  0.0336  0.0306 -0.0295
30406W        W43820  15.771   8.630  15.384 -0.1704 -0.2018 -0.1653
30407W        W43821  11.081  18.135   1.121 -0.1500 -0.1262  0.1393
30408W        W43822   9.281   2.073   5.368 -0.1419  0.1706 -0.2015
30409W        W43823   2.173  14.940   2.944  0.0200 -0.1498 -0.0017
30410W        W43824   2.421   7.735  16.278 -0.1366  0.1406 -0.2663
30411W        W43825   1.135   4.071  13.272 -0.0235  0.0023 -0.1775
30412W        W43826   5.368  14.525  10.850  0.3664 -0.1056  0.0840
30413W        W43827   4.807   2.715  12.191 -0.0680  0.0650  0.2018
30414W        W43828   5.046  13.789   3.194  0.0236 -0.1311  0.1574
30415W        W43829   7.652  13.783   2.064 -0.2485  0.1616  0.4220
30416W        W43830  14.216   6.652   2.565 -0.0938 -0.3037  0.1134
30417W        W43831   3.752   1.448   5.842 -0.2446 -0.1153  0.2621
30418W        W43832  12.972  10.498   1.346 -0.2165  0.0567  0.0657
30419W        W43833   2.716  13.028   2.180 -0.4783  0.2043 -0.1156
30420W        W43834  17.992  17.193  15.958 -0.1093  0.0351 -0.2681
30421W        W43835   6.997   3.440   9.610 -0.1470 -0.2245  0.0339
30422W        W43836   3.179  11.645   3.036 -0.0284 -0.4258  0.1230
30423W        W43837   7.015  11.253   0.884 -0.2393  0.1911 -0.0562
30424W        W43838  13.425   6.168  12.337 -0.0469 -0.0789 -0.0584
30425W        W43839  15.036   8.014   3.283  0.1116  0.0110  0.2810
30426W        W43840   4.255   7.007  14.261 -0.1451 -0.0620  0.1970
30427W        W43841   0.964   4.817   1.195  0.1863  0.3144  0.0057
30428W        W43842   9.179  11.648   1.999 -0.0500 -0.2880  0.1416
30429W        W43843  12.881   4.218   9.774  0.0050  0.0078  0.0065
30430W        W43844  11.423   3.339   4.035  0.0669  0.0714 -0.1278
30431W        W43845  11.280   7.507  13.325  0.0717  0.0108  0.0622
30432W        W43846   4.983   3.236  14.003  0.1117  0.3956  0.0610
30433W        W43847  15.136   7.181  13.446 -0.0279  0.0816  0.1715
30434W        W43848   5.136   8.120   2.145  0.1006 -0.2600  0.0198
30435W        W43849  13.749   8.791   0.690  0.1975  0.2290 -0.0454
30436W        W43850   3.003   0.501   0.667 -0.0884  0.3374  0.0951
30437W        W43851   0.412   6.562  14.139  0.1994  0.0177 -0.2788
30438W        W43852   4.849  13.554  15.024  0.2450  0.1486  0.2578
30439W        W43853  16.119   6.429   2.559  0.1496 -0.1962  0.0130
30440W        W43854   4.061  16.559   3.302 -0.2139  0.0841  0.2142
30441W        W43855   7.151   5.961   1.067  0.3608  0.1932  0.3340
30442W        W43856   5.347  17.468  10.337 -0.2749 -0.0102  0.3345
30443W        W43857   9.199   8.967   4.574 -0.2168  0.0901 -0.0253
30444W        W43858  16.253   8.003  15.623 -0.1370  0.2454 -0.1791
30445W        W43859  11.962   1.327   1.363  0.1559  0.1128 -0.1507
30446W        W43860   8.890   7.142  13.805 -0.1765 -0.0313 -0.0764
30447W        W43861   8.529   0.740   3.640  0.2956  0.4128  0.2832
30448W        W43862  18.330  14.577  15.775  0.1296  0.2545 -0.1294
30449W        W43863  10.931   9.226  16.122 -0.3062 -0.0898 -0.1670
30450W        W43864  14.205  17.442   1.850 -0.1935  0.0374  0.1477
30451W        W43865  16.337  17.242  16.099 -0.2301 -0.2322  0.3190
30452W        W43866  16.853   1.939   1.692  0.1364  0.2855  0.3776
30453W        W43867  16.926   1.500  11.706  0.1479 -0.0612 -0.0680
30454W        W43868   1.513   8.149  16.074  0.2456 -0.5424  0.2215
30455W        W43869   6.149  16.101   5.672  0.1010  0.0878 -0.2438
30456W        W43870   9.045   8.047  11.674 -0.3996  0.0371  0.3428
30457W        W43871   6.746   0.621   1.620 -0.1656  0.0383 -0.0471
30458W        W43872   1.367   9.088   0.791 -0.1008  0.1822  0.1271
30459W        W43873   9.136   7.485   5.711  0.0988  0.1284 -0.3050
30460W        W43874   4.864  15.624  13.722 -0.0781  0.2589 -0.0440
30461W        W43875   1.260  16.455  12.357 -0.0873  0.1176 -0.5711
30462W        W43876  13.396   3.078   5.292  0.3329 -0.1055 -0.0014
30463W        W43877   5.858   7.004  12.925  0.1802  0.0349  0.0723
30464W        W43878   8.876  17.847  14.784  0.1334 -0.0533 -0.1924
30465W        W43879  10.049  10.451   2.916  0.0042  0.2014  0.0491
30466W        W43880  16.778   5.516   3.161 -0.1025 -0.0284 -0.0506
30467W        W43881   1.808  16.194  11.184  0.0059  0.0290  0.1452
30468W        W43882  14.055   3.089   3.691  0.1898  0.1187 -0.2004
30469W        W43883  12.200   4.084  13.148 -0.1456 -0.1377  0.1484
30470W        W43884   3.593  11.786  11.220 -0.0420  0.3228 -0.0623
30471W        W43885  13.857   2.059   5.251  0.1630 -0.0691  0.1348
30472W        W43886   2.775   5.844   0.180 -0.0285  0.3526  0.1894
30473W        W43887   5.571   9.920   0.066  0.4504  0.0420 -0.2960
30474W        W43888  13.830   1.130  13.494  0.0166  0.0376 -0.0337
30475W        W43889   6.645  13.071   0.587  0.1929 -0.1365  0.1370
30476W        W43890   0.281   1.300  10.694  0.0685  0.1646 -0.1142
30477W        W43891   9.619   0.988   0.649 -0.1201 -0.0051 -0.2831
30478W        W43892  12.949   3.764  14.043 -0.0714  0.0612  0.2632
30479W        W43893   7.804  15.539   4.857  0.0406 -0.0516 -0.2616
30480W        W43894   6.936   2.007  12.692  0.0282  0.1705 -0.0674
30481W        W43895  13.085  16.064  10.471  0.0560  0.2500  0.0294
30482W        W43896   2.290   6.421   3.764 -0.0251 -0.1673 -0.4190
30483W        W43897  12.843   3.495  15.087  0.2465 -0.3118 -0.2695
30484W        W43898   0.688  10.729  11.534 -0.1066  0.1524  0.2397
30485W        W43899   0.763   5.534   4.529  0.0719 -0.1780  0.3471
30486W        W43900  17.369   9.947  14.885  0.1232  0.7257 -0.0394
30487W        W43901  12.876  18.048   0.663 -0.0631  0.4376  0.1414
30488W        W43902  12.668  17.467  15.407  0.1347  0.3147  0.2118
30489W        W43903  17.756   1.507  15.186  0.2665 -0.2645  0.0931
30490W        W43904   9.324   2.980   4.066 -0.2086 -0.0490  0.4332
30491W        W43905   3.635   8.313  13.987  0.2870  0.0387 -0.4809
30492W        W43906   1.220   3.494   4.249  0.0268 -0.3352 -0.1574
30493W        W43907   0.200   9.062   2.671  0.3052 -0.0425  0.3336
30494W        W43908   7.455   5.077  16.473 -0.4615 -0.0913 -0.1411
30495W        W43909  16.142  16.605   0.737 -0.3178  0.0873  0.2902
30496W        W43910   2.212  15.368  14.997  0.1109  0.1032  0.2740
30497W        W43911   0.724   5.447  13.594  0.0740  0.0846 -0.3049
30498W        W43912   2.676  10.480  15.237 -0.1972 -0.0194  0.1150
30499W        W43913  11.143   0.227   4.781 -0.1533  0.3244  0.2247
30500W        W43914   0.186  12.438   1.007 -0.1802 -0.3333  0.1373
30501W        W43915   7.178  13.320   5.152 -0.2827 -0.1242 -0.0504
30502W        W43916   7.493  13.952  10.006 -0.0860  0.0756  0.1310
30503W        W43917  15.533   9.172   1.899  0.1214  0.2063 -0.1865
30504W        W43918   0.293  12.987  13.063 -0.0764  0.1189 -0.3405
30505W        W43919   2.557  11.259   4.432 -0.1164 -0.0972  0.2046
30506W        W43920   3.235   0.069   5.307 -0.2000 -0.0437  0.0655
30507W        W43921   5.345   6.626  11.529 -0.1976 -0.4051 -0.0572
30508W        W43922   3.246  15.163   4.293 -0.3139 -0.1881 -0.0452
30509W        W43923   1.939   0.138  14.606 -0.2439 -0.0927 -0.1481
30510W        W43924  11.844   5.447   1.056  0.2788 -0.2798  0.1734
30511W        W43925   9.803  12.270  11.204  0.1035  0.1983  0.3021
30512W        W43926   4.626   9.615   3.992  0.1086 -0.0306 -0.1277
30513W        W43927  14.549  13.274  14.304 -0.1287  0.3540  0.1029
30514W        W43928   2.139  12.909   2.136 -0.2810 -0.0406  0.0623
30515W        W43929  12.870  15.301  12.103  0.0316  0.6337 -0.1172
30516W        W43930   0.167   2.287  11.409 -0.1198 -0.3346 -0.2679
30517W        W43931   0.293  14.220   3.488  0.3255 -0.1132 -0.0276
30518W        W43932  15.223   9.929  15.792  0.1276 -0.1397  0.0966
30519W        W43933   9.750   0.821  14.707 -0.2153  0.0574  0.0141
30520W        W43934  14.740   1.699  10.677 -0.1958  0.2823 -0.1042
30521W        W43935   6.202   1.375   4.147 -0.0642 -0.0617  0.2346
30522W        W43936  12.440  15.898   5.103 -0.3454  0.0828 -0.3310
30523W        W43937  10.823  14.837   2.152 -0.3906  0.2695 -0.0312
30524W        W43938   5.519   9.546   2.458 -0.1146  0.0070  0.2912
30525W        W43939   7.847   6.629   5.447  0.2695 -0.1182 -0.0367
30526W        W43940   3.881  12.083   0.795 -0.4120  0.1315 -0.0201
30527W        W43941   9.075   4.768  14.915 -0.0958 -0.0886  0.0198
30528W        W43942   6.647   6.714   0.096  0.0584  0.3755  0.2943
30529W        W43943  14.310  10.988  14.856 -0.0902  0.0944 -0.1655
30530W        W43944   5.521   9.942   4.255 -0.3106 -0.0814 -0.1069
30531W        W43945   7.128   4.227   0.306  0.0394 -0.0781  0.0972
30532W        W43946  11.359  13.924  15.556 -0.2305  0.0822  0.0789
30533W        W43947  17.617   0.638  16.287  0.0547 -0.2046  0.1746
30534W        W43948   1.401   8.333   1.257 -0.1563  0.0892  0.4660
30535W        W43949  14.082  18.244  15.539 -0.1128  0.0645 -0.1117
30536W        W43950   7.830   7.298  11.056 -0.3693  0.0590 -0.1082
30537W        W43951  11.871   1.175  10.557 -0.2759  0.1958  0.2491
30538W        W43952   0.379   7.731  15.746  0.3000  0.3588  0.1911
30539W        W43953  14.839   8.477   3.386  0.1072  0.0927 -0.1030
30540W        W43954   7.187  12.246   2.932 -0.1108  0.1321 -0.0324
30541W        W43955   6.811  10.905  14.509 -0.0581  0.0392  0.1019
30542W        W43956   1.056   3.287   5.645  0.2533 -0.1703  0.1951
30543W        W43957   0.492   4.744  15.440  0.1304  0.0970  0.0563
30544W        W43958   5.305  18.141  14.121 -0.1929  0.2041 -0.1729
30545W        W43959   3.948   5.649   3.888  0.3288 -0.2596  0.1915
30546W        W43960   8.960  14.198  13.546 -0.1800  0.0299  0.2497
30547W        W43961  15.155  13.737  12.808  0.1065 -0.0336 -0.0885
30548W        W43962   0.599   4.396  11.536  0.2572 -0.2800  0.1334
30549W        W43963  17.520  17.350  10.946 -0.1054 -0.1174  0.1282
30550W        W43964  12.606   1.795   3.939  0.0457  0.3066 -0.3412
30551W        W43965  14.133   3.845  14.526 -0.2624 -0.1688  0.1422
30552W        W43966  17.063  13.417  15.766 -0.2203  0.1265  0.2113
30553W        W43967   8.634  15.269  11.444  0.4843 -0.0791  0.2680
30554W        W43968   5.638  10.269   4.621 -0.1704 -0.0201  0.0656
30555W        W43969  12.503  11.291   3.229 -0.0664 -0.1900  0.2471
30556W        W43970   8.965  16.584   4.943 -0.2672  0.1293  0.0158
30557W        W43971  10.498   5.755   0.707 -0.1801  0.3287 -0.2829
30558W        W43972  16.647  14.604   1.765 -0.0393  0.0237  0.1255
30559W        W43973   8.680   5.644  14.129  0.0939 -0.0224  0.1852
30560W        W43974  12.690   5.135   1.124 -0.1337  0.1719  0.0265
30561W        W43975   9.444  13.187   5.845  0.1307 -0.1247 -0.0908
30562W        W43976   9.550  17.153  10.134  0.0697 -0.0984 -0.1358
30563W        W43977   3.136   4.159  13.575  0.0546  0.0293 -0.1316
30564W        W43978  12.759   8.799  14.519  0.0670  0.0992 -0.0733
30565W        W43979  15.194  16.173   3.203  0.0300  0.4821  0.1222
30566W        W43980  16.203   8.845  15.888  0.0158 -0.1238  0.2927
30567W        W43981  14.591  12.010   4.845  0.1947 -0.2985 -0.1298
30568W        W43982   3.651   9.821  13.828  0.0482 -0.1740 -0.0958
30569W        W43983   7.065  15.283   4.599  0.0466 -0.0638 -0.3127
30570W        W43984   1.400   7.267   2.571  0.1567  0.0086  0.0784
30571W        W43985   5.923  17.449  15.816  0.2127  0.0016 -0.1298
30572W        W43986  14.517   7.925   8.910  0.0578  0.0579  0.0223
30573W        W43987   6.122   5.976  15.631 -0.3887  0.0822  0.0528
30574W        W43988   5.297  16.582   5.212  0.1690  0.2458  0.1645
30575W        W43989   0.886   1.357   4.654  0.2359  0.1136  0.0852
30576W        W43990   3.827  16.073  13.786 -0.2100 -0.0468 -0.0087
30577W        W43991  14.594   2.179  10.537  0.1332  0.0180  0.1601
30578W        W43992  14.181   3.528  16.440  0.1967 -0.0145 -0.0472
30579W        W43993  16.402   6.463   3.634 -0.3883 -0.0865 -0.1338
30580W        W43994   4.785  17.057  15.896  0.0451 -0.0470  0.1066
30581W        W43995   0.846  13.070   0.728 -0.0630 -0.1909  0.2738
30582W        W43996  12.991  12.860   4.639 -0.1314 -0.0457  0.1125
30583W        W43997   2.444   0.461  16.290  0.1864  0.1381  0.0490
30584W        W43998  11.522  16.143   4.451 -0.0439  0.1821  0.2523
30585W        W43999  18.338  10.296  16.181 -0.1037 -0.0298 -0.1621
30586W        W44000   4.581  14.330   5.848 -0.2083 -0.1335 -0.1946
30587W        W44001  12.303  14.731   2.364 -0.0251  0.0547  0.0972
30588W        W44002  17.000   1.426   3.110  0.0834 -0.0859  0.1923
30589W        W44003  16.614   4.753   1.225 -0.2711  0.3163 -0.0803
30590W        W44004  17.019   2.192  13.530 -0.2359 -0.0736 -0.0042
30591W        W44005  14.670  16.269  14.406 -0.1275  0.0111 -0.1029
30592W        W44006  10.144  15.886  15.226 -0.1241 -0.5112 -0.0103
30593W        W44007   7.107   6.781   3.477 -0.1055  0.1384  0.0720
30594W        W44008   8.676   1.562   3.154  0.0833 -0.0854 -0.4069
30595W        W44009  11.705   0.291  14.330  0.0387 -0.0471  0.0430
30596W        W44010   3.464   3.548  10.553  0.1700  0.3177  0.2576
30597W        W44011   4.385  12.981   5.277  0.3798  0.0930 -0.2392
30598W        W44012  10.937  11.958  15.447  0.0041  0.2469  0.1032
30599W        W44013  13.408  10.317   1.119 -0.1176 -0.0921  0.3101
30600W        W44014  11.257   8.799   2.534  0.1110  0.0640  0.5366
30601W        W44015  15.534  17.167  13.606 -0.3252 -0.0760  0.2951
30602W        W44016   7.773   9.549  14.097 -0.1992 -0.0275 -0.1040
30603W        W44017   4.259   4.486  14.807 -0.1358 -0.0699  0.1774
30604W        W44018  10.270   7.823   4.234 -0.0567 -0.0558 -0.0215
30605W        W44019  17.844   8.765   4.403 -0.0109  0.2193  0.0897
30606W        W44020   3.033   0.166  15.025 -0.0977 -0.0539  0.3281
30607W        W44021   7.923  14.573   3.191  0.1370 -0.0483  0.0378
30608W        W44022  10.903   2.796   5.648 -0.4431 -0.1596 -0.2460
30609W        W44023  17.397   0.298  15.394 -0.1135 -0.3627  0.0207
30610W        W44024   3.304  17.551   5.314  0.2016  0.0641  0.0905
30611W        W44025  17.769   9.115   4.787  0.1259 -0.0585  0.0213
30612W        W44026  16.969  14.611   0.447  0.4459 -0.3544  0.2656
30613W        W44027  14.344  10.796  13.624 -0.1118 -0.0172 -0.1844
30614W        W44028  10.002   4.251  10.486 -0.3335  0.1246 -0.1918
30615W        W44029   1.836   4.946   0.020 -0.1983 -0.1149  0.0078
30616W        W44030   6.358   2.757   3.708 -0.2801  0.2587 -0.0176
30617W        W44031  13.356   7.483  15.548  0.1372 -0.2741 -0.2454
30618W        W44032  17.098   9.458   1.670  0.1673 -0.0294  0.2092
30619W        W44033   7.845  11.236  16.254  0.1132 -0.0504  0.0216
30620W        W44034  13.577   1.243  14.789 -0.0950  0.0849 -0.0618
30621W        W44035  11.426  13.475   1.045 -0.3151 -0.2329 -0.4100
30622W        W44036  14.474  10.825   2.770  0.1038  0.1565  0.0937
30623W        W44037  15.781  18.217   3.673  0.0387  0.1803  0.1714
30624W        W44038   4.173   4.913  15.181 -0.0580 -0.2785 -0.0584
30625W        W44039  17.020   2.106  10.853 -0.1561  0.1238 -0.1320
30626W        W44040   6.448  15.173   0.386 -0.2000  0.1168  0.0381
30627W        W44041   2.809   2.366  13.563 -0.2810  0.1433  0.0348
30628W        W44042   3.697  16.362  12.466  0.0385  0.0546 -0.0476
30629W        W44043   4.113   7.753  16.054 -0.1081  0.0139  0.3341
30630W        W44044   1.364  17.264  16.370 -0.1759 -0.1929  0.0486
30631W        W44045   8.507  10.071   1.131  0.3317 -0.0695  0.0351
30632W        W44046  12.279   3.049  13.485 -0.1485 -0.1097  0.2462
30633W        W44047   5.121  18.042  11.631 -0.4325 -0.0340  0.2140
30634W        W44048  14.475  15.771   6.400  0.1903 -0.1761  0.1899
30635W        W44049   0.172  11.681  16.200  0.0116  0.0963  0.0813
30636W        W44050   3.047  17.989  13.552  0.2745  0.0100  0.2274
30637W        W44051  11.270   7.573   2.901  0.1305 -0.0032  0.1310
30638W        W44052   2.322  17.179   6.064 -0.0003 -0.0006  0.0943
30639W        W44053  10.275   6.001  14.887  0.2342  0.3857 -0.0946
30640W        W44054  15.726  10.340  15.955 -0.2628  0.1764 -0.2700
30641W        W44055   5.837  14.571   1.459  0.1019  0.2120  0.1797
30642W        W44056  12.658   0.983  12.578  0.3054  0.0634  0.1626
30643W        W44057   2.268  16.109  14.465  0.1694  0.1767 -0.0316
30644W        W44058  15.442  10.518  12.020 -0.0284 -0.0271  0.2087
30645W        W44059   6.257  12.622   4.780  0.3561  0.1321  0.0475
30646W        W44060  14.858   2.400   1.115 -0.2038 -0.0408  0.1866
30647W        W44061   1.405   9.817   2.901 -0.1363 -0.1470  0.3450
30648W        W44062   7.746   4.381  12.216  0.1813  0.1900  0.3595
30649W        W44063  12.200  12.428  16.074  0.4496 -0.1438  0.1921
30650W        W44064  14.499   7.689   0.660 -0.0480 -0.0337  0.0879
30651W        W44065   0.470  17.830  14.545  0.2265 -0.0037  0.1423
30652W        W44066   4.377  10.858   2.192  0.1107 -0.3610  0.1468
30653W        W44067  11.819   3.956   3.330  0.0604 -0.0036 -0.1372
30654W        W44068   6.184   5.244  12.661 -0.0047  0.2557  0.0156
30655W        W44069   6.952  12.830  11.919  0.3123  0.0452 -0.1823
30656W        W44070  13.052   4.519  11.327  0.0815  0.0983  0.0413
30657W        W44071  12.378   3.382  12.166  0.0682  0.0758 -0.2040
30658W        W44072   1.957  10.160   2.964 -0.1504  0.2227 -0.2823
30659W        W44073  10.373  11.146  13.696  0.0187  0.0175 -0.0857
30660W        W44074  13.152   1.065  10.059  0.3084  0.1309 -0.0173
30661W        W44075  17.242  11.959  12.196 -0.1358 -0.0784 -0.1302
30662W        W44076   0.784   4.408   0.997 -0.1512  0.1633  0.0586
30663W        W44077   6.206  16.398  12.564 -0.0298  0.2736 -0.2105
30664W        W44078   6.321  14.913   5.625  0.0581 -0.1420 -0.0017
30665W        W44079   8.435  18.329  16.461  0.2101  0.0666 -0.3318
30666W        W44080  11.063  16.395   4.064  0.2068 -0.4001 -0.1345
30667W        W44081  13.447   6.511   9.887  0.0466 -0.3013  0.0856
30668W        W44082   6.620   1.934   3.902  0.2126  0.0164 -0.0741
30669W        W44083  17.018  16.732  12.703 -0.2842  0.3188  0.0942
30670W        W44084  17.058  10.607   4.135 -0.0609  0.0172  0.1394
30671W        W44085   2.933  12.997  12.422 -0.1533 -0.1265 -0.2766
30672W        W44086  10.236  14.918   3.747  0.2586 -0.0820  0.3870
30673W        W44087   4.205   0.203  14.355 -0.0945 -0.2290  0.4805
30674W        W44088   5.263   9.930   4.690 -0.3555  0.2395 -0.4201
30675W        W44089   6.612   0.932  15.564 -0.1238  0.1806 -0.0174
30676W        W44090  10.526   6.500   4.572  0.2918 -0.0549 -0.1709
30677W        W44091  17.432   9.889   1.920  0.1310 -0.0769 -0.3126
30678W        W44092   8.011   3.387  13.320  0.2477 -0.1964 -0.0149
30679W        W44093  16.325   9.087  12.535  0.1902  0.2379 -0.0132
30680W        W44094   7.007   4.099  14.349  0.2067 -0.1369 -0.1743
30681W        W44095   1.825   3.028   3.192 -0.3065 -0.0963  0.3729
30682W        W44096  14.247   5.936   4.178  0.4206  0.2274 -0.2304
30683W        W44097  13.509  14.129  16.102  0.1187  0.0713  0.3414
30684W        W44098  10.309  16.206  11.000  0.1097  0.1640 -0.1529
30685W        W44099  11.553   2.829   4.162  0.1453 -0.2620 -0.0543
30686W        W44100  16.487  16.324  11.863  0.0448 -0.2471  0.0817
30687W        W44101   8.570  13.408   0.635 -0.3253 -0.0665  0.1529
30688W        W44102   9.570   2.884   4.986 -0.1391 -0.2118 -0.0052
30689W        W44103  11.392  10.072   4.285 -0.0967 -0.0846 -0.2116
30690W        W44104  17.307  16.259   3.577 -0.0531 -0.3050  0.1512
30691W        W44105  12.590  12.033  13.955  0.0795 -0.2197 -0.0704
30692W        W44106   0.245  14.086   5.411  0.1418  0.0343 -0.3095
30693W        W44107  15.372  15.622  11.316 -0.2598 -0.0416  0.2756
30694W        W44108   1.915  11.752   0.062  0.2318 -0.2425 -0.0217
30695W        W44109  14.106  12.817   3.052  0.1092  0.1543 -0.1906
30696W        W44110  14.196   9.133  14.120 -0.0558  0.0476 -0.0403
30697W        W44111  12.928  13.583  11.147  0.2357  0.0099 -0.0300
30698W        W44112   8.265  12.650   0.851  0.0235 -0.1601  0.0114
30699W        W44113  13.029   4.029  11.547 -0.1412  0.0591 -0.0680
30700W        W44114   7.024   3.109   3.166 -0.2184 -0.1765  0.2190
30701W        W44115  10.687  17.677   2.331 -0.1468 -0.0826  0.3175
30702W        W44116  12.902  10.237   2.043  0.0105 -0.0309 -0.0622
30703W        W44117   6.316   1.166  12.007  0.0858  0.1202  0.0547
30704W        W44118  17.541  15.045  13.424  0.1896  0.0127 -0.2616
30705W        W44119  16.005  13.979   3.280 -0.0985  0.5291  0.1495
30706W        W44120   2.131   2.707   3.568  0.0747 -0.1291  0.0961
30707W        W44121   1.714   8.294  12.990  0.3665  0.1290 -0.0159
30708W        W44122  10.016   7.182  12.069 -0.1253 -0.3282 -0.2558
30709W        W44123   1.050   9.233   0.456 -0.2402  0.4741 -0.0273
30710W        W44124  11.460   3.440   4.500  0.1987 -0.2327 -0.1280
30711W        W44125   0.378   5.843   4.815 -0.1395  0.2771  0.0985
30712W        W44126  17.861  11.238  14.163  0.2023  0.0358  0.0846
30713W        W44127  14.991   0.113   5.811  0.3237  0.0659 -0.2512
30714W        W44128  11.707  11.833  12.659 -0.1250  0.0955 -0.1216
30715W        W44129   2.003   8.158   4.058  0.3248 -0.4695  0.0202
30716W        W44130   4.161   3.425   2.821 -0.1087 -0.0914 -0.1069
30717W        W44131   4.585  10.518   0.663  0.4415  0.0002  0.2144
30718W        W44132   0.529  12.909   2.370 -0.2818  0.3193 -0.0944
30719W        W44133   2.632  10.790  14.422  0.1041  0.4178  0.3551
30720W        W44134   0.643   8.431  13.102  0.2560 -0.0411  0.2237
30721W        W44135  15.807   5.514  15.380  0.4764  0.0907 -0.1313
30722W        W44136  16.395   5.810   0.451 -0.2037 -0.1793  0.0048
30723W        W44137   1.793  15.278  15.306 -0.1401  0.2033  0.0335
30724W        W44138   8.794  13.670   2.678 -0.1686 -0.1189 -0.2642
30725W        W44139  16.761   0.855   3.147  0.1312 -0.2522  0.0301
30726W        W44140   1.105   2.719  11.451  0.2510  0.1122 -0.3515
30727W        W44141   9.624   7.240   3.607 -0.3870 -0.0758 -0.3427
30728W        W44142  10.992  11.081   2.244  0.0818  0.0627  0.0900
30729W        W44143   9.668  15.743  12.474 -0.0679 -0.1499  0.1588
30730W        W44144   4.039  10.974  12.727  0.0811  0.1661  0.0703
30731W        W44145  15.285  14.338   3.848 -0.1374  0.0155 -0.2676
30732W        W44146  13.154  12.233   5.268  0.2373 -0.1489 -0.0348
30733W        W44147   1.954   7.390   9.999 -0.1830 -0.2023  0.2104
30734W        W44148   3.752   1.067  12.277  0.2195  0.0805 -0.2204
30735W        W44149   7.556   7.183   0.842  0.0537  0.1053  0.1693
30736W        W44150  15.306  15.022   5.459  0.0009 -0.0313  0.0605
30737W        W44151  18.300   2.187   0.755 -0.0317  0.1680 -0.2992
30738W        W44152  17.533   2.960   4.747  0.0308  0.0097 -0.1747
30739W        W44153  12.946   2.493   4.493  0.2229  0.1181 -0.0830
30740W        W44154  11.856  12.746   3.400 -0.3514 -0.0045  0.2402
30741W        W44155  10.064  17.823  12.699 -0.0492 -0.0995  0.0156
30742W        W44156  12.519   6.246   4.736  0.2072 -0.2476 -0.2394
30743W        W44157   9.444  15.732  15.103  0.4242  0.0059 -0.0940
30744W        W44158  14.483  16.442  10.988 -0.0204  0.2082  0.0162
30745W        W44159  12.695   0.524   5.670 -0.2671  0.0552  0.0209
30746W        W44160   7.608   9.225   4.262  0.3270 -0.1545  0.2707
30747W        W44161  14.609   6.882   3.967 -0.1196 -0.1992 -0.1873
30748W        W44162   7.314   0.765  10.181  0.0468 -0.1537 -0.3582
30749W        W44163   3.333  14.386   5.385  0.0609  0.2445 -0.2886
30750W        W44164  17.032   2.515  15.071 -0.0654 -0.1395 -0.0297
30751W        W44165   1.596   3.288   0.235 -0.2949  0.1073 -0.1990
30752W        W44166   6.709   9.753   3.259  0.1322  0.1798 -0.1364
30753W        W44167  15.914   9.020  13.854 -0.0112 -0.2944  0.1626
30754W        W44168  13.614  13.057  13.567  0.5112  0.0619  0.1330
30755W        W44169   3.073   2.023   1.893  0.0644 -0.2254  0.1017
30756W        W44170  10.843  12.409  11.922  0.0598 -0.2045  0.0081
30757W        W44171   1.057   1.903   3.499 -0.0049 -0.0481  0.0055
30758W        W44172  15.837  13.096  14.815 -0.3237 -0.1887 -0.1606
30759W        W44173   8.040   7.019  14.830 -0.3321 -0.2096 -0.0426
30760W        W44174   5.913   4.166   3.932  0.1229  0.1111  0.3018
30761W        W44175   8.249  15.706   1.800  0.1668 -0.0744 -0.1030
30762W        W44176  11.185   4.835  16.067  0.0974  0.2147 -0.5783
30763W        W44177   9.598   7.668  13.340 -0.2149  0.0240 -0.2211
30764W        W44178   5.369   1.302   5.233  0.1761 -0.1004 -0.0194
30765W        W44179   6.276   9.520  15.956 -0.3151 -0.0121 -0.0113
30766W        W44180   2.371   4.998  11.136 -0.1159 -0.1847  0.1378
30767W        W44181   2.799  16.948  14.048  0.1235  0.3297 -0.1630
30768W        W44182   9.913  12.672  10.285 -0.0013  0.3297  0.1368
30769W        W44183  15.458   1.657   1.383  0.3330  0.0334  0.0720
30770W        W44184  15.484   9.795   2.536  0.0719  0.0087  0.0411
30771W        W44185   4.647   8.865   0.297  0.3945  0.0543  0.1555
30772W        W44186   0.749   3.003  14.221 -0.1016  0.2904 -0.1573
30773W        W44187   8.520  17.827   2.545  0.4383 -0.2489 -0.2117
30774W        W44188  16.058  12.689  12.665 -0.1182 -0.0279  0.0140
30775W        W44189  14.942  10.428  15.410  0.1381  0.1503 -0.1611
30776W        W44190  12.526   5.040   3.996 -0.1137 -0.2376 -0.1485
30777W        W44191  13.905   9.956  13.950  0.0816 -0.3698 -0.1827
30778W        W44192  13.753  17.776  11.791  0.2923 -0.0018 -0.0474
30779W        W44193  17.401   9.112   0.411  0.3158 -0.1023  0.6207
30780W        W44194   3.060  18.090  12.975  0.0127  0.1253 -0.1066
30781W        W44195  14.036  14.305   5.338 -0.2660 -0.1440 -0.2214
30782W        W44196   4.580   5.994   4.461  0.0668 -0.0818 -0.3733
30783W        W44197  14.267   2.040  13.363 -0.2831  0.2143 -0.1108
30784W        W44198   3.869  13.872  14.845 -0.1321 -0.3298 -0.0006
30785W        W44199   0.867  17.171   5.755  0.1541 -0.1272  0.0851
30786W        W44200  17.131   1.056   2.773 -0.2757  0.0792 -0.0521
30787W        W44201  10.641  13.506  12.330  0.0784  0.0215 -0.1187
30788W        W44202  12.700  14.480  13.677 -0.0867  0.4407 -0.0817
30789W        W44203  18.242   1.155  12.921 -0.2257  0.3865 -0.3387
30790W        W44204   4.948  18.165   0.965  0.0559  0.0472  0.3996
30791W        W44205  12.078   2.073  11.579  0.2472 -0.0855 -0.1619
30792W        W44206   5.999   6.769   4.863  0.0075 -0.0756 -0.0763
30793W        W44207  12.809  12.582   3.163 -0.0477 -0.1552  0.1008
30794W        W44208  16.010   4.569   4.296  0.1032 -0.1127  0.2181
30795W        W44209  10.976   5.142  11.773 -0.1175  0.0192  0.1581
30796W        W44210   3.874  16.913  16.032 -0.2563 -0.0449 -0.0761
30797W        W44211   3.104   1.216   1.676 -0.0054  0.1717  0.0249
30798W        W44212  15.318  17.868   4.449  0.0912  0.1113 -0.0250
30799W        W44213   2.876   6.006  15.568  0.1938  0.1315 -0.1694
30800W        W44214   7.142   7.471   6.491 -0.3848  0.0754 -0.3888
30801W        W44215  18.097   6.031   0.583 -0.0631 -0.4851  0.1258
30802W        W44216  13.212  14.500   0.024 -0.0309  0.2142 -0.2195
30803W        W44217   1.999  16.542   6.833  0.3845  0.1210 -0.1133
30804W        W44218   3.465  17.815   3.772 -0.2754  0.0425  0.0141
30805W        W44219  15.100  10.990  16.178 -0.1520 -0.0538  0.0330
30806W        W44220   6.964   8.883   0.137  0.1858 -0.2235 -0.2207
30807W        W44221   7.262  11.405   0.460  0.1602  0.1267  0.1542
30808W        W44222   0.626   2.095  14.601  0.2670 -0.2421  0.0741
30809W        W44223   5.552   5.216  14.799 -0.1294 -0.1919 -0.0019
30810W        W44224   4.409  16.921   1.906 -0.1419  0.1298 -0.2720
30811W        W44225  12.295   0.276  11.819  0.0428 -0.3205 -0.2647
30812W        W44226  18.313  11.395   4.515  0.0931 -0.0861 -0.1706
30813W        W44227   3.482   7.286   4.952 -0.0571 -0.1614 -0.0283
30814W        W44228  10.151   5.281  10.733  0.0223  0.0452 -0.0272
30815W        W44229  13.379  10.268  13.506 -0.2590 -0.1263 -0.0263
30816W        W44230   4.276   6.526  12.410  0.0683  0.0161 -0.0278
30817W        W44231  10.071  15.396  14.276 -0.2127  0.0555 -0.3187
30818W        W44232   2.422   4.033   6.052  0.2146 -0.0196  0.1584
30819W        W44233   7.364  11.096  10.932 -0.0631 -0.0401  0.0405
30820W        W44234   6.689  15.586  15.183  0.1188  0.0640  0.1170
30821W        W44235  13.787   2.831  12.820  0.0537 -0.1429 -0.1871
30822W        W44236   6.677  14.944  11.058  0.0807 -0.1613  0.0718
30823W        W44237  15.220  11.877  10.187 -0.0821  0.2703 -0.0861
30824W        W44238  11.290   6.802   4.955 -0.0322 -0.2047 -0.0260
30825W        W44239  11.572  16.490   1.669  0.0107  0.4124  0.0050
30826W        W44240   6.012  12.214   1.461  0.1391  0.1821 -0.0773
30827W        W44241   8.130   4.562  15.331  0.0261 -0.2129  0.0666
30828W        W44242  13.458   4.520   4.887  0.0630  0.2906  0.1819
30829W        W44243   5.669   8.331  13.508  0.0223 -0.3907  0.4134
30830W        W44244   0.408   2.070   5.782  0.0390  0.0318  0.0106
30831W        W44245  14.397   9.458   3.979  0.0513 -0.0780 -0.1335
30832W        W44246  16.339  16.713  14.320 -0.3613  0.2616 -0.4967
30833W        W44247  18.178  10.101   4.132  0.1693 -0.1980 -0.0947
30834W        W44248  12.788   0.956   0.661 -0.3647 -0.3359  0.0209
30835W        W44249   3.093  13.159   2.522 -0.1673  0.2555 -0.1084
30836W        W44250  17.101  10.216  11.621  0.0994 -0.4001 -0.0138
30837W        W44251  17.564  17.699   0.477  0.0761 -0.2021 -0.2047
30838W        W44252  15.964  17.636  14.700  0.3677 -0.1748  0.1654
30839W        W44253  14.572   8.410  14.916 -0.1492  0.0205 -0.0511
30840W        W44254   0.603   8.733  14.856  0.3815 -0.2259 -0.2293
30841W        W44255  14.364  12.377   1.697  0.2076  0.0698 -0.4107
30842W        W44256   4.688  16.266   4.710  0.0376 -0.1321 -0.1300
30843W        W44257  15.427   0.905  12.243  0.1359  0.2693 -0.0928
30844W        W44258  15.838  12.893  16.050 -0.3179  0.0499  0.0563
30845W        W44259   0.707  14.012  11.463 -0.3133 -0.0883 -0.3821
30846W        W44260  10.928  11.105   2.793 -0.0429  0.1603  0.0633
30847W        W44261   7.759  11.929   2.197  0.0072  0.2339  0.2473
30848W        W44262   8.883   3.957   1.470 -0.0946  0.0145  0.0860
30849W        W44263  16.160  16.344   1.558  0.2435 -0.3893  0.0968
30850W        W44264  10.438  10.330  15.613 -0.3342  0.0469  0.2354
30851W        W44265  13.947   0.969  12.182 -0.2942  0.1272 -0.2410
30852W        W44266   2.834  15.921   1.616 -0.1701  0.0814  0.2833
30853W        W44267   4.987   7.411   1.342 -0.0082  0.3113 -0.1782
30854W        W44268   6.611   0.188  16.155  0.0289  0.1593  0.0646
30855W        W44269   2.108  11.097  12.378 -0.0711  0.0735  0.0915
30856W        W44270   1.281   3.964  15.478 -0.0241 -0.1619 -0.2238
30857W        W44271   3.605   3.997  10.510 -0.2791 -0.2357  0.2053
30858W        W44272  12.973   6.286   4.505 -0.2018 -0.2466  0.1519
30859W        W44273   0.505   9.716   1.557 -0.0161  0.1143  0.2984
30860W        W44274  16.954   3.444   4.109  0.0895 -0.0575 -0.1637
30861W        W44275  18.288  13.686  16.199 -0.1485  0.2672  0.1122
30862W        W44276   6.459  16.882   1.084 -0.2125  0.3035  0.3548
30863W        W44277   4.002  15.924  11.262 -0.3769  0.1884 -0.2319
30864W        W44278  14.845  15.171  15.563 -0.3633  0.1054 -0.0928
30865W        W44279  11.331   3.988  15.330 -0.0861  0.1844 -0.2552
30866W        W44280  12.941   1.933  15.012 -0.1581 -0.0298 -0.2534
30867W        W44281   8.852   3.591   3.368 -0.0069 -0.1960  0.2762
30868W        W44282   3.986  11.821  12.457  0.0667  0.1370 -0.1014
30869W        W44283  10.730  16.189   0.603  0.1913  0.1659 -0.1616
30870W        W44284  13.331  13.495   3.006 -0.4282  0.1852 -0.0189
30871W        W44285  13.979   3.104  16.383 -0.0815  0.0964 -0.1470
30872W        W44286  15.605  11.036   2.667  0.0410 -0.0095 -0.0474
30873W        W44287   3.953   7.809   1.756  0.1364 -0.1402  0.3262
30874W        W44288   6.243  17.717  12.831  0.0804  0.0519  0.2559
30875W        W44289   1.260   0.601   4.842  0.0617 -0.0088  0.1957
30876W        W44290   9.199   3.180  11.543  0.1460 -0.1684 -0.0108
30877W        W44291   0.709   5.228  10.390 -0.1271  0.0812  0.1495
30878W        W44292   6.066   9.406  15.457  0.0815  0.0226 -0.2812
30879W        W44293   0.730   5.687  15.198 -0.3120 -0.0267 -0.2407
30880W        W44294  17.288  13.582   5.761  0.2787  0.1263 -0.1751
30881W        W44295  14.269   6.945  12.651 -0.1841  0.1141  0.2542
30882W        W44296   5.459   9.293   2.946 -0.1061 -0.0910  0.3664
30883W        W44297   4.454  14.322   0.083 -0.0416  0.0734 -0.0304
30884W        W44298   5.209   2.326   4.084 -0.2014  0.2080  0.0379
30885W        W44299  18.114  14.180  16.243  0.1179  0.2373  0.3659
30886W        W44300   5.764   2.458   1.730  0.0416 -0.0651  0.0411
30887W        W44301   5.198   1.094   0.948 -0.2501 -0.4231  0.1709
30888W        W44302   6.614  16.222   5.490  0.2685  0.1461 -0.1285
30889W        W44303  16.582   1.711   5.821  0.1259 -0.1395 -0.0954
30890W        W44304   6.627  15.046  12.583 -0.1544  0.1971  0.1644
30891W        W44305  15.118   0.138  11.679 -0.2614  0.0851 -0.2232
30892W        W44306   3.043  15.783  14.779  0.2475 -0.0458 -0.1726
30893W        W44307   0.175   7.792  13.831  0.3661  0.1940  0.0593
30894W        W44308  18.047  16.969   5.021 -0.0477  0.0768 -0.0903
30895W        W44309   6.523   1.264  10.562 -0.4169  0.0711  0.0639
30896W        W44310   3.867   7.074   4.579 -0.2326 -0.0936  0.0075
30897W        W44311   3.508   0.482  13.273  0.0912  0.0660 -0.2501
30898W        W44312  10.741  17.201  12.883  0.3205 -0.2941  0.1774
30899W        W44313   0.500   8.351  10.736  0.2324 -0.1903  0.0744
30900W        W44314   1.158  18.262  12.070  0.0356  0.3104  0.1239
30901W        W44315  11.499   2.283  11.337 -0.0571  0.1527  0.2317
30902W        W44316  10.993  13.882  16.030 -0.1537 -0.0051 -0.0211
30903W        W44317  11.050  18.151  14.016 -0.1759 -0.1706  0.4091
30904W        W44318  11.596  13.075  12.250  0.1849  0.0390  0.0124
30905W        W44319   8.261   2.736   5.229 -0.3695 -0.0076 -0.1076
30906W        W44320   2.196   7.656  14.844  0.0546 -0.0402  0.0604
30907W        W44321   5.894  10.616  15.234  0.0887  0.2325  0.0266
30908W        W44322   5.590   7.550  11.144 -0.0349 -0.4520 -0.1622
30909W        W44323   0.892   1.391  12.328 -0.0612  0.1677 -0.2106
30910W        W44324   9.943   5.979   2.526 -0.1532  0.1792 -0.0246
30911W        W44325   1.561   8.061  15.042  0.1077  0.3425 -0.2562
30912W        W44326  16.481  13.153   1.993 -0.3836  0.1694  0.0552
30913W        W44327  14.683  10.837  11.735  0.0731 -0.1716 -0.1705
30914W        W44328   6.444  15.423  10.880 -0.0011 -0.3504  0.2907
30915W        W44329   4.636  12.143  14.982 -0.0888 -0.0833 -0.0791
30916W        W44330  15.350  17.725   0.790 -0.1618  0.2486 -0.0207
30917W        W44331   2.774   9.659  11.305  0.0007 -0.2321  0.2058
30918W        W44332   6.614  17.565  13.700 -0.1300 -0.2732 -0.0686
30919W        W44333   0.301  10.026  16.090 -0.4515  0.2306 -0.2741
30920W        W44334  13.550  16.539  12.496  0.0447  0.2046  0.3297
30921W        W44335   9.301  12.529  10.938 -0.2937 -0.0189 -0.0701
30922W        W44336   2.850  11.512  11.791 -0.0832  0.1566  0.0661
30923W        W44337   2.401   3.567   0.140  0.3139 -0.3652  0.1295
30924W        W44338   1.612   7.888  14.299  0.2711 -0.1572 -0.2249
30925W        W44339  14.751   7.203   3.378 -0.1465  0.2607  0.1652
30926W        W44340  13.065   1.357  15.918 -0.1018  0.2664 -0.3419
30927W        W44341   3.138  16.996   3.721 -0.0247 -0.0602 -0.1698
30928W        W44342  14.581  11.523  15.586 -0.0244  0.0419 -0.0622
30929W        W44343   8.781   1.728   5.158  0.0227  0.1374  0.0430
30930W        W44344  14.513   8.020  11.879 -0.0132  0.1788  0.3137
30931W        W44345   6.073  15.635   3.079 -0.0151  0.0573 -0.0720
30932W        W44346   2.500  15.622   2.562 -0.0138  0.0542  0.1832
30933W        W44347  17.674   9.629   4.677  0.1213 -0.4273  0.1076
30934W        W44348   8.248  11.916  16.360  0.1922  0.1834 -0.3752
30935W        W44349   5.280  14.416  16.098 -0.0752 -0.2112 -0.3974
30936W        W44350  10.753   7.777   1.555 -0.0937  0.0956  0.3845
30937W        W44351  14.950  15.590   1.960 -0.1486 -0.1871 -0.0081
30938W        W44352   7.244   1.616  15.548  0.3268  0.0433 -0.0442
30939W        W44353  15.186   3.909   5.488  0.1060  0.0158 -0.1081
30940W        W44354   3.726   2.424   5.947  0.1631  0.0825  0.3019
30941W        W44355   6.376   4.636   4.851 -0.4122 -0.0855 -0.1123
30942W        W44356  11.465  14.189   5.757 -0.1275  0.0147  0.0964
30943W        W44357  10.585  11.317   0.567  0.2377 -0.1018  0.3804
30944W        W44358   1.263  11.115   4.283 -0.0785  0.1635  0.1346
30945W        W44359  14.587   2.626   2.240  0.0877 -0.4088 -0.0471
30946W        W44360   8.286  14.907   3.581 -0.1004 -0.3028  0.2038
30947W        W44361   2.060   5.039   5.173  0.3006 -0.0418  0.0333
30948W        W44362   5.416   7.671   2.222  0.2032 -0.0134 -0.1434
30949W        W44363  17.679  15.029   1.647 -0.1078  0.1191 -0.1425
30950W        W44364  15.268   8.416   3.130 -0.0919 -0.2423 -0.1421
30951W        W44365  16.540   1.865   4.487  0.1253  0.1081  0.1694
30952W        W44366   3.347   4.986  12.846 -0.0036  0.0870  0.1217
30953W        W44367   8.339  17.886  14.891  0.1336  0.0602  0.2484
30954W        W44368  11.193   1.285  11.234  0.2897  0.0102 -0.0290
30955W        W44369  17.748  11.835   4.329 -0.0852 -0.2592  0.0421
30956W        W44370  17.261  10.305   0.056 -0.1246 -0.0724  0.2224
30957W        W44371  12.946   9.333  13.461  0.1629 -0.0799 -0.1591
30958W        W44372  15.539   1.310  12.762 -0.3907  0.4941 -0.1706
30959W        W44373  17.001  18.267  15.252 -0.0829 -0.0659  0.1516
30960W        W44374  16.346  15.287  14.221  0.1647 -0.2951 -0.4178
30961W        W44375  13.516  10.522   0.658  0.0352  0.1116 -0.0956
30962W        W44376   6.679   9.569   1.567 -0.1293 -0.1507  0.0084
30963W        W44377   2.968   0.069  15.566 -0.0297 -0.1252  0.0654
30964W        W44378   1.448   2.667  11.945 -0.0126 -0.0702 -0.0925
30965W        W44379   1.527   4.955  12.815  0.1976  0.2661 -0.1453
30966W        W44380   2.381  15.991  13.453 -0.0709  0.1459  0.0997
30967W        W44381  16.277   3.345  12.663  0.2190  0.1215  0.1473
30968W        W44382  14.405  13.541  11.800 -0.2293  0.4830  0.3031
30969W        W44383   4.371  13.248  14.194 -0.0608 -0.1459  0.0365
30970W        W44384   3.558   4.315   0.464 -0.1271  0.2333 -0.1095
30971W        W44385  14.092  14.183  11.451  0.0406 -0.0603 -0.0616
30972W        W44386   4.019  11.519  14.605 -0.0412  0.1194  0.0496
30973W        W44387   6.150  11.574  14.214  0.2735 -0.1612  0.0543
30974W        W44388  14.911   4.636  10.061 -0.3279  0.0783 -0.0936
30975W        W44389  16.118   0.807   3.885 -0.0537 -0.0470 -0.1156
30976W        W44390   4.050   5.350   3.494  0.1969 -0.0273  0.0432
30977W        W44391   6.042   2.165  12.688 -0.0258  0.1494  0.0647
30978W        W44392   9.205  14.099   4.362  0.4624 -0.1254 -0.0233
30979W        W44393   7.867   2.258  15.931 -0.2943  0.2631  0.3104
30980W        W44394   5.602   2.558  16.268  0.4415  0.0679  0.1580
30981W        W44395  11.709  17.418  16.159  0.0053  0.0510  0.0826
30982W        W44396  16.308  10.991   3.556 -0.0151 -0.3572 -0.0379
30983W        W44397  13.589  14.211  13.091  0.0694  0.1284 -0.1849
30984W        W44398   9.054  14.413  16.421 -0.2345  0.1237  0.1738
30985W        W44399   1.215  16.877  15.485 -0.2132 -0.1328  0.0215
30986W        W44400  13.601  11.163  10.956  0.4924 -0.2744  0.0817
30987W        W44401  15.774  15.881  12.414  0.1708 -0.1031  0.1047
30988W        W44402  13.839   9.470  11.220 -0.1178  0.0976 -0.0514
30989W        W44403  11.027  12.763   1.874 -0.1496 -0.4107  0.0233
30990W        W44404  15.016  13.436   6.325  0.3284  0.1836  0.0710
30991W        W44405   3.217   7.333   4.034  0.0550  0.3035 -0.1759
30992W        W44406   4.661   9.074  13.309 -0.1030  0.5441  0.0446
30993W        W44407  10.667   8.838  13.726 -0.0276 -0.1040 -0.1972
30994W        W44408  17.383   7.774   4.800 -0.1231  0.0687  0.2101
30995W        W44409   6.937   7.295  11.224  0.0044  0.0219 -0.2290
30996W        W44410   0.716  15.218   0.638 -0.0538 -0.0239  0.2752
30997W        W44411  14.752   4.690  15.459  0.0699 -0.0610 -0.0959
30998W        W44412   1.940   1.634  14.948 -0.0228  0.1510  0.0846
30999W        W44413   0.947   2.447  14.863  0.1605  0.0907  0.1065
31000W        W44414   8.705   5.005   1.159 -0.0447  0.2574  0.4203
31001W        W44415  18.241  13.665  11.315  0.0467 -0.0911  0.1355
31002W        W44416   4.247   4.114   2.262  0.0652 -0.0179  0.2098
31003W        W44417   0.956   3.215   5.071  0.0364 -0.1367  0.0461
31004W        W44418  13.672  15.711   2.879  0.1712 -0.0958  0.2070
31005W        W44419  14.940  13.738   1.119 -0.0593  0.2815 -0.1145
31006W        W44420   3.194   5.454   2.387  0.0990  0.1031  0.0254
31007W        W44421  16.003  18.005  13.871 -0.2535 -0.1005  0.0770
31008W        W44422   9.690  11.227   4.803  0.0101  0.2692  0.2971
31009W        W44423   5.881   1.374  15.357 -0.1388 -0.3623 -0.1369
31010W        W44424   4.371   3.155  14.788  0.1536 -0.2421  0.2259
31011W        W44425   0.532  10.528  13.341 -0.1441  0.3209 -0.2708
31012W        W44426   3.663   9.048   5.042  0.0508 -0.0399  0.1561
31013W        W44427   1.511   3.023  11.577 -0.2834 -0.0642 -0.0149
31014W        W44428  11.387   0.092  16.472 -0.0607  0.1008  0.1353
31015W        W44429  18.182   7.973  15.087 -0.0520  0.2338 -0.1723
31016W        W44430  15.571  12.815   0.563  0.0479 -0.0188 -0.3162
31017W        W44431  13.342  12.080  10.944  0.1092 -0.0045  0.0731
31018W        W44432  18.034   0.969  15.856  0.0324 -0.3266  0.0768
31019W        W44433   3.721   0.870   5.713 -0.0447 -0.2482 -0.1082
31020W        W44434  10.557   3.287  16.340 -0.3459 -0.1576 -0.0510
31021W        W44435   2.737   1.244  11.308 -0.1300 -0.0634  0.0849
31022W        W44436   0.986   0.527  13.397 -0.0656 -0.3414 -0.0129
31023W        W44437   7.699   4.701   3.071 -0.0061  0.1855  0.0267
31024W        W44438  15.989   8.353  11.425  0.0204 -0.1022  0.1307
31025W        W44439  11.362   7.344   5.193  0.0300  0.1408  0.0589
31026W        W44440   8.323   7.268   2.775 -0.3545  0.0953  0.2314
31027W        W44441   8.182   9.680   1.905  0.1656  0.2295 -0.0318
31028W        W44442   1.742   7.474  14.028  0.1069 -0.0301 -0.0317
31029W        W44443  10.404  13.734   0.764  0.1670  0.1639  0.2097
31030W        W44444   3.955   3.125  16.008 -0.4279 -0.3331  0.0141
31031W        W44445   7.085  18.197  14.660  0.0713 -0.1014  0.0819
31032W        W44446   6.198   4.785   1.193  0.0093  0.0181  0.1729
31033W        W44447   8.299  16.291  10.488  0.2395  0.1584 -0.3984
31034W        W44448   9.326  10.603  12.087  0.1004 -0.1190  0.0242
31035W        W44449  16.333  15.447   1.820 -0.4940  0.1284 -0.1692
31036W        W44450   1.875  14.717   5.723 -0.3075 -0.0160  0.1085
31037W        W44451  10.319  11.689  13.732 -0.0164 -0.0903  0.0132
31038W        W44452   4.690   3.512   0.545 -0.1238 -0.1128 -0.0063
31039W        W44453   0.487  11.355   3.922  0.1034 -0.2816  0.0899
31040W        W44454   4.633  12.269   3.861 -0.0986 -0.0091  0.0074
31041W        W44455  16.666   7.150   0.636 -0.2018  0.3241 -0.1647
31042W        W44456   8.187   6.707   0.894  0.2817  0.0916  0.0064
31043W        W44457  18.333   8.415   3.380  0.0395  0.1302  0.2928
31044W        W44458  11.330   5.243   3.058 -0.2607  0.1367 -0.1734
31045W        W44459   5.277  13.367   3.377 -0.1835 -0.0232 -0.4692
31046W        W44460   5.958   2.434  15.837 -0.0209  0.0215  0.1389
31047W        W44461  14.524   7.110   2.167  0.3032  0.2883  0.2428
31048W        W44462   9.671  12.464  11.662 -0.1310  0.0743  0.0312
31049W        W44463   7.829   7.086   5.074 -0.1165 -0.2128 -0.2503
31050W        W44464  18.164   5.494   5.491  0.0318  0.0447 -0.0462
31051W        W44465   0.764  10.928  11.060  0.1007  0.5907  0.0196
31052W        W44466   1.719   6.578  11.732 -0.1536  0.3147 -0.0988
31053W        W44467  10.466   9.212  16.128 -0.0087  0.4020  0.0347
31054W        W44468   6.314   9.004  13.820 -0.2404 -0.0263 -0.2194
31055W        W44469   1.927  10.011   5.261  0.1528  0.1236 -0.2228
31056W        W44470   6.819  12.439  14.107  0.0358  0.3758 -0.0159
31057W        W44471   1.176  18.298  15.192 -0.1127 -0.1877  0.2467
31058W        W44472  11.935   8.863  12.054 -0.0579 -0.0931 -0.0054
31059W        W44473  12.643  11.811  14.457 -0.0142  0.0756 -0.3916
31060W        W44474  11.159  11.054   3.941 -0.0026  0.0976  0.0392
31061W        W44475  16.090  10.625   0.973  0.1153 -0.2489  0.1884
31062W        W44476  12.930  10.145  15.188 -0.2022 -0.0570 -0.0171
31063W        W44477   8.038   6.827  11.790  0.0007  0.1068 -0.0667
31064W        W44478   0.033  14.561  11.668 -0.2019 -0.2090 -0.2572
31065W        W44479   1.093  13.118  16.114 -0.2263  0.1610 -0.1603
31066W        W44480  10.865   6.525  10.737  0.1481 -0.3285 -0.2567
31067W        W44481  10.956  10.823  13.105  0.1041  0.4108  0.1141
31068W        W44482   0.065  15.086  14.008  0.0233  0.1842  0.1602
31069W        W44483   9.055  16.048   5.216  0.0224 -0.2041  0.0538
31070W        W44484  18.071   3.930  13.389  0.0993  0.3760  0.3596
31071W        W44485   2.024  13.210   1.506  0.0167 -0.0979 -0.2001
31072W        W44486  16.383   1.643  13.129  0.0418 -0.1678 -0.0861
31073W        W44487   2.716   6.876  10.398  0.2699 -0.3132  0.0125
31074W        W44488   8.486  17.510   5.419 -0.0197 -0.2498 -0.1375
31075W        W44489  11.972   3.777  14.602  0.1472 -0.2551  0.0042
31076W        W44490   6.210  14.782  15.085 -0.2038 -0.2113 -0.0520
31077W        W44491  15.689   9.242   5.255  0.1577 -0.2209  0.0522
31078W        W44492  11.622   1.784  13.040  0.0167 -0.1208 -0.2702
31079W        W44493  11.886   6.840   5.113  0.0789 -0.4110  0.1433
31080W        W44494  13.147  11.962  14.990  0.2950 -0.0865  0.0906
31081W        W44495  17.688  15.683  11.286 -0.0376 -0.2296 -0.1373
31082W        W44496   7.122   3.203  12.094 -0.2806  0.0770  0.0274
31083W        W44497  17.558  17.194  16.188 -0.1169 -0.2147  0.0571
31084W        W44498  10.997  15.399  13.602 -0.1852  0.1211  0.3380
31085W        W44499   2.132   9.475   0.018 -0.2783 -0.0594  0.0224
31086W        W44500   6.525   9.519  11.643 -0.1812 -0.0629  0.1033
31087W        W44501   9.058  16.619  11.763  0.0408  0.0376 -0.2630
31088W        W44502   9.776   6.403   1.474 -0.3796  0.0159 -0.1202
31089W        W44503  17.767  15.239   0.293 -0.0084  0.0609 -0.1039
31090W        W44504  13.998  18.097   0.680  0.1071 -0.3014 -0.1195
31091W        W44505  11.172  11.614  13.650 -0.1428  0.0046  0.1545
31092W        W44506  13.799  14.607   1.370  0.0965  0.1864  0.0117
31093W        W44507  14.725  12.279  12.355 -0.1385  0.0960  0.0894
31094W        W44508  15.205  15.695   1.069 -0.0284 -0.0573  0.2134
31095W        W44509   1.533   4.923   5.257  0.1033 -0.1277  0.0974
31096W        W44510   0.912   3.989  12.352  0.0932  0.3107  0.0524
31097W        W44511   5.365  18.225   3.319 -0.1520  0.2629 -0.1404
31098W        W44512  13.397  18.278   1.334  0.2487 -0.1074 -0.0941
31099W        W44513   8.707   2.953   3.858  0.0394  0.1383  0.0932
31100W        W44514   2.925   2.387   6.051 -0.0299 -0.2250 -0.4208
31101W        W44515   6.383  15.411  11.815  0.1747 -0.0975  0.0001
31102W        W44516  11.329   6.928  15.140 -0.1546 -0.0942  0.3737
31103W        W44517   8.896   2.226  11.934  0.1302 -0.0339  0.2065
31104W        W44518   0.490  14.727  12.494  0.1115  0.0143  0.3898
31105W        W44519   7.622  11.887   5.369  0.2478  0.0323  0.1398
31106W        W44520  11.340  17.643   5.023  0.1013 -0.2760  0.3942
31107W        W44521  10.455  14.208  14.107  0.0734  0.0190 -0.2824
31108W        W44522   2.461  17.325  13.793  0.0418 -0.0997  0.2593
31109W        W44523   4.630   0.297  16.477  0.0819  0.0349 -0.4325
31110W        W44524   8.668  11.398   4.512  0.0839  0.0069 -0.0664
31111W        W44525   0.699  11.807   4.626  0.1142  0.2634 -0.1230
31112W        W44526   2.184   4.450   6.413  0.0334 -0.0891 -0.2408
31113W        W44527   9.936   3.191   0.743  0.1561 -0.0829 -0.1990
31114W        W44528   9.057   3.615   1.164 -0.3750  0.1005 -0.0523
31115W        W44529  10.079  16.810   4.104  0.0359 -0.2026  0.1789
31116W        W44530  11.425  10.915  13.702  0.2640  0.3275  0.1099
31117W        W44531  16.580   8.597  10.435 -0.1459  0.0136 -0.0331
31118W        W44532  11.924   7.156  11.430 -0.0907  0.2663  0.3270
31119W        W44533   0.025   8.429  10.840 -0.1865  0.2150 -0.0822
31120W        W44534   9.148   6.558   1.922 -0.0755  0.0230 -0.1179
31121W        W44535   8.498  14.120  13.247 -0.0693  0.3441  0.3053
31122W        W44536  16.423  14.606   5.984 -0.0096 -0.3276  0.0888
31123W        W44537  12.865   2.374  13.245 -0.0599 -0.1454 -0.2144
31124W        W44538  14.646  10.990   1.011  0.0986  0.2107  0.1998
31125W        W44539   0.335  16.795   5.263  0.5588  0.1038 -0.0731
31126W        W44540   7.062   5.584  13.269  0.3835  0.5034  0.2015
31127W        W44541  16.783   4.514  13.064 -0.2468  0.1753  0.0848
31128W        W44542  14.021  15.289  12.499  0.1771 -0.0216 -0.1503
31129W        W44543  11.053   3.005  14.063 -0.0922  0.1257  0.1421
31130W        W44544  14.915  10.932  14.929  0.2558  0.2020  0.2287
31131W        W44545   3.833  15.796  15.320  0.0110 -0.3246 -0.0792
31132W        W44546  11.860   6.927  15.081 -0.2035 -0.1962 -0.0173
31133W        W44547   4.683  10.765  14.344 -0.1114  0.0374 -0.0194
31134W        W44548  12.901  16.775   5.744  0.2025  0.3693  0.0042
31135W        W44549   8.537   3.623   4.123 -0.3311 -0.0811 -0.0054
31136W        W44550   2.925  13.347   0.486  0.3994  0.1322  0.2730
31137W        W44551   3.732   0.766   3.936 -0.0712 -0.4071  0.2957
31138W        W44552  11.662  15.725   2.927 -0.1780  0.0607 -0.2276
31139W        W44553  18.376  14.167   4.958 -0.1078  0.0939  0.0118
31140W        W44554  17.259   0.225   0.634 -0.2248  0.1845  0.3548
31141W        W44555   6.708   1.152  14.090 -0.0045 -0.2297 -0.2569
31142W        W44556  13.625  17.813   2.344 -0.2113 -0.1651  0.1042
31143W        W44557   5.885  10.581  12.035 -0.3131  0.2261 -0.0262
31144W        W44558   3.232  16.127   0.732  0.0240  0.4352  0.0529
31145W        W44559   5.538   8.964   2.506  0.0332  0.0877  0.4174
31146W        W44560  10.614  13.671   4.668  0.3752 -0.0669 -0.0999
31147W        W44561   2.061   0.495  12.144 -0.0965 -0.1358  0.0423
31148W        W44562   2.902   9.005  10.025  0.0706 -0.3129 -0.0506
31149W        W44563   4.272  17.746  13.471 -0.1233 -0.3654 -0.0303
31150W        W44564   7.175   2.066   4.794 -0.0885  0.2646  0.2182
31151W        W44565   4.583  11.106   0.332  0.1624  0.0057 -0.0541
31152W        W44566  12.871  17.412   3.636  0.4546  0.1484  0.3428
31153W        W44567  13.536  15.842  14.568  0.0298 -0.1622  0.1127
31154W        W44568   6.349  13.827   2.686 -0.1035 -0.0169  0.1595
31155W        W44569   4.543  12.415  13.631 -0.0578  0.2159 -0.0341
31156W        W44570   0.132   3.751  14.125  0.0890  0.0525 -0.0224
31157W        W44571   6.403   8.485   1.456  0.0059  0.1177 -0.0898
31158W        W44572   5.519   3.069   5.966 -0.1615  0.1524  0.1413
31159W        W44573  12.588   4.226   4.462 -0.2303  0.1114 -0.1044
31160W        W44574  13.412  17.780   1.480 -0.1644 -0.0472 -0.0318
31161W        W44575  11.862   7.983  12.669 -0.0630 -0.0241 -0.1817
31162W        W44576  16.473  16.436  12.358 -0.1646  0.0337  0.0746
31163W        W44577   2.704   4.374   3.253  0.1893 -0.2516  0.0905
31164W        W44578  16.306  15.121  15.973 -0.4278 -0.2002 -0.2380
31165W        W44579   1.661   3.739   2.896  0.0127  0.0160 -0.2480
31166W        W44580   7.345  11.289  14.490  0.0459  0.0957 -0.0730
31167W        W44581   0.175  14.799   6.285  0.1047 -0.4171 -0.2490
31168W        W44582   8.238  13.996   0.516 -0.1053 -0.0285 -0.3138
31169W        W44583   5.360  13.989  12.357  0.1759 -0.4435  0.1809
31170W        W44584   2.189   7.910   5.508  0.0584  0.0761  0.0835
31171W        W44585  18.015  12.531  15.515  0.4348  0.2544 -0.1044
31172W        W44586   9.987  18.092   3.114 -0.2350 -0.0096 -0.1189
31173W        W44587   2.935  14.934   5.686  0.2710  0.1530  0.1791
31174W        W44588  11.967  15.893   5.635 -0.0985  0.1006 -0.1377
31175W        W44589  16.223  18.067   2.810  0.1796 -0.3281 -0.0551
31176W        W44590   2.935   2.780  10.658 -0.1658 -0.1274 -0.0686
31177W        W44591   4.779  12.583  11.902  0.3385 -0.0406  0.2043
31178W        W44592   3.786   5.614   1.712 -0.1434 -0.0527  0.1118
31179W        W44593  10.098   5.573  10.310 -0.0966  0.1155 -0.1090
31180W        W44594  10.234  14.658  11.985 -0.2491 -0.1351 -0.1719
31181W        W44595  16.450   4.053  15.360  0.1742  0.5322  0.0467
31182W        W44596  14.465   5.466   0.040  0.0146  0.2489 -0.0795
31183W        W44597   4.083  14.259  12.751 -0.0645  0.0794  0.1567
31184W        W44598   4.551   8.443  15.943  0.0432  0.1451 -0.1371
31185W        W44599   9.400  12.062   2.409  0.1728  0.2144  0.3195
31186W        W44600   8.406   9.099  12.341  0.1109 -0.2373 -0.3009
31187W        W44601  18.342   6.614   0.185  0.1979 -0.4989  0.0612
31188W        W44602   0.242   7.837  12.905  0.0224 -0.1778  0.0793
31189W        W44603   7.457  14.561   2.147  0.3379 -0.0922 -0.1983
31190W        W44604  10.195  11.081  15.203  0.1426  0.3267  0.1760
31191W        W44605   5.278   6.101   3.679  0.0023  0.0097  0.1030
31192W        W44606   3.995   7.311  10.736  0.0013  0.2192 -0.2333
31193W        W44607   8.001   2.509  13.573 -0.3616 -0.1000 -0.3167
31194W        W44608   6.297   2.412   0.165  0.1090 -0.1354 -0.0320
31195W        W44609   3.506  13.168  14.392  0.0072 -0.3759 -0.0275
31196W        W44610  10.269  14.223  12.989  0.1223 -0.4365  0.0891
31197W        W44611  13.944  10.378  16.324  0.1295  0.2221  0.1620
31198W        W44612  15.384   0.730   3.602 -0.1671 -0.1373 -0.1549
31199W        W44613  16.024  11.411  15.347 -0.3775  0.0245 -0.1235
31200W        W44614   4.347  14.589   2.322  0.0034 -0.4724  0.4323
31201W        W44615   8.562  16.232   1.875  0.0957  0.0981  0.1588
31202W        W44616   6.655   0.002  14.644 -0.1225 -0.2303 -0.2816
31203W        W44617  12.009  15.697  10.992  0.2834  0.1215  0.1055
31204W        W44618  16.305  10.207   1.129 -0.3643 -0.1093  0.3036
31205W        W44619  15.992  13.392   1.897 -0.3510 -0.1819 -0.1982
31206W        W44620   5.657   3.444  11.339 -0.2095  0.0166  0.1089
31207W        W44621  13.438   9.782   5.952 -0.1865  0.2242 -0.0745
31208W        W44622   0.103   9.956   0.552  0.0220 -0.1064  0.0447
31209W        W44623  11.418   8.829  15.839 -0.0983  0.1206  0.2633
31210W        W44624  11.941   3.353  14.200 -0.3089  0.2115  0.2606
31211W        W44625   7.362  12.805   4.445 -0.1269 -0.0280  0.1445
31212W        W44626   7.370  13.156  13.741  0.1895  0.2789  0.0988
31213W        W44627  14.592  17.616   5.965  0.1078  0.0144  0.1331
31214W        W44628  11.400   1.224  15.152  0.0777 -0.0211  0.1480
31215W        W44629  14.283  16.239   2.763 -0.2150 -0.0031  0.0023
31216W        W44630  18.059   3.161   3.972 -0.2322 -0.0092 -0.2674
31217W        W44631   6.967  15.441   1.436 -0.4824 -0.1523 -0.2380
31218W        W44632   0.518   8.069   4.665  0.1248 -0.2117  0.0711
31219W        W44633   8.696   6.878   2.870 -0.2786 -0.2069  0.2532
31220W        W44634  16.904   9.474   3.652 -0.1543 -0.1385  0.1565
31221W        W44635   2.459   5.272  11.930 -0.1502  0.1784  0.0113
31222W        W44636   3.455   9.462  13.217 -0.0310  0.0375 -0.4276
31223W        W44637   3.900   2.775   3.476 -0.0250  0.4285  0.0397
31224W        W44638   4.373   3.613   2.410 -0.0289  0.0005  0.0376
31225W        W44639   2.185   9.139   1.365 -0.2581 -0.4832 -0.1602
31226W        W44640   3.212  15.513   2.929 -0.0245 -0.0727 -0.2073
31227W        W44641   0.899   5.568  10.713 -0.0489  0.0956 -0.3592
31228W        W44642   1.785  16.961  12.997 -0.0437 -0.1706  0.1094
31229W        W44643   2.875  12.357  10.177 -0.1667  0.3423 -0.1352
31230W        W44644   1.071  17.097  14.543  0.1585  0.0091 -0.0871
31231W        W44645   7.989  10.447   1.386 -0.0967  0.1009  0.0421
31232W        W44646   7.144   5.688   0.618 -0.3599 -0.1206  0.2487
31233W        W44647  17.937  16.314   3.131  0.0720  0.0652 -0.2217
31234W        W44648  14.052  18.348   2.456 -0.1652  0.4038 -0.2426
31235W        W44649   8.106   5.465  11.458 -0.0386  0.1244 -0.2991
31236W        W44650  16.021   5.739  12.424 -0.1127  0.4141  0.1513
31237W        W44651   6.644  13.580  11.316  0.0590  0.0125 -0.0062
31238W        W44652  12.504   5.499   2.604 -0.0618  0.2153 -0.2255
31239W        W44653   7.465   8.959  11.631 -0.2519 -0.0108  0.2587
31240W        W44654   2.224   8.652  12.840 -0.1620  0.1627  0.0235
31241W        W44655  14.541   7.734  13.638  0.2878 -0.1912  0.0230
31242W        W44656   1.873  14.865  11.688 -0.3500  0.1523 -0.1209
31243W        W44657   0.466  14.818  11.965 -0.0583 -0.1453  0.0267
31244W        W44658   7.933  10.055   2.193  0.1260  0.0672  0.0728
31245W        W44659  16.372   6.784  13.947 -0.0310  0.0661  0.4155
31246W        W44660   1.310   1.515  12.612  0.1511 -0.2028  0.1764
31247W        W44661   6.300  13.088  13.766  0.2208 -0.1951  0.0055
31248W        W44662   1.512   0.233   5.240  0.1020 -0.0046  0.2316
31249W        W44663   8.416   6.402   0.352  0.3474 -0.0598  0.1057
31250W        W44664   4.052   8.419   2.053  0.2850  0.2099 -0.1154
31251W        W44665   1.047  14.511   1.574 -0.1328  0.2166 -0.2420
31252W        W44666   6.304   8.176  13.099 -0.1615 -0.0655  0.4181
31253W        W44667   0.289   4.831  16.038 -0.1303 -0.0762 -0.1049
31254W        W44668  14.932   9.574   9.709 -0.0220 -0.0755  0.2610
31255W        W44669   3.502  16.146  14.199  0.1565  0.1372  0.0562
31256W        W44670  16.923  11.553  15.614 -0.2247 -0.0958 -0.0393
31257W        W44671   0.675   3.579   0.290  0.1272 -0.1318 -0.1082
31258W        W44672   8.630   0.135   0.477  0.2809 -0.0189  0.2482
31259W        W44673   0.950   6.006   4.440  0.0291 -0.2481 -0.1426
31260W        W44674  12.462   9.170  14.712  0.1822  0.0765 -0.2540
31261W        W44675  12.851   7.356  13.575 -0.1450  0.1774 -0.1771
31262W        W44676   0.201   0.353  14.056  0.2439  0.1170 -0.0587
31263W        W44677  11.380  18.003   1.508  0.0407 -0.1505  0.2503
31264W        W44678  13.668   4.712   2.165 -0.1959  0.1085  0.0036
31265W        W44679   6.042   0.663  12.843 -0.0338  0.3916  0.1413
31266W        W44680   9.681  12.462   4.625 -0.0174  0.1167  0.0574
31267W        W44681   3.376  14.751  15.378  0.2274 -0.0234 -0.0045
31268W        W44682  13.263   7.846   3.674 -0.1078  0.0478 -0.1447
31269W        W44683   4.868  16.579   6.174 -0.3641  0.0769 -0.1776
31270W        W44684  10.493   1.182   6.162 -0.1648  0.3169  0.0327
31271W        W44685  17.714   2.848   4.205  0.4584 -0.2286 -0.0775
31272W        W44686   3.685   0.136   5.102 -0.2436  0.2778 -0.0389
31273W        W44687   2.061   7.680   9.649 -0.0286  0.0324  0.0817
31274W        W44688  14.033   2.390  11.914  0.1251 -0.1119 -0.0827
31275W        W44689   1.620   7.477   1.046 -0.0462  0.2162 -0.2543
31276W        W44690   2.919   9.216  14.938  0.0947  0.1160 -0.3391
31277W        W44691  10.193   7.757  14.034  0.2350  0.1984 -0.1258
31278W        W44692  15.347  16.315  13.243  0.1119  0.2269  0.3021
31279W        W44693   0.365   5.621  15.584 -0.2709 -0.2983  0.0306
31280W        W44694  15.162   9.465   2.163  0.0038 -0.2125  0.0030
31281W        W44695  14.710  15.539  13.542  0.1185  0.1071 -0.1984
31282W        W44696  10.995   5.289  15.912 -0.0386 -0.0373 -0.0122
31283W        W44697  17.818   7.376   1.778  0.1957  0.1396  0.1132
31284W        W44698   0.926  13.904  15.294  0.2648 -0.1260 -0.1759
31285W        W44699   6.777   2.928   5.096 -0.0660  0.1596  0.2814
31286W        W44700  10.369   8.058   2.179 -0.1357  0.2557 -0.1448
31287W        W44701  10.901   4.946  14.424  0.2369 -0.0669 -0.1302
31288W        W44702   2.342   9.605  12.390 -0.1076 -0.1996  0.0016
31289W        W44703   3.176  11.360  11.461 -0.1206 -0.0428  0.2033
31290W        W44704   1.747   4.038  13.070  0.0311 -0.4784 -0.1820
31291W        W44705   7.119   9.634  12.075 -0.1182 -0.1515  0.1163
31292W        W44706  10.410   5.121   0.849 -0.0609 -0.0097 -0.2050
31293W        W44707   3.972  15.501  12.197 -0.0524  0.2815  0.1341
31294W        W44708  11.119   3.271   3.082 -0.1109  0.0377  0.2765
31295W        W44709  15.425   3.484  13.196  0.1023  0.1285 -0.3900
31296W        W44710   7.106   5.042  14.575  0.2433 -0.0310  0.1363
31297W        W44711  10.797   7.786  10.901  0.1230 -0.3133  0.0983
31298W        W44712   7.987   7.879   4.554 -0.0880  0.0270 -0.2433
31299W        W44713  16.771   5.997  12.524 -0.3639  0.1631  0.0577
31300W        W44714  10.625  10.818  15.404 -0.2210  0.0524 -0.1066
31301W        W44715  15.359  18.159   5.824 -0.2305 -0.2335 -0.0194
31302W        W44716  13.316   7.750   2.854 -0.2346 -0.2294  0.5575
31303W        W44717   5.300   7.449  15.017 -0.1343 -0.0774  0.1605
31304W        W44718  17.445  12.207   0.175 -0.0251  0.0936  0.0341
31305W        W44719   4.581  14.921   5.921  0.4294 -0.2837  0.1073
31306W        W44720  11.970  15.061  15.976 -0.0790  0.1412  0.1066
31307W        W44721   6.127  14.307  12.395  0.0914 -0.1160  0.3135
31308W        W44722   4.969   4.498  15.360  0.4656 -0.0031 -0.0147
31309W        W44723   2.195  13.011  16.044  0.2972 -0.1958  0.3726
31310W        W44724   5.460   1.004  16.107 -0.0688 -0.0277  0.2501
31311W        W44725   7.854   1.204  14.512  0.0419 -0.0295 -0.0565
31312W        W44726  18.179  12.910  12.998  0.1740  0.0025 -0.1694
31313W        W44727  15.766  12.849   0.054  0.0384  0.3047  0.0988
31314W        W44728   2.236  11.896  10.719 -0.0318  0.0529  0.2002
31315W        W44729  10.967   6.333  16.495  0.0560 -0.1357  0.1176
31316W        W44730   5.277  12.802   0.585 -0.2319 -0.2301  0.0240
31317W        W44731   8.984   6.445  12.618 -0.2261  0.0950  0.0314
31318W        W44732  10.878   6.533   5.050 -0.0297  0.0645 -0.0870
31319W        W44733   6.593   0.100   5.845 -0.2406  0.0838 -0.1391
31320W        W44734   6.368  10.441   1.521  0.3119  0.2578 -0.2089
31321W        W44735  13.563  11.641  15.951  0.0737  0.0388  0.2711
31322W        W44736  14.689  13.748  13.565 -0.3736  0.1921  0.0574
31323W        W44737   0.356  17.714  12.207  0.0547 -0.0722 -0.1801
31324W        W44738  16.529  17.598   0.524  0.0618 -0.0757  0.2583
31325W        W44739   1.763   9.045  13.670 -0.0615  0.2639 -0.3843
31326W        W44740   9.128  16.286  12.190  0.0963  0.1122 -0.1124
31327W        W44741  18.014   6.245   4.220 -0.0495  0.1747 -0.1641
31328W        W44742   2.118   1.988   5.689  0.0051 -0.3745  0.0997
31329W        W44743  14.029   9.098   9.613  0.0469  0.1971  0.2080
31330W        W44744   0.613  10.365  16.341  0.0593  0.2027  0.0064
31331W        W44745   2.346  13.512  15.903  0.0873  0.1035 -0.2594
31332W        W44746  15.615   6.493  12.546  0.0963 -0.4063 -0.0731
31333W        W44747   1.044  13.765   5.898  0.0988 -0.2789  0.2041
31334W        W44748  17.911  12.159   4.983 -0.0713 -0.1844  0.0180
31335W        W44749  11.860  12.013   0.851 -0.0448 -0.0168 -0.0408
31336W        W44750   6.125   0.509  16.467 -0.1704 -0.2033 -0.2349
31337W        W44751  10.668  15.282   4.061  0.0806 -0.2243  0.0897
31338W        W44752  14.713   4.112   1.329  0.3345 -0.0088  0.1469
31339W        W44753   5.335  16.190   1.346  0.1231 -0.1870  0.0146
31340W        W44754   9.799   8.813  15.059  0.1083 -0.1793  0.2048
31341W        W44755   0.459  13.684   1.387  0.0801 -0.1165  0.0272
31342W        W44756   0.555  12.480  12.977  0.1013 -0.1462  0.2530
31343W        W44757   3.481  12.440   2.112 -0.0060  0.0752 -0.2574
31344W        W44758   0.968   3.952   1.086 -0.0837  0.1423  0.0138
31345W        W44759  12.187   4.181  11.732  0.2691  0.1468 -0.2637
31346W        W44760  11.475  15.458  15.681 -0.2155  0.1691  0.2033
31347W        W44761   5.856   1.386   1.109 -0.1915  0.0530  0.2344
31348W        W44762   3.360  14.838  12.589 -0.2195  0.0358  0.0673
31349W        W44763  13.446  13.647   4.118 -0.2007 -0.3818  0.2014
31350W        W44764   9.315   2.610  10.156  0.0051 -0.0117 -0.0311
31351W        W44765   0.683   4.373  13.273  0.1890  0.0379 -0.2740
31352W        W44766  11.947   2.703  15.372  0.3653  0.3179 -0.1768
31353W        W44767  14.150   1.135  14.808 -0.2317  0.3576 -0.2459
31354W        W44768  15.138   3.065  11.510  0.5285  0.0348  0.0369
31355W        W44769   1.597   4.539   2.634  0.2903  0.1009  0.0551
31356W        W44770  15.739   1.845   0.951 -0.0856 -0.2596  0.0165
31357W        W44771   1.213  14.715  16.374 -0.3162  0.3397  0.0877
31358W        W44772   0.127   3.264  14.904 -0.3427 -0.0757 -0.1398
31359W        W44773  12.553  10.072  11.905  0.1944  0.0932 -0.0110
31360W        W44774  10.694  14.171  11.730  0.1182  0.2744  0.2957
31361W        W44775   3.554  18.120   2.458 -0.0516  0.1257  0.1071
31362W        W44776   1.622  16.801   1.212 -0.1702 -0.0041 -0.1367
31363W        W44777   3.805   3.781  12.278  0.4224  0.0364 -0.2534
31364W        W44778  14.995   6.816  13.734 -0.0196 -0.2182  0.2000
31365W        W44779   9.049   1.607  10.287 -0.0544  0.1066 -0.0857
31366W        W44780  11.335   0.598   2.363  0.0771 -0.2956  0.1893
31367W        W44781  11.838  11.379   5.046 -0.0843  0.1343  0.1481
31368W        W44782   7.330   8.513  13.094 -0.3506 -0.0529 -0.0447
31369W        W44783  11.379  17.615  14.403 -0.0095 -0.0392  0.1331
31370W        W44784   7.331  16.100   0.060 -0.1678  0.4352  0.0131
31371W        W44785   3.562   7.226  15.465  0.0795 -0.2476 -0.0353
31372W        W44786  10.974  10.446   5.442 -0.0212 -0.1440  0.1833
31373W        W44787   1.764   4.358   2.098  0.2227  0.1397  0.3251
31374W        W44788   0.778   8.713  14.098  0.2082 -0.0095  0.1331
31375W        W44789   3.903  12.238   3.390  0.2220  0.2898  0.2238
31376W        W44790  13.076   7.499   3.255 -0.0684  0.0836 -0.0412
31377W        W44791  10.522  12.427   0.566 -0.1358 -0.0938 -0.3469
31378W        W44792   7.661   2.783  12.800  0.2519 -0.1645 -0.2385
31379W        W44793   6.185   4.993   0.660  0.1967  0.1523 -0.3041
31380W        W44794   5.240   2.658  10.360  0.3394  0.0011  0.0315
31381W        W44795   6.617   4.107   2.891 -0.0311 -0.2426 -0.1032
31382W        W44796   9.303   9.817   1.011 -0.1388 -0.0452  0.0710
31383W        W44797  10.764  12.904   3.202 -0.4180  0.0794  0.5663
31384W        W44798   4.611  10.871  13.441 -0.0471 -0.1547  0.3897
31385W        W44799  15.836  14.097  14.591  0.0255  0.0395  0.1605
31386W        W44800   8.083   1.444  13.577 -0.0662 -0.2086  0.2308
31387W        W44801   6.770  13.003   2.222 -0.0289  0.1255 -0.0684
31388W        W44802   6.878  15.305  12.906  0.1415 -0.0791  0.1064
31389W        W44803   3.530   8.513   5.432 -0.1701 -0.1516 -0.0701
31390W        W44804  13.459   3.991   9.794 -0.2817  0.0488 -0.2493
31391W        W44805   5.124   9.041   0.117  0.2769  0.0844 -0.1564
31392W        W44806  11.613   0.948   1.558  0.0032  0.2147 -0.0814
31393W        W44807  10.099   4.210  13.682 -0.0971  0.3262 -0.2833
31394W        W44808   1.290   5.366   0.043 -0.2464  0.0658 -0.1757
31395W        W44809  10.346  15.866  11.876 -0.1357 -0.0811 -0.3181
31396W        W44810  14.249   5.764  10.503  0.0033 -0.2901  0.0358
31397W        W44811   6.799   5.092  14.130 -0.1377 -0.2626 -0.1330
31398W        W44812  11.254   2.161  14.334 -0.0103 -0.1985 -0.0584
31399W        W44813  11.566  16.834   1.242 -0.0513  0.1414 -0.0275
31400W        W44814   7.537  13.063   5.410  0.0020  0.1559 -0.1149
31401W        W44815   2.602   9.199  15.373 -0.0688  0.2135  0.2329
31402W        W44816  11.291  16.812  15.112  0.1386 -0.1748 -0.0573
31403W        W44817  12.831   9.260  12.962 -0.3100  0.1287 -0.0447
31404W        W44818  12.310  12.548  12.564 -0.0265 -0.1371  0.1158
31405W        W44819   3.018  10.295   0.452  0.0814 -0.2537 -0.1196
31406W        W44820   1.183  12.619   5.804  0.0285  0.0853  0.0365
31407W        W44821   3.293   8.240  13.558  0.1806 -0.0762 -0.0836
31408W        W44822  10.866  18.062  12.611  0.1898  0.2996  0.1216
31409W        W44823   4.402   2.926   4.168 -0.2478  0.0703 -0.0258
31410W        W44824   2.826   1.994   0.667  0.2944 -0.1127  0.2645
31411W        W44825  11.216  14.326  10.205  0.1273 -0.0399 -0.1012
31412W        W44826   2.091   3.912  10.435  0.0736  0.0245 -0.1768
31413W        W44827  15.429   1.682  14.909  0.1632 -0.3944 -0.0529
31414W        W44828   6.484  13.317  15.651  0.2588 -0.1459 -0.1406
31415W        W44829  17.731   6.956   2.099 -0.0192 -0.2049 -0.0883
31416W        W44830  15.265  17.508   6.474 -0.0030 -0.5751 -0.2403
31417W        W44831   5.758  10.924   0.173  0.0639 -0.0683  0.0642
31418W        W44832  14.714   6.795   2.603 -0.0227  0.0793 -0.0806
31419W        W44833  15.743   0.905   4.856  0.0640 -0.3136  0.0862
31420W        W44834  13.277  12.637   3.395 -0.0799  0.0455  0.0168
31421W        W44835   3.916   6.697   1.692 -0.0805  0.1127  0.3028
31422W        W44836   7.809   8.674  12.982  0.0509  0.0052 -0.0214
31423W        W44837  15.366  14.706   4.230  0.1922 -0.2360 -0.3500
31424W        W44838  15.738   9.524  13.509 -0.1997 -0.1489  0.0558
31425W        W44839   0.348  10.498  15.029  0.1515 -0.2122 -0.3050
31426W        W44840  15.957   0.785   2.733  0.4069  0.2719 -0.0953
31427W        W44841  17.887   6.185  14.435 -0.0541  0.0885  0.2045
31428W        W44842   6.798   3.557  16.205 -0.1736  0.0797 -0.3236
31429W        W44843  15.475  13.954  12.271  0.2400  0.1310  0.0274
31430W        W44844   2.191   7.829   1.576  0.0677  0.0841 -0.2330
31431W        W44845   9.560   4.865  12.041  0.0727  0.0351  0.1059
31432W        W44846  13.321   3.318  10.608 -0.2517 -0.0951 -0.1654
31433W        W44847   2.633  17.564  14.896  0.1080 -0.1086  0.2149
31434W        W44848   6.404   9.965   2.242  0.0092  0.1861 -0.2452
31435W        W44849  16.466   5.475  12.661  0.0997  0.1437 -0.2743
31436W        W44850   5.619   6.818  15.377  0.1212 -0.0320  0.1847
31437W        W44851   9.754  11.034   5.285  0.1333  0.1116  0.0302
31438W        W44852   6.577   9.992  12.973  0.0355  0.1483  0.2003
31439W        W44853   6.938   9.451   2.624  0.0452 -0.3894 -0.0922
31440W        W44854  11.054   1.364   4.994 -0.1849 -0.1907 -0.1150
31441W        W44855   1.567   8.194   4.840  0.1805  0.0399  0.0415
31442W        W44856  17.411   6.560   4.536 -0.3233 -0.1772  0.1212
31443W        W44857   7.106  12.884   3.076 -0.2176 -0.0424  0.1691
31444W        W44858  17.841   2.026   2.530 -0.0619 -0.1640  0.2061
31445W        W44859   7.437  13.223   0.901 -0.0180 -0.3416 -0.0528
31446W        W44860  11.272   9.190   4.692  0.2650 -0.1304 -0.2865
31447W        W44861  18.218   6.616  13.613  0.0967 -0.0023 -0.1891
31448W        W44862   5.483  13.393   1.586  0.0943  0.1163 -0.0798
31449W        W44863   1.342   3.624  13.442 -0.1277 -0.0752 -0.3410
31450W        W44864   4.968  15.211  15.625  0.1952 -0.0538 -0.0426
31451W        W44865   4.148  12.490  13.910 -0.1689  0.1060  0.0183
31452W        W44866   1.389  14.038   4.402 -0.1120 -0.2368  0.0698
31453W        W44867   3.778   6.948  12.915 -0.1644  0.0034 -0.3199
31454W        W44868  12.228  16.460  11.260 -0.2888 -0.1857  0.2210
31455W        W44869   2.305  14.708  12.987  0.0190 -0.0474  0.0568
31456W        W44870   1.264   2.705  10.954  0.0745 -0.4132 -0.1225
31457W        W44871   8.349  16.445  14.698 -0.0651  0.3171  0.0283
31458W        W44872  18.101   4.661   4.433 -0.0840 -0.2758  0.3490
31459W        W44873  10.876   4.597   4.141 -0.2992 -0.1585 -0.2252
31460W        W44874   9.385   9.678   3.279  0.2757  0.0026  0.0154
31461W        W44875  13.436  10.413  12.579 -0.2921  0.3343  0.0357
31462W        W44876   6.863  11.725   0.642  0.4079 -0.0791 -0.1036
31463W        W44877   0.918   3.446   2.240 -0.0410 -0.1120  0.1596
31464W        W44878  12.715   3.987   2.447 -0.0796 -0.0548 -0.0321
31465W        W44879  13.276  11.626   5.161 -0.2907 -0.0978 -0.3011
31466W        W44880  14.225  16.053   0.456 -0.0632  0.2833  0.0384
31467W        W44881  14.586   0.722   4.118 -0.0325  0.0256 -0.0411
31468W        W44882  13.034   2.296   4.014 -0.2037  0.2140  0.0287
31469W        W44883  15.576  13.095   5.132  0.0921 -0.2640 -0.0130
31470W        W44884   0.940  13.434   4.646  0.2778 -0.3250  0.1059
31471W        W44885   7.871  12.689   5.868  0.3429 -0.1761  0.0437
31472W        W44886  17.942  10.083   1.815 -0.1054 -0.1618 -0.1459
31473W        W44887   1.684  12.811  10.804 -0.0700 -0.2072 -0.2303
31474W        W44888  14.353  17.075  13.686 -0.2590  0.2140  0.0188
31475W        W44889   1.382  15.222  12.954  0.2421  0.3670  0.0199
31476W        W44890  12.805  11.548  14.831 -0.3002  0.2198 -0.2173
31477W        W44891  16.492  11.483  11.772 -0.0062 -0.0126  0.0134
31478W        W44892   9.938   8.213   5.758 -0.0576 -0.1198  0.0737
31479W        W44893  14.305   0.867  15.325  0.0372 -0.3831  0.1474
31480W        W44894  17.786   5.128   4.216  0.1064 -0.4592 -0.2189
31481W        W44895   6.866   7.276   2.281 -0.0509  0.1499 -0.1080
31482W        W44896   8.000  12.630   3.107  0.0781 -0.5240 -0.2669
31483W        W44897  15.408  17.226   0.615 -0.2057 -0.1131  0.0896
31484W        W44898   9.746   5.952   4.664 -0.1132  0.1411  0.3580
31485W        W44899  15.076   3.797   1.686 -0.4034  0.0218 -0.1724
31486W        W44900   5.508  13.983   6.112 -0.3537  0.0381 -0.0982
31487W        W44901  12.750   2.447   3.006 -0.0127  0.0553 -0.1518
31488W        W44902   8.987  15.609  10.655  0.0857  0.2145 -0.1354
31489W        W44903  15.068  14.466  14.449 -0.0640 -0.1208  0.0591
31490W        W44904   2.915  14.452  15.310 -0.1223 -0.1874  0.2457
31491W        W44905   0.490   4.745   2.046 -0.3145  0.0272  0.1087
31492W        W44906  11.793  13.480  13.115  0.1703 -0.3066  0.0360
31493W        W44907   9.483   0.956   4.385  0.0216 -0.2101  0.0026
31494W        W44908  11.855   5.952  11.282 -0.0569 -0.0928  0.0907
31495W        W44909  11.719  17.524   0.656  0.4574 -0.0853 -0.1433
31496W        W44910  17.037   4.298  12.356 -0.4394  0.3178 -0.1193
31497W        W44911  14.865  16.982  15.242 -0.1853  0.1617  0.1043
31498W        W44912  14.485   2.630  13.989 -0.1125 -0.0629  0.2804
31499W        W44913   1.239  17.104   0.742 -0.0435  0.0450 -0.1734
31500W        W44914   9.643  13.870  11.796  0.0464 -0.0069  0.3879
31501W        W44915  14.693   7.471   9.753  0.0876  0.0074  0.0555
31502W        W44916  10.789   7.373  15.661 -0.0275  0.3494  0.0776
31503W        W44917   8.813   6.923   3.857 -0.1036 -0.0990  0.0127
31504W        W44918  14.759  10.035  13.315  0.0527 -0.2036  0.4424
31505W        W44919   3.590  10.721  11.315 -0.2980 -0.2563 -0.0688
31506W        W44920   0.595   7.802   5.088  0.2964  0.1309 -0.1555
31507W        W44921  12.146   2.489  15.876  0.1022  0.1533 -0.0785
31508W        W44922   5.722   4.230   0.007 -0.2017  0.2275  0.2492
31509W        W44923   1.238   2.424   3.422  0.3853  0.0028  0.3174
31510W        W44924   0.681  15.796   3.204  0.1250  0.1245  0.0565
31511W        W44925   0.685  17.231   3.601 -0.0443 -0.2544 -0.0004
31512W        W44926  16.744   0.235   0.630 -0.1063  0.0891  0.2399
31513W        W44927   4.825  10.971  12.993 -0.0490  0.1533 -0.1925
31514W        W44928  16.784  18.048  15.660  0.1674  0.0318 -0.0446
31515W        W44929   0.824   6.444   1.998 -0.3703 -0.1630  0.0397
31516W        W44930  10.991   7.762   1.054  0.2000 -0.2143 -0.2560
31517W        W44931   9.902   1.992  11.053  0.1766 -0.1934 -0.0161
31518W        W44932   9.620   7.628   1.103  0.0600 -0.1724 -0.3701
31519W        W44933   6.457  12.616  12.563  0.0090 -0.1681 -0.0763
31520W        W44934  12.448   8.417  14.524 -0.1605  0.1468 -0.0608
31521W        W44935  13.194  12.847   6.214 -0.0902 -0.1168  0.2779
31522W        W44936   5.793   1.954  11.498  0.1084  0.1712  0.0390
31523W        W44937   4.223  12.354   0.457  0.1665 -0.0362  0.0321
31524W        W44938   8.924  15.341  12.245  0.2785  0.3174  0.0738
31525W        W44939   2.199   6.524  11.566 -0.0923 -0.0858  0.0022
31526W        W44940   3.453  16.645  14.340 -0.2300  0.1941  0.1821
31527W        W44941   2.784  15.012   0.392  0.1450  0.1255 -0.1096
31528W        W44942  15.194   8.992   4.476 -0.0607  0.1689 -0.0775
31529W        W44943   1.127  15.076  13.979  0.0623  0.1252 -0.1245
31530W        W44944   3.288  15.184  11.527  0.1724 -0.1007  0.0392
31531W        W44945   6.918  13.746   4.273 -0.0964 -0.3284 -0.2443
31532W        W44946  15.623  16.132  12.810  0.1198 -0.0147  0.3646
31533W        W44947   8.412  13.144  12.221 -0.2183  0.0561  0.1087
31534W        W44948   2.758  11.426   2.891 -0.2795  0.0850 -0.1335
31535W        W44949   0.653  12.639   3.622 -0.0697  0.1119 -0.1540
31536W        W44950  13.925   1.684  14.095  0.1124 -0.0209 -0.3415
31537W        W44951  15.100   2.861   0.457  0.0292 -0.0635  0.0955
31538W        W44952   5.058  10.415  11.133 -0.0469 -0.1386 -0.0060
31539W        W44953  16.105   8.508   5.373 -0.0092 -0.0187  0.2224
31540W        W44954   8.054   3.316   1.005  0.0376  0.1844 -0.2014
31541W        W44955  16.817  12.406  14.122 -0.0648  0.1277 -0.4780
31542W        W44956  12.986   4.687  10.504  0.0839  0.2160  0.1481
31543W        W44957   8.386   4.379  11.007 -0.1935  0.0187 -0.0542
31544W        W44958   4.673   0.220   1.622 -0.3130 -0.0237  0.0317
31545W        W44959   3.589   9.241   3.045  0.0064 -0.0753  0.1338
31546W        W44960   5.681  15.593  11.840  0.4550 -0.0218 -0.2195
31547W        W44961  16.539  14.651   0.686 -0.0508  0.1744  0.1913
31548W        W44962   9.938   4.008  13.286 -0.0969  0.0927 -0.2332
31549W        W44963  14.582   2.958  13.583 -0.1808 -0.3966 -0.2536
31550W        W44964   3.705  17.225   1.519  0.1444 -0.2855  0.0238
31551W        W44965  13.960   6.686  11.168 -0.0408 -0.3108  0.0112
31552W        W44966   5.834  14.920   0.084 -0.0638  0.0294 -0.1876
31553W        W44967   2.676   3.295   3.292 -0.1969  0.0125 -0.1455
31554W        W44968  15.364   0.312  13.806  0.0977 -0.2114 -0.0655
31555W        W44969   5.995  16.022  14.218 -0.0748  0.2344 -0.3073
31556W        W44970   2.382   4.509  14.636  0.3570 -0.1468  0.1910
31557W        W44971   8.895   7.533  12.612  0.0326 -0.0040  0.4128
31558W        W44972  12.233  10.762   3.847  0.2087 -0.0090  0.1087
31559W        W44973  13.944  13.068   0.845 -0.1093 -0.0500  0.1706
31560W        W44974  15.498  15.009  12.077  0.1969 -0.0886 -0.1145
31561W        W44975  16.380   2.180   6.726 -0.5271 -0.2107 -0.0478
31562W        W44976   7.470  16.113   1.507  0.2766  0.5034 -0.2489
31563W        W44977  12.966   8.218  11.356 -0.0662  0.1358  0.0058
31564W        W44978   4.639   9.237   4.957  0.0382 -0.4182  0.1839
31565W        W44979  16.838  11.594  14.559 -0.2953 -0.0127  0.2147
31566W        W44980  14.926   2.954  10.706 -0.0048 -0.3097 -0.0665
31567W        W44981   1.673   6.356  12.934  0.0645 -0.0311  0.0506
31568W        W44982   4.381  16.177   3.123  0.0318 -0.0833  0.1194
31569W        W44983  13.965   8.237  13.748  0.1944 -0.0406 -0.1359
31570W        W44984  13.226   1.221  12.383 -0.0950  0.0782 -0.2099
31571W        W44985  11.499  10.370  16.342  0.4573 -0.5526  0.0578
31572W        W44986  13.074  16.644  16.007 -0.2023  0.1570  0.0628
31573W        W44987  15.809  10.878  13.899  0.2052 -0.0148  0.0108
31574W        W44988   3.268   9.531   4.263 -0.1402  0.2514 -0.0414
31575W        W44989  16.342   3.961   2.904  0.1079 -0.2325 -0.0165
31576W        W44990   7.351  15.450  12.856 -0.4737  0.0023 -0.1915
31577W        W44991  12.694   7.401   5.572 -0.0821  0.2425 -0.3013
31578W        W44992  12.404   0.826  15.999 -0.1583  0.3182  0.2210
31579W        W44993  14.000   9.355  16.305  0.1365 -0.0141 -0.3451
31580W        W44994   2.891   2.260   3.580 -0.1382 -0.3087  0.0143
31581W        W44995   6.128  13.482   0.688  0.1216  0.2338 -0.2566
31582W        W44996   5.599  14.650  15.312 -0.2637 -0.1997 -0.0014
31583W        W44997   4.815  10.987   3.544 -0.2772  0.2170 -0.0828
31584W        W44998   2.588  17.177   0.209 -0.2587  0.0386  0.3222
31585W        W44999  14.917   6.629  11.691 -0.0336 -0.0777  0.2864
31586W        W45000   6.703   0.430   0.845 -0.0056  0.1043 -0.4157
31587W        W45001   9.007   2.245  15.029 -0.0559 -0.1126 -0.1621
31588W        W45002  14.240  16.014  11.962 -0.1702  0.3714  0.0458
31589W        W45003   8.536  16.111  13.354  0.1137  0.0955 -0.0023
31590W        W45004  13.279  15.214  15.752  0.0085  0.0674  0.2709
31591W        W45005  12.022   1.661   5.334 -0.3789 -0.2000  0.0996
31592W        W45006   9.133  13.004   5.359 -0.2093  0.1998 -0.0958
31593W        W45007  12.982  12.423  15.850 -0.1939  0.0436  0.1088
31594W        W45008  12.202   1.269  14.753  0.1769 -0.5529 -0.2656
31595W        W45009   3.726   7.148   1.723  0.0465 -0.0421 -0.3139
31596W        W45010  12.842  15.046  16.401 -0.0822  0.0624  0.0008
31597W        W45011  16.142  14.372  14.233 -0.0890  0.2945  0.0563
31598W        W45012   0.401  17.791   5.165 -0.0725 -0.0535  0.0687
31599W        W45013  12.275   0.357  16.021  0.2365  0.1041 -0.2538
31600W        W45014  15.609   7.300   5.668  0.1039 -0.1881 -0.0073
31601W        W45015   1.108   0.872  12.324 -0.1863 -0.0032 -0.5110
31602W        W45016   4.062  10.543  13.492  0.2204 -0.1706 -0.1931
31603W        W45017  17.844   4.509   3.998 -0.0980  0.1092 -0.1489
31604W        W45018  15.683  16.662  16.086  0.4338 -0.1848 -0.3785
31605W        W45019   6.298   3.982   4.241 -0.1325  0.2642 -0.0933
31606W        W45020   2.086  15.774  11.969 -0.0715 -0.1022 -0.2252
31607W        W45021  15.849   7.753   2.653 -0.1692  0.0524  0.0664
31608W        W45022  13.172   7.132  13.275 -0.1728  0.0306  0.1938
31609W        W45023   3.941   7.791   0.498 -0.0517 -0.2395  0.2465
31610W        W45024   6.865   8.311   3.290  0.0607 -0.1103 -0.0691
31611W        W45025   2.875   4.862   3.161 -0.0068 -0.1147  0.1224
31612W        W45026   4.675   8.622   5.962 -0.0598 -0.0404 -0.1717
31613W        W45027   1.898   0.162  12.513 -0.2464  0.2818  0.0092
31614W        W45028   3.934  15.970   4.698 -0.0774  0.4062  0.0915
31615W        W45029  11.729   7.563  11.605  0.0795 -0.0670 -0.1073
31616W        W45030  16.612  10.159   5.038 -0.0514 -0.0911  0.1644
31617W        W45031  13.422   1.607   0.627 -0.1231 -0.0509 -0.4097
31618W        W45032   6.365  11.710   2.721 -0.1265  0.1429  0.0798
31619W        W45033   9.490  15.996   1.170 -0.2011  0.1672 -0.0707
31620W        W45034   4.334  12.803  14.819 -0.4158 -0.0461  0.2983
31621W        W45035  17.777   7.761  13.365 -0.3810  0.2776 -0.0763
31622W        W45036   5.558   5.447  13.993  0.2107 -0.1573  0.1399
31623W        W45037   8.980  11.850   1.595 -0.0947 -0.1172  0.2527
31624W        W45038   5.077  13.790   0.415 -0.0976 -0.0969  0.0101
31625W        W45039  16.449  11.373  10.335 -0.0719  0.0518  0.1119
31626W        W45040   1.451  17.068   6.845 -0.1958 -0.1622 -0.0821
31627W        W45041   6.820   3.464   2.109 -0.0070  0.1930  0.0567
31628W        W45042  16.680   3.652  12.762  0.3193 -0.3474  0.1889
31629W        W45043  16.322   0.348   1.343 -0.1381 -0.1291  0.2853
31630W        W45044   3.655   5.265   2.511 -0.0150 -0.4385 -0.1040
31631W        W45045   0.276   0.297  11.984  0.0054 -0.0101  0.2313
31632W        W45046  11.155  10.641  15.398  0.2132  0.1351  0.1884
31633W        W45047   9.667   4.175  11.372  0.1000 -0.0553  0.2520
31634W        W45048  11.097   0.684   1.020 -0.0057  0.2433  0.0610
31635W        W45049   2.903  12.710   2.686 -0.0075  0.3861 -0.2830
31636W        W45050   4.354   2.739  12.445 -0.4702 -0.1954  0.2855
31637W        W45051   5.161   0.183  14.925 -0.1174  0.4774 -0.1891
31638W        W45052  13.298  12.723  13.773 -0.1921  0.2100  0.0236
31639W        W45053  11.685   6.432  11.245  0.1677  0.0828  0.1004
31640W        W45054  14.917  12.912  13.343 -0.1945 -0.1677  0.3384
31641W        W45055  16.864  17.623   4.375 -0.2066  0.0799  0.0390
31642W        W45056   3.084   5.892   4.039  0.1461  0.0881 -0.0172
31643W        W45057   5.914   6.772   2.191 -0.0700 -0.2478 -0.1371
31644W        W45058   3.269   0.456   4.872 -0.0598 -0.1627 -0.2973
31645W        W45059   8.553   6.568  12.940  0.0240 -0.0435  0.0523
31646W        W45060  16.823  15.475   5.622 -0.0224  0.2587 -0.0594
31647W        W45061   1.423  11.479   0.024 -0.2511 -0.3273  0.0923
31648W        W45062  16.477  13.892   4.678 -0.0001 -0.2150 -0.0921
31649W        W45063   9.494   9.074  14.269 -0.2131  0.0445 -0.0073
31650W        W45064   6.879   3.678  12.787  0.1439  0.0462  0.3062
31651W        W45065  13.563   0.131   3.778 -0.3328  0.0753  0.1719
31652W        W45066  10.235   9.704  16.326 -0.1219 -0.1074  0.2916
31653W        W45067  12.788  15.048   5.729  0.1171  0.1729 -0.0653
31654W        W45068   3.717  13.478   1.735 -0.2710  0.2495  0.0894
31655W        W45069  15.145  17.081   1.694  0.3316  0.1895  0.3277
31656W        W45070  11.401  14.951   5.127 -0.1008  0.5532 -0.1398
31657W        W45071  15.538   2.225  10.578 -0.0559  0.1867  0.0437
31658W        W45072   2.684   4.744  10.779 -0.2417 -0.0070  0.0869
31659W        W45073   7.209   8.947  15.769  0.0152 -0.1590  0.1232
31660W        W45074  16.772   4.222  15.708  0.0825  0.0176  0.2022
31661W        W45075  17.230  17.322  15.268 -0.0693  0.0466 -0.1217
31662W        W45076  10.701  14.781   3.939  0.2968  0.0195  0.0095
31663W        W45077   5.643  11.023  11.173 -0.5870  0.3019  0.1404
31664W        W45078  10.637  14.347   4.398  0.4563  0.2167 -0.1262
31665W        W45079  15.261   8.144  12.338 -0.0463 -0.1189  0.0622
31666W        W45080  15.601   6.200  13.200 -0.2789 -0.0066 -0.1997
31667W        W45081  14.870   7.848   1.406  0.1607 -0.0090  0.2504
31668W        W45082   5.784  10.005   5.030  0.0586  0.4251 -0.0046
31669W        W45083  12.912   5.796  13.297  0.1553 -0.1592  0.1087
31670W        W45084  16.073  12.438  16.240 -0.2452  0.1657  0.0145
31671W        W45085   3.751  10.018   5.722 -0.0235  0.1660 -0.0335
31672W        W45086   2.582  16.177   2.441 -0.1687  0.2441 -0.3332
31673W        W45087   2.704   6.071  16.251  0.1759 -0.2657  0.3917
31674W        W45088  15.128  17.171  16.239  0.0212  0.1317  0.2135
31675W        W45089  17.168   5.708  16.279  0.2202  0.2370 -0.1173
31676W        W45090   3.620  11.433   2.087 -0.0926  0.0358  0.1368
31677W        W45091   1.587   8.473  15.398  0.1906  0.4220  0.1025
31678W        W45092   2.707   1.337  14.331 -0.0634 -0.0491 -0.1739
31679W        W45093   5.589  13.735  13.694 -0.4251 -0.0850 -0.2723
31680W        W45094   3.831   9.374  13.659 -0.0630  0.2318  0.1205
31681W        W45095   3.588   6.392  10.402  0.0510  0.1517  0.0589
31682W        W45096  16.778   9.049   1.579  0.0314  0.2758 -0.3199
31683W        W45097   6.439   1.546  14.420  0.1547 -0.0715 -0.3853
31684W        W45098  17.876   9.716   1.408 -0.1097  0.2392 -0.1408
31685W        W45099  13.680   0.164   1.638 -0.3095 -0.0252 -0.1858
31686W        W45100  13.197   2.813  13.604  0.0555 -0.0581 -0.3714
31687W        W45101   4.763   8.414   1.907  0.0873 -0.1882  0.0719
31688W        W45102   4.044  16.701   1.552  0.0246 -0.1695  0.1098
31689W        W45103   1.250  11.537   0.690 -0.0296  0.2657 -0.3559
31690W        W45104   0.951  15.563   0.237  0.1020  0.1301 -0.0738
31691W        W45105  11.659   7.165  15.764  0.0423 -0.3510 -0.1039
31692W        W45106   1.904   4.116   4.891  0.0009 -0.1409 -0.3303
31693W        W45107  14.803  15.247   2.952  0.0643 -0.1328 -0.0640
31694W        W45108  10.752   3.670  14.058  0.0837  0.1948  0.0305
31695W        W45109   4.161   2.484   5.066  0.3107 -0.0188  0.0081
31696W        W45110   6.670  16.545  13.454  0.3173  0.1115 -0.1019
31697W        W45111   3.922  11.086   4.832  0.0152 -0.0405  0.0579
31698W        W45112  16.812   9.251  13.639 -0.1945  0.0854  0.2184
31699W        W45113   5.586  11.860   2.406  0.0937  0.0381 -0.1208
31700W        W45114  14.280   4.872   4.757 -0.1998  0.2388 -0.3083
31701W        W45115   6.081  12.928  16.495  0.0050 -0.0758  0.3854
31702W        W45116   9.010  18.013   3.391 -0.2027 -0.1171 -0.0956
31703W        W45117   4.854  14.652   0.792 -0.0058 -0.2527 -0.1865
31704W        W45118  13.566  16.574   3.646  0.1185 -0.0202  0.3996
31705W        W45119  11.175   7.830   2.440 -0.0682  0.2612 -0.0180
31706W        W45120   8.331   7.363  15.148  0.1467 -0.0364 -0.0945
31707W        W45121  17.347  11.019  16.333  0.1256 -0.2065 -0.0357
31708W        W45122  14.656  14.632  10.840  0.0313  0.0245 -0.0636
31709W        W45123  12.810  11.502   1.536  0.1339  0.1076 -0.0211
31710W        W45124  14.656  12.462  15.754 -0.2368  0.0242  0.1000
31711W        W45125   0.025  12.306   2.707  0.2151  0.2370 -0.1848
31712W        W45126  13.358  14.646   1.552  0.0206 -0.1063  0.0352
31713W        W45127   1.965   2.317   3.964 -0.1601 -0.0012  0.0522
31714W        W45128  12.275  10.464  11.222 -0.2066 -0.1781 -0.0934
31715W        W45129   6.024  17.359  11.438 -0.1600 -0.0177 -0.3063
31716W        W45130  11.759   1.699   5.804  0.0191 -0.1079 -0.0505
31717W        W45131   0.933  12.266   2.725 -0.0844  0.3322 -0.1765
31718W        W45132   5.338  13.793   5.683 -0.0018 -0.1195 -0.0967
31719W        W45133   7.251  15.482   2.308  0.1471 -0.4655  0.0042
31720W        W45134  16.427   6.934  11.651 -0.0056  0.1215  0.2265
31721W        W45135  13.749   4.915   0.035  0.0868  0.0542 -0.1733
31722W        W45136  14.313   5.709  12.911  0.0321  0.3944 -0.3623
31723W        W45137  15.156   6.159   5.433  0.2332  0.0445 -0.2092
31724W        W45138  16.492   1.505   1.655 -0.0076  0.1342  0.0567
31725W        W45139   8.662   8.465   1.462 -0.2521  0.1654  0.0154
31726W        W45140   9.830  16.651  13.767  0.0789 -0.3854 -0.0577
31727W        W45141   2.619  10.980  12.327  0.1195  0.2599  0.2349
31728W        W45142  10.477   4.470  15.723 -0.1712 -0.0259 -0.0700
31729W        W45143  15.467  13.992   1.179  0.0983  0.2284  0.1956
31730W        W45144  10.152   2.369   1.402  0.2017  0.2208 -0.1253
31731W        W45145   1.314  14.001   0.493  0.2554 -0.2013  0.1249
31732W        W45146  10.492   5.819   4.124  0.0519  0.0556  0.1305
31733W        W45147  17.872   1.828  10.460 -0.2184 -0.1023  0.0780
31734W        W45148  10.234  16.538  11.828  0.0776 -0.0599 -0.0128
31735W        W45149   0.329   8.004  13.405 -0.2033 -0.2249 -0.0831
31736W        W45150  16.159  16.651  13.818  0.2397 -0.0256  0.0024
31737W        W45151   4.917  11.777  12.844  0.1257  0.0053 -0.2946
31738W        W45152   1.633  14.019   3.375  0.0657  0.2224 -0.1777
31739W        W45153   7.743  15.685   5.574  0.2507  0.0827  0.0733
31740W        W45154  18.329   7.214   2.617 -0.1574  0.0370 -0.0289
31741W        W45155   9.415   6.596  15.203  0.2528 -0.2050 -0.1456
31742W        W45156  14.930   7.580   3.086 -0.1406  0.1295 -0.0847
31743W        W45157   3.217   0.978   0.890 -0.0191 -0.2206 -0.2907
31744W        W45158   4.894  14.555  16.407  0.0849 -0.3828  0.1832
31745W        W45159  16.511  16.364   5.768 -0.0516 -0.2071  0.0873
31746W        W45160  18.103  17.842   2.949  0.3635 -0.3154  0.0437
31747W        W45161   8.892  10.636  15.731  0.0895  0.0754  0.0784
31748W        W45162   6.944   5.924   4.517  0.4093 -0.3421  0.2141
31749W        W45163  13.600  10.403  13.957 -0.1059  0.0955  0.0832
31750W        W45164   6.037   2.309   6.072  0.0511  0.0678  0.0076
31751W        W45165   4.919  15.138  11.303 -0.0200 -0.0505  0.4936
31752W        W45166   1.926   5.311  15.847  0.2846  0.1773 -0.0798
31753W        W45167  13.008   0.654  11.154 -0.1416  0.0530  0.1609
31754W        W45168  10.690  17.594  13.287 -0.1079  0.0259 -0.1908
31755W        W45169   6.518   9.615   1.076  0.1718 -0.1282 -0.0588
31756W        W45170   3.505   0.477   5.395  0.0285 -0.0309  0.0641
31757W        W45171   2.524   3.102  14.356  0.0716 -0.2382  0.1708
31758W        W45172  11.865   2.424  10.556 -0.2578  0.1959 -0.5407
31759W        W45173  11.267  15.235  16.176 -0.0600  0.3659 -0.1094
31760W        W45174  15.098   0.628  13.065 -0.1933 -0.1328  0.2764
31761W        W45175  13.146  15.037  14.805 -0.0868 -0.3787 -0.5698
31762W        W45176   6.019  11.343   1.728  0.0271 -0.2541  0.0899
31763W        W45177  13.809   7.058  16.248  0.1818 -0.3436  0.0689
31764W        W45178  12.545  16.512  15.393 -0.0400 -0.0292 -0.2551
31765W        W45179   3.627   9.538   3.924  0.0909 -0.0567 -0.0459
31766W        W45180   8.484  15.054  12.331 -0.0227  0.2692 -0.1136
31767W        W45181   3.932  18.192   4.641 -0.0488 -0.1019 -0.0701
31768W        W45182  10.910  18.314   3.637  0.0072 -0.2471 -0.0000
31769W        W45183  15.900  12.201  11.416 -0.0227  0.2297 -0.2156
31770W        W45184   2.613  11.369  11.349  0.3187  0.1725 -0.1035
31771W        W45185   7.646   1.836   4.850 -0.5015  0.1329 -0.1623
31772W        W45186   4.665  16.701  15.564  0.1337  0.0251  0.0612
31773W        W45187   7.260   9.918  15.866 -0.0548  0.1313 -0.0228
31774W        W45188   6.681   0.229  12.307  0.5325 -0.0664  0.1258
31775W        W45189  11.320  18.170  12.871  0.0171 -0.3213  0.0798
31776W        W45190   1.617   9.979  10.653 -0.2594 -0.0649 -0.3125
31777W        W45191  16.199   2.799  13.998  0.0548  0.1911 -0.1068
31778W        W45192  16.052  13.263   2.756  0.2405  0.0633 -0.1834
31779W        W45193   9.903  10.929   0.094  0.0294  0.2897  0.0767
31780W        W45194  14.931   4.043   5.037 -0.0199 -0.1069  0.1367
31781W        W45195   2.420   1.360   5.224 -0.2139 -0.2233  0.3684
31782W        W45196  15.016   2.309   2.254  0.1588 -0.2755  0.0054
31783W        W45197   4.422   1.329  10.406 -0.0130  0.2561 -0.2655
31784W        W45198   3.698   4.557   4.195 -0.1503 -0.0229  0.0073
31785W        W45199  11.927   4.485  12.978  0.0046 -0.1108  0.1067
31786W        W45200  16.761  14.508   3.470 -0.0894 -0.1590  0.1190
31787W        W45201  10.513  14.790  12.709 -0.0934 -0.2393  0.0955
31788W        W45202   0.360  14.765  16.043 -0.2865  0.1752  0.1620
31789W        W45203   0.179  13.212   4.886  0.0587 -0.0663  0.4527
31790W        W45204  13.990   0.865   2.456  0.1591  0.5971 -0.2779
31791W        W45205  10.067   4.584  11.269 -0.2593 -0.1607  0.0954
31792W        W45206  15.828  14.076   1.958  0.3898 -0.3701 -0.3141
31793W        W45207  10.884  11.316  12.655 -0.0505 -0.2613 -0.0783
31794W        W45208  16.777  12.601   4.503  0.0929  0.0818 -0.0842
31795W        W45209  11.662  15.965  14.455  0.0146  0.0040 -0.2679
31796W        W45210  13.017   0.664  13.234 -0.1910 -0.0208 -0.0231
31797W        W45211  12.812  10.057   1.030 -0.1832 -0.0254  0.0629
31798W        W45212   5.199  12.868  14.293  0.1734 -0.3717  0.1712
31799W        W45213  11.108  15.995   0.372  0.2750  0.1466  0.0855
31800W        W45214  13.728   2.886   0.312  0.1693  0.1314 -0.2077
31801W        W45215   3.732   6.075  13.969  0.0195 -0.1416  0.1969
31802W        W45216  12.786  13.670   0.033  0.0785 -0.0428  0.1780
31803W        W45217  12.801  10.681  13.342 -0.3244  0.0885 -0.3923
31804W        W45218   1.069  15.092   3.447  0.0395 -0.2928  0.0849
31805W        W45219   3.348  17.725  15.368 -0.3830 -0.1816  0.0627
31806W        W45220   3.814  17.411  16.171  0.2700  0.2495  0.1115
31807W        W45221  14.847  17.218   6.139 -0.0109  0.0313  0.1226
31808W        W45222  18.077   2.102  15.960 -0.2554 -0.1136  0.1505
31809W        W45223  16.485  10.466   3.541  0.2078 -0.0011  0.3226
31810W        W45224  13.815  16.279   4.816  0.0118 -0.4104 -0.1750
31811W        W45225   0.459  14.164   2.670 -0.1200 -0.1023 -0.0273
31812W        W45226   1.668   9.273   4.404  0.3212  0.0582 -0.1396
31813W        W45227   4.047   1.459  12.384 -0.0136 -0.1251 -0.0840
31814W        W45228   1.301   1.346   0.937 -0.0482 -0.4714  0.0113
31815W        W45229   2.283   3.210   3.565 -0.2949  0.1512 -0.0556
31816W        W45230   8.600  14.404  11.040 -0.1480 -0.2242  0.0258
31817W        W45231   0.323  12.526  16.215 -0.0753  0.3245  0.1585
31818W        W45232   5.596   8.642   3.938  0.1896 -0.2204  0.1237
31819W        W45233  13.946  16.109  10.333  0.0714  0.3397 -0.1634
31820W        W45234   8.364  12.109   4.715 -0.0739 -0.0230 -0.2032
31821W        W45235   9.123   5.570  13.216  0.4095 -0.1809  0.1962
31822W        W45236   7.970  13.011  16.038 -0.0481 -0.3100  0.1079
31823W        W45237   6.150   6.158  11.680 -0.1497 -0.0632  0.1649
31824W        W45238   0.728   4.392  12.721 -0.1845 -0.3350 -0.2835
31825W        W45239  17.813   5.902  13.942  0.0158  0.0582  0.2110
31826W        W45240   7.008  13.499   3.674 -0.3780 -0.1601 -0.3135
31827W        W45241   1.749   5.104   1.634 -0.0435  0.2617 -0.2557
31828W        W45242   9.073  12.181   2.005  0.1705  0.1306 -0.1826
31829W        W45243   6.113   1.857  13.103  0.1282 -0.1918 -0.0609
31830W        W45244  12.421  12.385  11.750 -0.0423  0.1302  0.1393
31831W        W45245   5.456  13.926  15.739  0.0670  0.0409  0.0634
31832W        W45246  17.161   3.040   2.686  0.2122  0.0881 -0.1993
31833W        W45247  12.635   2.136  10.893 -0.0479 -0.2439  0.1411
31834W        W45248   2.510  14.210   3.523  0.3140 -0.0561  0.2050
31835W        W45249   5.793  17.051   3.709 -0.0964 -0.1608 -0.0471
31836W        W45250   0.088  14.995   3.418  0.3209 -0.2968 -0.0361
31837W        W45251  17.340   2.288   2.496 -0.0085  0.0047 -0.2474
31838W        W45252   7.576   4.486   1.319  0.0126 -0.0811 -0.2323
31839W        W45253   7.685   4.131  16.103 -0.3700  0.1943 -0.0633
31840W        W45254   0.354   4.673   5.619  0.2229 -0.0664 -0.1123
31841W        W45255   8.989   5.759  10.769  0.0176 -0.2614  0.0653
31842W        W45256  11.713   3.775   4.190 -0.0027 -0.0293  0.1441
31843W        W45257   1.973  11.856   0.568 -0.1755  0.3288  0.1436
31844W        W45258   1.746  14.458   1.201 -0.2456 -0.3642  0.0247
31845W        W45259  17.321  11.108  14.575 -0.1017 -0.1833  0.2116
31846W        W45260  12.697  15.861   0.994  0.3381  0.4632 -0.2756
31847W        W45261   4.823  13.058   3.133 -0.1497 -0.0078  0.1010
31848W        W45262   7.083  15.853   0.501  0.1174  0.0994  0.0079
31849W        W45263   3.185   5.656   0.582  0.0822 -0.1516  0.3000
31850W        W45264  15.074   5.904  15.850  0.2613  0.4316  0.1650
31851W        W45265   9.672   3.171  14.096 -0.0561  0.0059  0.2102
31852W        W45266   4.509   1.315  12.668  0.0564 -0.2190 -0.1291
31853W        W45267   2.335  10.527  11.056  0.3256 -0.0240  0.1669
31854W        W45268  12.908  16.032   1.492 -0.4201  0.0715  0.1453
31855W        W45269  15.955   2.083   6.358 -0.0731  0.2886  0.1339
31856W        W45270  18.104  11.858   2.362  0.0668 -0.3454 -0.1415
31857W        W45271   4.101   0.994  13.769 -0.0705 -0.0528 -0.0580
31858W        W45272   4.650  10.071   3.733  0.0553 -0.0025 -0.1377
31859W        W45273   2.513   3.797   1.014 -0.2246  0.2806 -0.0601
31860W        W45274   4.572   6.532  14.198  0.1670 -0.1182 -0.1009
31861W        W45275   2.581   7.038   3.111  0.2679  0.1692  0.3188
31862W        W45276  16.372  16.409  13.422  0.1203 -0.2240 -0.0619
31863W        W45277   1.716   3.431   2.017 -0.2212 -0.0611 -0.2813
31864W        W45278   5.167   7.340   1.911  0.2053 -0.0183 -0.2608
31865W        W45279  10.638  15.753  15.985  0.1587 -0.2805 -0.1043
31866W        W45280  13.472   9.286   3.920 -0.1110 -0.1004 -0.0490
31867W        W45281  11.119   8.537   2.939  0.0138  0.0805  0.0748
31868W        W45282   8.187  17.855   5.112 -0.0496 -0.3427 -0.1034
31869W        W45283  13.598  16.486  11.531  0.3102  0.0140  0.0904
31870W        W45284   8.153   0.598   3.262  0.0782  0.5675 -0.3330
31871W        W45285  11.369  15.834   2.328  0.0071 -0.2806 -0.4834
31872W        W45286   4.411   7.949   5.480 -0.1243 -0.1178  0.1597
31873W        W45287   3.743  14.459  14.618  0.2277  0.0094 -0.0686
31874W        W45288   6.604  11.647   2.284  0.2763  0.0281  0.2169
31875W        W45289   2.859  11.994   5.502 -0.4080  0.3020 -0.0868
31876W        W45290  14.992  18.134  16.403 -0.1997  0.0055 -0.4387
31877W        W45291  16.483   8.701  12.239  0.0478  0.1893  0.0530
31878W        W45292  15.946   0.870  12.029  0.0405  0.0984  0.1206
31879W        W45293   3.668  10.376   6.129 -0.0015 -0.1623 -0.0692
31880W        W45294  16.809   0.158  16.068 -0.1496  0.1664 -0.1697
31881W        W45295   4.642   7.576   5.748  0.0922 -0.0847  0.1826
31882W        W45296  16.633   5.260  14.665 -0.0510  0.0420  0.3382
31883W        W45297  16.298   5.837  13.943 -0.0739 -0.3324  0.1240
31884W        W45298   6.265  10.845  12.136 -0.0208  0.2026 -0.0583
31885W        W45299   9.174  10.348   5.302  0.3700  0.2810  0.2585
31886W        W45300   4.149   6.070  12.604 -0.2802  0.0289  0.0372
31887W        W45301  18.350   2.599   4.975 -0.1088 -0.0240 -0.0476
31888W        W45302  15.885   6.479   0.638 -0.0326 -0.1564 -0.4150
31889W        W45303   9.189  17.052  12.021  0.0522 -0.0467  0.3283
31890W        W45304  12.798   5.671  10.235 -0.3939 -0.1686 -0.2297
31891W        W45305   1.904   9.258  13.276  0.5772 -0.0049 -0.0101
31892W        W45306   5.950  15.823   5.288 -0.0762 -0.1949 -0.1701
31893W        W45307   2.517  13.772  13.514  0.0102  0.0191 -0.0472
31894W        W45308   4.664  16.478   3.490  0.0043 -0.2378  0.0466
31895W        W45309   3.089  15.133  12.027 -0.0723  0.0046  0.0628
31896W        W45310  17.794   4.255  10.778  0.2755  0.1867 -0.0257
31897W        W45311   1.183  16.861   1.804  0.2712  0.0585 -0.1550
31898W        W45312  16.996   4.480  14.437  0.0458  0.0690  0.0638
31899W        W45313   3.798  10.755  14.572 -0.4237  0.3437 -0.1226
31900W        W45314  16.080   9.040  15.453 -0.2768  0.0926 -0.0709
31901W        W45315  14.290  17.123   0.682  0.1220  0.2682 -0.2459
31902W        W45316  13.389  15.186   5.900 -0.0974 -0.1807 -0.0079
31903W        W45317   1.303  11.133   1.671 -0.0666 -0.0105 -0.0206
31904W        W45318   9.848   0.949   3.575  0.0915 -0.0528 -0.3168
31905W        W45319  17.228   3.435  11.121 -0.3280 -0.1737  0.1198
31906W        W45320  13.689  14.715  16.352  0.2530 -0.1305 -0.2109
31907W        W45321   3.051  14.278   1.540 -0.1207  0.0216 -0.3547
31908W        W45322  14.099  12.503  16.199 -0.1918 -0.1618  0.1054
31909W        W45323   3.729  12.405  11.363  0.2375 -0.0462 -0.1727
31910W        W45324  16.241  12.786  15.099 -0.0669  0.1854 -0.1006
31911W        W45325  16.520   0.348  13.463  0.2834 -0.3077  0.4942
31912W        W45326  14.779   2.007   3.619  0.3039 -0.1585  0.1326
31913W        W45327   1.614   9.626   0.700  0.2056  0.0767  0.0893
31914W        W45328  13.882   0.435   0.832 -0.1606 -0.5065  0.3025
31915W        W45329  18.142   6.902   3.944  0.0179  0.0802 -0.0171
31916W        W45330  17.197   9.024   1.848 -0.0432 -0.0690  0.0799
31917W        W45331   4.509  14.487   0.522  0.1436  0.0251  0.0444
31918W        W45332   9.787   3.336  13.570  0.0071 -0.1643  0.1806
31919W        W45333  14.839  11.382   4.506  0.0941 -0.0135 -0.2804
31920W        W45334  16.940   2.712   4.815  0.1241 -0.1182 -0.2859
31921W        W45335   5.276   3.895  16.043  0.0545  0.0885  0.1504
31922W        W45336  10.851   5.539  15.535 -0.1584 -0.2235 -0.2578
31923W        W45337   2.621  11.921  12.171  0.1077 -0.0360  0.0077
31924W        W45338  13.213  18.039   6.828  0.1024 -0.0587 -0.2792
31925W        W45339   7.213   6.819  11.490 -0.0897  0.0736  0.2046
31926W        W45340  11.855   1.654  10.814 -0.1986  0.2392 -0.0930
31927W        W45341   3.476   7.010  13.603 -0.0383 -0.2522 -0.1794
31928W        W45342   7.770  11.677  12.367  0.0992  0.2802 -0.0361
31929W        W45343   4.764   5.586  14.195 -0.1187  0.4495  0.1795
31930W        W45344  10.786   5.478   2.651 -0.0007  0.1418  0.0535
31931W        W45345  10.856  10.100   4.206 -0.2543 -0.1119  0.1204
31932W        W45346  10.681   7.791   5.154  0.1679  0.1177  0.1066
31933W        W45347   9.911  17.465   0.413 -0.1990 -0.0655 -0.1418
31934W        W45348  11.959   8.984  10.550 -0.2812 -0.1308 -0.1947
31935W        W45349  14.958  18.349  10.882 -0.0353  0.0121  0.0126
31936W        W45350  12.144   2.800   4.318  0.1675 -0.0659 -0.2348
31937W        W45351   9.377   3.051   0.300  0.0340  0.0530  0.0160
31938W        W45352  17.810  13.874   3.462 -0.0470  0.1150 -0.0002
31939W        W45353   8.437   3.365   3.643  0.4111 -0.1366 -0.1264
31940W        W45354   9.997  16.511   4.968  0.0042  0.4779 -0.2397
31941W        W45355   6.167   7.201   3.158  0.0904 -0.1293  0.0983
31942W        W45356  11.228   8.048   5.749  0.1854  0.0025 -0.3748
31943W        W45357  11.842   5.101  14.307  0.0498 -0.0726 -0.2502
31944W        W45358  11.889   7.302  13.357  0.2664  0.0152 -0.3038
31945W        W45359  11.348  10.121   0.334  0.0054  0.2266 -0.1416
31946W        W45360  10.854  14.423  12.759 -0.2716 -0.0628 -0.0603
31947W        W45361   4.965   5.348  11.737 -0.3362  0.1817  0.1536
31948W        W45362   5.888   9.571  12.292 -0.2510  0.2107  0.2441
31949W        W45363   1.992   3.590  16.432  0.0870  0.2644 -0.0621
31950W        W45364   1.777   6.999  13.710 -0.1396 -0.1441  0.1482
31951W        W45365  11.702   1.609  13.576 -0.1294 -0.0966 -0.3233
31952W        W45366   5.559  12.598  16.473 -0.3032 -0.0914  0.2420
31953W        W45367   3.969   3.868   1.704 -0.1693 -0.0929 -0.4217
31954W        W45368  11.974  13.491   3.714  0.0368  0.0018  0.2524
31955W        W45369  13.466  15.711   1.682 -0.1639 -0.0059  0.1558
31956W        W45370   2.200  14.368   5.696  0.0667  0.1120  0.0497
31957W        W45371   5.876   4.321  14.684  0.1723  0.2059 -0.2047
31958W        W45372  10.573  14.040   3.776  0.0079 -0.1307 -0.5887
31959W        W45373  12.089   6.505   3.504  0.6039 -0.0393 -0.2337
31960W        W45374   5.889   7.655   5.354  0.0304 -0.1850 -0.1495
31961W        W45375   7.413   9.561  12.853  0.0475 -0.0021  0.2263
31962W        W45376  13.039   6.165   3.126  0.1072  0.3453  0.1630
31963W        W45377  12.840  13.717   5.350 -0.0001 -0.0338  0.3414
31964W        W45378   4.230  17.194  14.778 -0.0210 -0.0860 -0.1796
31965W        W45379   2.491  11.875   3.576 -0.2013 -0.0309  0.0334
31966W        W45380   1.957  15.761   3.633 -0.0742 -0.2413 -0.1832
31967W        W45381  18.327   8.096   1.638  0.0161  0.2192 -0.0032
31968W        W45382  16.658  11.036  11.982 -0.0183  0.0088 -0.3321
31969W        W45383   2.965  16.403  11.385  0.1267 -0.4638  0.0068
31970W        W45384   8.584  12.847   4.021  0.2596  0.1824  0.2103
31971W        W45385   1.268   6.923  14.514 -0.2455 -0.3282  0.3494
31972W        W45386  18.142   9.821   2.634  0.2105  0.0938  0.3050
31973W        W45387  11.443   7.297  14.374  0.2441 -0.2890  0.0687
31974W        W45388  10.156  12.899  16.340 -0.2217  0.0756 -0.3443
31975W        W45389   8.576   3.163  10.552 -0.1535  0.0618 -0.1812
31976W        W45390   8.180   3.386  12.003  0.2773 -0.0581  0.0515
31977W        W45391   4.401  15.904   1.561 -0.0978 -0.0783  0.3650
31978W        W45392  15.536   8.145   4.816  0.1900  0.1562  0.2275
31979W        W45393  15.284   7.582  10.588 -0.2981 -0.0209  0.4599
31980W        W45394   6.416  16.234   2.643 -0.1204  0.0474 -0.1301
31981W        W45395  13.730   1.552   5.617  0.0145  0.0053 -0.4474
31982W        W45396   8.016  15.110   2.584 -0.1662  0.4434 -0.1505
31983W        W45397   2.300   7.227   5.853 -0.0792  0.2848  0.1625
31984W        W45398  15.167  17.576   3.664  0.1820 -0.0044 -0.0380
31985W        W45399  16.214  15.671  13.893  0.3128  0.2364 -0.3518
31986W        W45400  17.012  13.808  12.587 -0.2906 -0.0466 -0.1119
31987W        W45401   8.446   6.811  10.137  0.2757  0.5470  0.0129
31988W        W45402  14.983   0.811   4.534  0.2874  0.0330 -0.1195
31989W        W45403   1.810   7.782  16.279 -0.3226 -0.0380 -0.0503
31990W        W45404   7.572  16.794   4.683  0.3674  0.4627 -0.0718
31991W        W45405  11.931  16.866   1.737 -0.0157 -0.0586  0.0514
31992W        W45406  11.657  15.033   3.871  0.0899  0.3264 -0.1697
31993W        W45407   9.173  13.150  15.815  0.0120  0.2106  0.2471
31994W        W45408  14.358  10.147   4.759  0.2232 -0.4131  0.3225
31995W        W45409  15.996  11.390   1.739 -0.3425  0.0159 -0.3515
31996W        W45410   6.241  12.699   1.384  0.2273 -0.1134  0.0347
31997W        W45411  17.256   8.401   6.011 -0.0017 -0.3211  0.2160
31998W        W45412   6.935  16.715   4.288  0.1442  0.0778 -0.1648
31999W        W45413   9.645  12.941  14.542 -0.0919 -0.0007 -0.1451
32000W        W45414   0.013  10.221  12.986 -0.2902  0.2306 -0.1106
32001W        W45415  18.026   7.349  11.970  0.3078 -0.1962  0.2837
32002W        W45416  13.057  18.051  11.110 -0.2098 -0.0828 -0.1043
32003W        W45417  16.899   9.782  14.820 -0.4822  0.4043  0.2390
32004W        W45418   7.126  12.414  12.206 -0.5634 -0.0433  0.1074
32005W        W45419  14.513  15.374   1.790 -0.0779 -0.1032  0.1338
32006W        W45420  13.900  17.212  15.744  0.0047 -0.0918  0.3619
32007W        W45421  14.031  17.899   2.106  0.0876 -0.0202  0.0026
32008W        W45422  11.609   5.752  15.542  0.1740 -0.0924  0.1521
32009W        W45423  10.856   8.245   5.392  0.2934  0.0185  0.0490
32010W        W45424  16.433   4.183  14.393 -0.1415  0.0449 -0.4069
32011W        W45425  15.959  13.780   6.158 -0.2012  0.0035 -0.2566
32012W        W45426  13.334  12.504   1.334  0.3168  0.0691 -0.2135
32013W        W45427  14.110  13.706   3.743  0.1155  0.0824 -0.2536
32014W        W45428   3.586   8.222  12.661  0.2829 -0.4094  0.1298
32015W        W45429   0.368  12.697  12.571 -0.0041 -0.0720  0.2294
32016W        W45430   9.047  11.686   4.659 -0.1506 -0.1567  0.0179
32017W        W45431  18.315  12.830   5.133  0.0022 -0.2744  0.0792
32018W        W45432  16.260   9.001  11.907 -0.1034 -0.2080  0.0742
32019W        W45433  11.819  12.811  14.777  0.1873 -0.0895  0.0919
32020W        W45434   7.557   3.907  15.026  0.1502 -0.3247 -0.1075
32021W        W45435   2.000  11.277  13.698 -0.0975 -0.1469 -0.1168
32022W        W45436  15.401   6.470   0.628 -0.2470  0.2018 -0.0127
32023W        W45437   4.546  11.367   5.826  0.4015 -0.0148 -0.0379
32024W        W45438   8.995  12.786  16.153  0.2455 -0.0673 -0.1665
32025W        W45439  13.980   0.188  13.217 -0.0638 -0.1402 -0.1074
32026W        W45440  17.273   7.505   3.260 -0.0239  0.0113 -0.0231
32027W        W45441   6.241  13.099   3.781  0.2618  0.0502 -0.3737
32028W        W45442   9.337  10.290   1.704 -0.0358  0.2879 -0.2850
32029W        W45443   9.953   5.150   3.622  0.0189 -0.0884  0.0780
32030W        W45444   3.650   9.567   2.724 -0.2943 -0.0837 -0.0261
32031W        W45445  12.298   2.343  14.362 -0.1675 -0.0413 -0.1680
32032W        W45446   5.068  18.293  13.350 -0.2377  0.2652 -0.0359
32033W        W45447   5.105   3.169   1.446 -0.0786  0.2925 -0.2019
32034W        W45448  16.381  14.795  12.044 -0.0571  0.0876  0.0355
32035W        W45449   7.986   3.581  12.447 -0.0330 -0.2809 -0.0209
32036W        W45450   3.851  13.660  16.331  0.2677  0.3028  0.3043
32037W        W45451   7.814  12.018  14.069 -0.0695  0.1453  0.1289
32038W        W45452  14.604  15.065   1.316  0.0974  0.0130  0.0418
32039W        W45453   1.635  12.121  13.679  0.1767  0.1539  0.1086
32040W        W45454  18.315   6.218  13.265 -0.2039  0.0402 -0.1351
32041W        W45455   3.954  18.153  15.539  0.2299  0.0445  0.0498
32042W        W45456  14.071   4.441   4.889 -0.0129 -0.2530  0.0788
32043W        W45457   0.031  15.167  12.769 -0.1871 -0.4819 -0.0404
32044W        W45458  16.308   6.591   0.967 -0.1463 -0.2801  0.1033
32045W        W45459  11.182   5.226   2.229 -0.2823 -0.2730 -0.0243
32046W        W45460   0.483   0.136   2.302  0.3053 -0.1060  0.2360
32047W        W45461  13.775   4.696   1.559 -0.0025 -0.0659 -0.0207
32048W        W45462   1.880  11.245   1.254  0.0876 -0.0926  0.1067
32049W        W45463   5.921  10.451  13.786  0.1140  0.0166 -0.2178
32050W        W45464   1.678  14.060  14.898  0.1055  0.0500 -0.0010
32051W        W45465   2.774   2.481  15.267 -0.0451 -0.0989 -0.0096
32052W        W45466  13.802   0.379  15.390  0.0049 -0.0335  0.1350
32053W        W45467   7.689  10.343   2.664  0.0423 -0.0332  0.1259
32054W        W45468   0.108   4.038   4.450  0.1733  0.0595 -0.1053
32055W        W45469  11.394  16.725  12.467 -0.2425  0.1281 -0.1333
32056W        W45470  15.635  13.747  12.745  0.0479 -0.1512  0.0898
32057W        W45471   8.519  14.713  14.124 -0.0015 -0.1737 -0.0134
32058W        W45472   9.260   4.717  15.384  0.0160 -0.1809  0.2326
32059W        W45473   0.347   8.396  15.113  0.0649 -0.2698  0.1595
32060W        W45474   2.374  18.271  10.773  0.0394  0.3564 -0.0926
32061W        W45475  17.474   7.442   5.486 -0.0143  0.0080  0.0526
32062W        W45476   1.906  13.821   6.229 -0.2576  0.0690 -0.0550
32063W        W45477  14.284   5.256   3.267  0.1165  0.0633 -0.1667
32064W        W45478  15.809  11.514   1.287  0.1325  0.1102 -0.1707
32065W        W45479  13.594   7.912  14.065  0.0938 -0.2722  0.0379
32066W        W45480  14.758  17.966  13.760  0.0982 -0.0384  0.0961
32067W        W45481  16.187  15.030   6.138  0.0939  0.0891 -0.1328
32068W        W45482  15.841  11.689   5.029 -0.1509 -0.0546  0.1126
32069W        W45483  16.172   4.830   0.040 -0.1840  0.0290  0.0849
32070W        W45484  11.847   8.801   2.424  0.2658  0.0632 -0.4778
32071W        W45485   1.613  15.881  13.982  0.1398 -0.1834 -0.0509
32072W        W45486   1.685  14.741   6.345 -0.2687  0.0762 -0.0767
32073W        W45487  16.256   1.953  14.401 -0.2138  0.0354  0.1444
32074W        W45488  14.694   9.223  14.262  0.0255  0.0286  0.0642
32075W        W45489  10.443  15.862   0.382  0.0219  0.0659  0.0472
32076W        W45490   1.051  16.823   6.741  0.1028  0.3738 -0.0270
32077W        W45491  13.230  10.178   2.459  0.2109  0.1933  0.1619
32078W        W45492  16.183  11.709  12.120 -0.3200 -0.0313 -0.0690
32079W        W45493   6.785   9.491   5.143 -0.0970 -0.1368  0.2034
32080W        W45494  15.906  15.244  11.967 -0.0801 -0.1577 -0.1138
32081W        W45495  15.564   3.905   1.853 -0.3902  0.0972 -0.0508
32082W        W45496   8.900  16.607   3.119 -0.2566  0.2736 -0.0244
32083W        W45497   1.354  12.960  13.999 -0.1705  0.0401 -0.0892
32084W        W45498  10.504   4.101  14.036 -0.1296 -0.2117 -0.0700
32085W        W45499   8.875   8.949  12.555 -0.0778 -0.0283 -0.0344
32086W        W45500   5.596  11.975  14.973  0.5370 -0.0109 -0.1969
32087W        W45501   8.158  16.587  12.538 -0.0851  0.2863  0.0161
32088W        W45502  13.856   6.171  15.814  0.0379  0.2457  0.1204
32089W        W45503   4.674   0.662  12.522 -0.0501 -0.0683  0.0605
32090W        W45504   6.625   5.902   1.855  0.0495  0.2332  0.1691
32091W        W45505   5.179   3.609   0.461  0.0149  0.0619 -0.2208
32092W        W45506   1.034  16.777  14.994  0.0344 -0.0587 -0.0697
32093W        W45507   5.712   6.554  11.912  0.5923 -0.0988 -0.0427
32094W        W45508  12.002  12.763  13.506 -0.1606 -0.2165 -0.1776
32095W        W45509   5.807   6.948   1.688  0.0866 -0.2976  0.0638
32096W        W45510   5.693   2.856  13.251 -0.1377 -0.1716 -0.0956
32097W        W45511   9.373  13.549   2.743  0.0001 -0.0094 -0.0132
32098W        W45512   7.308   1.898   1.778  0.5635 -0.0064  0.0288
32099W        W45513   5.629  18.313  10.207 -0.4297 -0.0868  0.1669
32100W        W45514   8.170  15.851  13.568  0.2024  0.1640 -0.0594
32101W        W45515  18.372   3.140  11.690 -0.0134 -0.1251 -0.0686
32102W        W45516   6.645  10.364  12.519 -0.0441 -0.0890  0.0759
32103W        W45517  13.553   3.537   6.536 -0.1065  0.0916 -0.0660
32104W        W45518   7.852  14.271   5.454  0.2034  0.1301  0.2609
32105W        W45519  12.580   8.942  12.623  0.1962 -0.0894 -0.1374
32106W        W45520  10.498  15.875  14.176  0.1787  0.1114 -0.2047
32107W        W45521   3.186   7.433  13.642  0.0374  0.0151 -0.2153
32108W        W45522  15.785  18.018   4.490 -0.1832 -0.2917 -0.0090
32109W        W45523  18.029  17.031  13.955  0.0871 -0.1508  0.0585
32110W        W45524   2.803  11.147   3.703 -0.3085 -0.0047 -0.1465
32111W        W45525   2.079  12.265   4.312  0.3000  0.0203  0.1639
32112W        W45526  14.189  16.190   2.139  0.2095  0.1392 -0.0789
32113W        W45527   5.455   7.697  11.810  0.0441 -0.2123  0.0780
32114W        W45528  12.584   3.156   6.449 -0.2198 -0.0826 -0.0085
32115W        W45529  15.958   8.607  16.304  0.5433  0.1377 -0.0286
32116W        W45530   6.975  11.580   3.512  0.4906  0.1354 -0.0830
32117W        W45531  14.284   5.543  13.884 -0.0696 -0.0548 -0.2741
32118W        W45532  14.963  16.026   0.738  0.0733  0.5051  0.2779
32119W        W45533   1.458  16.628  15.140 -0.0922  0.1462 -0.2326
32120W        W45534   6.142   7.908   0.614 -0.0270 -0.0959  0.4079
32121W        W45535   1.231   6.715   2.831  0.0395  0.2196 -0.1588
32122W        W45536   6.653  12.922   5.327 -0.0073 -0.1549 -0.0282
32123W        W45537   0.552   5.187  12.147  0.0727  0.3489  0.0401
32124W        W45538   0.702  18.148  15.603  0.3100  0.2944  0.1576
32125W        W45539   1.170  16.328   1.803  0.5738  0.0799  0.1390
32126W        W45540   9.850   6.168   4.132 -0.4080 -0.0479  0.0269
32127W        W45541   0.136   8.556   1.431  0.1855  0.1740  0.0683
32128W        W45542  14.429  15.186   5.887 -0.1052 -0.2253 -0.0495
32129W        W45543   2.633   2.634   2.831  0.1197 -0.0449  0.1350
32130W        W45544   4.841  13.265  13.672 -0.1063 -0.1452 -0.1648
32131W        W45545  10.206   7.912   1.106  0.1496  0.2000 -0.0235
32132W        W45546  12.231   3.767  15.227  0.0285 -0.1702  0.0013
32133W        W45547  12.924   5.935   3.626  0.0376  0.0874 -0.0785
32134W        W45548  15.859  14.740  14.804 -0.1185 -0.1321  0.0045
32135W        W45549   7.034  12.524   4.021  0.3145  0.2141 -0.0582
32136W        W45550  14.387  15.482   4.896 -0.1995 -0.1076 -0.1381
32137W        W45551   0.785  13.517  11.554 -0.1820 -0.0697  0.0102
32138W        W45552   4.654   9.229   2.423  0.1005 -0.3592  0.1695
32139W        W45553   3.340  11.150  13.879 -0.1468  0.0875 -0.0993
32140W        W45554   5.037   1.534   1.155  0.0904 -0.0304  0.0042
32141W        W45555   0.902  10.337  14.150 -0.0330  0.3060  0.0056
32142W        W45556  16.188   9.283   1.444 -0.0898 -0.3219 -0.0649
32143W        W45557   7.406   3.530   1.545 -0.3468  0.2624 -0.3450
32144W        W45558   9.023   8.263   0.607  0.0924  0.2975 -0.2963
32145W        W45559  12.089   2.195   3.300  0.3822 -0.3664  0.0911
32146W        W45560   3.511   9.009  11.628  0.1274  0.1201  0.0395
32147W        W45561   5.008   5.572   2.761 -0.4093 -0.0489  0.0556
32148W        W45562  17.938   5.901   3.895  0.2293  0.1716 -0.1685
32149W        W45563   5.302  16.971   4.820 -0.3118  0.0711 -0.5394
32150W        W45564  10.189  17.515  13.190  0.4674  0.0999 -0.7027
32151W        W45565  17.949  16.035   2.596 -0.2597 -0.0979  0.2695
32152W        W45566  17.255   5.031   5.384 -0.2597  0.0932 -0.1189
32153W        W45567  14.245  13.124   5.117 -0.0056 -0.2435  0.2024
32154W        W45568   7.051  10.897   3.605 -0.1585 -0.0735  0.3915
32155W        W45569   9.364  10.783  14.891  0.0241 -0.2048  0.3073
32156W        W45570  14.092  13.993  13.881  0.0742  0.0937 -0.2152
32157W        W45571   9.003  16.919  13.691 -0.0099 -0.0374  0.0926
32158W        W45572  15.659  16.751   0.454  0.2731  0.1812  0.1758
32159W        W45573  12.195   0.094   3.992 -0.2443 -0.0991 -0.1429
32160W        W45574  14.714  13.970   6.106  0.1651  0.2718  0.0812
32161W        W45575  10.310   8.120  11.809 -0.1417  0.0883  0.0907
32162W        W45576   4.238   4.206  12.374 -0.1049  0.0146 -0.1922
32163W        W45577  16.249  17.027  11.032  0.2822  0.0858  0.2420
32164W        W45578   5.922  12.271  12.802  0.1361  0.0809  0.0657
32165W        W45579   5.429  18.394  16.163 -0.0109 -0.2672 -0.0305
32166W        W45580   9.426  14.432   3.016  0.2155 -0.2549 -0.2734
32167W        W45581  18.300   8.885  13.250  0.4310 -0.3621 -0.0418
32168W        W45582  17.224   5.965   5.660 -0.1871 -0.0945  0.2874
32169W        W45583  17.301  10.304   4.407  0.3160 -0.1449  0.1992
32170W        W45584  15.460  14.114   4.983 -0.2267  0.0092  0.0933
32171W        W45585   2.561  18.389   1.541  0.1179  0.3610 -0.1551
32172W        W45586  12.562  13.809  14.763  0.1080  0.2471  0.1196
32173W        W45587   3.274   1.261  12.952 -0.0844  0.1497 -0.1918
32174W        W45588   0.363  15.968   3.665  0.3822 -0.2276  0.4112
32175W        W45589   3.008   9.718   1.581  0.0377  0.1916  0.1008
32176W        W45590  15.435   5.421   2.743 -0.5022 -0.2370  0.1151
32177W        W45591  11.838   8.565  15.841 -0.1745  0.0499  0.1393
32178W        W45592  17.731   7.285   3.931 -0.1928 -0.1662  0.2028
32179W        W45593   5.586   8.111   5.352  0.0982 -0.0411  0.0277
32180W        W45594   6.982   2.299  12.223  0.0653  0.3715 -0.1433
32181W        W45595  15.808   0.161   0.787 -0.2399  0.0140  0.0324
32182W        W45596  11.601   1.893  11.664  0.2321  0.0559  0.2004
32183W        W45597   9.908  16.316   2.326 -0.3082 -0.1555  0.3074
32184W        W45598   0.185   9.944   3.105 -0.1931  0.3983  0.1176
32185W        W45599   6.709   3.389   0.911  0.4137 -0.0440  0.0075
32186W        W45600   8.819  10.907  12.927 -0.0422  0.3148 -0.0962
32187W        W45601  11.728   4.889  16.276 -0.0193  0.0476  0.2016
32188W        W45602  14.848   2.536  16.147  0.0136 -0.0665 -0.1338
32189W        W45603   4.421  13.665  12.045 -0.3381 -0.1277 -0.3724
32190W        W45604   6.363   9.244  14.819  0.1669 -0.0579 -0.1045
32191W        W45605   8.677   6.618  14.193 -0.3090 -0.1645 -0.2515
32192W        W45606  12.389   5.510   5.333  0.2340  0.2611  0.1085
32193W        W45607  14.877  13.972   0.106  0.1853  0.0031 -0.0447
32194W        W45608   5.278   8.819   2.876  0.1095  0.2457 -0.2096
32195W        W45609   4.353   0.713  15.024  0.0927  0.0319  0.0824
32196W        W45610  14.601   3.791  16.437 -0.3741 -0.1431  0.2090
32197W        W45611   2.192   1.317  16.228 -0.1757  0.0486 -0.1781
32198W        W45612  17.179  16.486   4.848  0.0806  0.0732  0.2907
32199W        W45613   9.509  13.459  13.207  0.0193  0.0670 -0.1599
32200W        W45614  15.254   9.438   2.878  0.1695 -0.0087  0.0244
32201W        W45615  11.739  16.696  14.909  0.3289 -0.2009  0.1224
32202W        W45616   6.681  13.882   2.288  0.0185  0.1350 -0.1811
32203W        W45617   4.306  13.702   0.937 -0.2940  0.1540 -0.4555
32204W        W45618  15.516   3.629   2.362 -0.1289 -0.2123 -0.0517
32205W        W45619   4.720  17.628  11.784 -0.0345 -0.1315  0.0584
32206W        W45620   6.265  10.427  15.505  0.0076 -0.2372 -0.0615
32207W        W45621   5.507   1.172   4.746  0.3541  0.0323 -0.1421
32208W        W45622   7.440  16.957  13.984 -0.0663  0.0738  0.0333
32209W        W45623  12.124   6.888   1.784  0.2814 -0.0200  0.2829
32210W        W45624   0.255   5.003   2.385 -0.1938  0.2247  0.1614
32211W        W45625   8.536   8.908   5.848 -0.1830 -0.0327  0.1861
32212W        W45626  15.577  16.454  14.171  0.3828 -0.2215  0.1265
32213W        W45627  17.471  17.730   4.953  0.0446 -0.1599  0.1769
32214W        W45628  16.125   8.664  10.209  0.0005  0.3138 -0.1559
32215W        W45629  13.745   5.457  12.860  0.2785 -0.1954  0.0953
32216W        W45630   5.642   4.828   2.849 -0.1382  0.3389  0.1375
32217W        W45631  14.921  12.928  13.916 -0.2368 -0.1912  0.0183
32218W        W45632  15.412  12.337  13.749 -0.2713  0.0851 -0.0289
32219W        W45633   5.189  12.243  15.773  0.1439 -0.1148 -0.2557
32220W        W45634   4.564   1.880   4.147 -0.3178  0.4549  0.0966
32221W        W45635   0.903   9.254  13.212 -0.0828 -0.0032 -0.0380
32222W        W45636   2.470   1.372  12.775 -0.0206  0.0163  0.0285
32223W        W45637   6.494   4.466  13.230  0.0388  0.3477 -0.0665
32224W        W45638  10.459  11.280   2.631  0.1484  0.0963 -0.0336
32225W        W45639   7.169   0.136  15.089 -0.0217  0.1000  0.0030
32226W        W45640  12.760   6.795  12.032  0.1804  0.1703  0.0583
32227W        W45641   9.785  11.670   1.248  0.2310  0.1413  0.0198
32228W        W45642   5.690  10.929  16.069  0.0496  0.0560 -0.0665
32229W        W45643   8.845  14.968  11.907  0.0416 -0.0153 -0.2243
32230W        W45644  15.218  12.007   5.639 -0.2495  0.2493  0.1754
32231W        W45645  11.710   3.818   2.858  0.1387  0.5123 -0.0671
32232W        W45646  10.829  12.445  15.760 -0.0915  0.0788 -0.1363
32233W        W45647  17.994  17.008   1.102  0.2290  0.1340  0.1573
32234W        W45648   1.249   6.678   3.319  0.3572  0.1944 -0.0073
32235W        W45649   5.759  17.551   0.242 -0.0638  0.0497 -0.2308
32236W        W45650   7.136  10.008   4.483  0.2667  0.0124  0.3510
32237W        W45651   1.751  14.147   0.283  0.1488  0.0166  0.0679
32238W        W45652   8.626   6.852   4.600  0.1264 -0.3595  0.0172
32239W        W45653  14.874   8.122   2.445 -0.1186 -0.0997  0.3894
32240W        W45654  12.435   2.752   1.873 -0.2123 -0.0772 -0.1519
32241W        W45655  14.883   0.007  15.029 -0.0141  0.2936  0.0255
32242W        W45656  10.037  11.499   4.465 -0.1716  0.2157  0.1689
32243W        W45657  13.571   6.178  13.700 -0.2112 -0.2094  0.0438
32244W        W45658  18.047  12.550  12.337  0.2387 -0.1742  0.3268
32245W        W45659  13.514  12.603   5.932 -0.1714  0.2719 -0.0504
32246W        W45660   9.166  15.455   3.927 -0.0185  0.2590 -0.1285
32247W        W45661  12.550   6.371   1.494  0.2099  0.1246 -0.3194
32248W        W45662  13.052   0.689  12.556  0.1979  0.0899  0.3831
32249W        W45663   4.593   4.951   9.902 -0.3779  0.2722 -0.0242
32250W        W45664   3.162  17.660   5.919 -0.0149  0.0472 -0.1910
32251W        W45665  10.469   3.698   0.210 -0.0206  0.0146  0.1202
32252W        W45666   2.384   1.384   2.210 -0.1082  0.1679 -0.2016
32253W        W45667   2.318  12.278   4.837  0.2066 -0.1454  0.0768
32254W        W45668  16.772  15.294   4.372  0.1392 -0.1213  0.0938
32255W        W45669   1.648  11.383   4.076  0.2284 -0.0532  0.1750
32256W        W45670   8.189   1.038  16.293  0.2937  0.0301 -0.1570
32257W        W45671  14.617  10.191   3.497  0.2462 -0.2124  0.0024
32258W        W45672   1.062   4.094  15.018  0.2926 -0.3393 -0.2941
32259W        W45673  17.545  13.379   1.684  0.3006  0.0834  0.0973
32260W        W45674  15.261  12.582   0.225  0.0991 -0.2201  0.2867
32261W        W45675   2.248  13.789   1.960  0.1446 -0.0020 -0.0267
32262W        W45676   8.461   9.098  15.129 -0.1258  0.2150 -0.1272
32263W        W45677  15.820   3.334   3.890  0.0852  0.1692 -0.0624
32264W        W45678   1.687   6.826  10.622  0.1964 -0.2690 -0.0803
32265W        W45679   4.823   3.874   2.358 -0.1889 -0.1670  0.0945
32266W        W45680   9.773   6.842   0.830  0.1687 -0.0313  0.0228
32267W        W45681  17.548  17.054   4.030 -0.0421  0.0720 -0.0395
32268W        W45682   5.314  10.288  13.188 -0.0354 -0.0007 -0.0443
32269W        W45683  18.305  14.763   0.904 -0.1635  0.3842 -0.0080
32270W        W45684   5.800  12.600   1.126  0.0295 -0.0945  0.4103
32271W        W45685   4.796  18.219   6.034 -0.0914 -0.1541 -0.0698
32272W        W45686  16.670  13.125  13.961 -0.0216 -0.1339  0.1624
32273W        W45687  13.377   6.676  15.029  0.1710  0.1438  0.0994
32274W        W45688   9.395  14.706  13.218  0.0232 -0.2482  0.2921
32275W        W45689   0.550  14.315   6.275 -0.0363 -0.0712  0.0308
32276W        W45690  15.513   5.869  11.848  0.3810 -0.2149 -0.0054
32277W        W45691  18.008  14.136  15.749 -0.1337  0.0584 -0.1556
32278W        W45692  14.913   8.638  13.803 -0.2007  0.0253 -0.4236
32279W        W45693   0.685  15.256  14.959 -0.1431  0.3635  0.3108
32280W        W45694   0.065   0.996   4.210  0.2731 -0.1491  0.1556
32281W        W45695   1.478   3.529   1.576  0.2174 -0.0576 -0.1828
32282W        W45696  15.153   1.669   1.768 -0.1589  0.2193 -0.2857
32283W        W45697   7.059   0.325  14.648  0.1385  0.2235 -0.0155
32284W        W45698  13.037   9.343  11.179 -0.0111  0.4266 -0.2523
32285W        W45699   9.061   1.603   3.483 -0.3607  0.0110 -0.1349
32286W        W45700   5.207   3.293  16.411  0.1495 -0.0865 -0.1354
32287W        W45701  14.214   6.453   3.945  0.2152  0.0223  0.3956
32288W        W45702  15.397  18.039  11.596  0.2490 -0.2296  0.0784
32289W        W45703   4.747   7.887   0.093 -0.2474 -0.2665 -0.0873
32290W        W45704   5.247  10.045   3.419 -0.0655 -0.0690  0.0375
32291W        W45705  13.456   0.583   0.562 -0.0658 -0.0111  0.0094
32292W        W45706  16.049   9.758  10.414 -0.0448  0.0475 -0.1155
32293W        W45707  15.697   4.037   2.739  0.0442  0.0244 -0.3078
32294W        W45708   7.350  11.503  16.465  0.1193 -0.0798 -0.0178
32295W        W45709  10.797  11.619   2.533 -0.0651  0.0882  0.3062
32296W        W45710   4.208   2.683  15.154 -0.2695  0.2452  0.0595
32297W        W45711   6.102   6.582  12.680  0.1006 -0.1555 -0.4460
32298W        W45712   0.811  16.150  11.310  0.0118  0.0189 -0.1737
32299W        W45713   9.018  16.031   1.054  0.1563  0.3324  0.0410
32300W        W45714   7.676   8.318  12.541 -0.0027 -0.0967 -0.0508
32301W        W45715   0.931   4.945   2.998 -0.0253 -0.1657 -0.1088
32302W        W45716  13.323   9.460  12.013  0.1482 -0.3277  0.0618
32303W        W45717   9.215   0.094  13.651 -0.2218  0.4378 -0.1219
32304W        W45718  16.963   5.719  14.883 -0.1596 -0.0559  0.0249
32305W        W45719   1.816  13.510   3.627  0.2116 -0.2904 -0.0311
32306W        W45720  11.578   8.558   2.820 -0.0054 -0.1029  0.2891
32307W        W45721   6.430   0.038   5.345 -0.1398 -0.1184  0.0882
32308W        W45722  10.173  13.106   1.845 -0.1865 -0.1886  0.1307
32309W        W45723  10.864   0.774   4.246 -0.1166  0.2185  0.2582
32310W        W45724   0.105  15.641   4.456 -0.1525 -0.0302  0.2522
32311W        W45725   0.145  11.143   0.857  0.2199  0.2145  0.0399
32312W        W45726  13.307  10.283   5.000 -0.1527  0.1157  0.0395
32313W        W45727  14.431   1.504  11.007 -0.0141 -0.0615  0.0521
32314W        W45728  13.987   2.420  16.322  0.0861 -0.3233 -0.3488
32315W        W45729   7.799   9.041  14.035  0.2608  0.1081 -0.1180
32316W        W45730   7.063   5.014   0.863  0.0524 -0.3445 -0.2146
32317W        W45731  16.705  18.357   6.173 -0.1248 -0.2143  0.2098
32318W        W45732   2.954   9.581  14.255  0.1684 -0.3495 -0.0464
32319W        W45733  12.771  13.843   3.530  0.0709 -0.2247  0.1325
32320W        W45734  15.254   0.805  14.123 -0.0634 -0.0950 -0.0568
32321W        W45735  13.711   7.788  11.409 -0.1191 -0.2703 -0.2075
32322W        W45736   7.820   3.943   1.477 -0.0988  0.3951 -0.1021
32323W        W45737   0.382  15.228   3.904  0.1151 -0.1073  0.0036
32324W        W45738  14.348   6.246   2.826  0.0178  0.3061  0.0377
32325W        W45739  11.351  14.943   6.145  0.0180  0.0287  0.2186
32326W        W45740   1.852  10.023   1.951 -0.2131  0.3203 -0.1515
32327W        W45741   4.913  13.412   4.453  0.2850 -0.1714  0.3398
32328W        W45742  13.737  13.337   3.907 -0.2820  0.1279 -0.0190
32329W        W45743   6.192  10.863   3.537  0.1109  0.0993  0.3823
32330W        W45744  12.676   8.954   3.411 -0.1025 -0.1404 -0.0455
32331W        W45745  15.966  13.343   5.426  0.4003 -0.0878  0.2053
32332W        W45746   5.086  12.082   2.208  0.2666  0.0196  0.0302
32333W        W45747   5.109  14.716   3.247  0.0571 -0.1902  0.2528
32334W        W45748   7.892   0.013  16.095  0.2319 -0.3606  0.0241
32335W        W45749  13.604   6.977  14.344 -0.0951  0.0663  0.2247
32336W        W45750   7.781   4.747   2.565  0.0260 -0.0558 -0.0246
32337W        W45751  15.830  15.031   3.204 -0.0451 -0.0960 -0.0062
32338W        W45752   3.090  13.860   5.738 -0.4367 -0.1032  0.0499
32339W        W45753   8.935   8.175  13.741 -0.1121 -0.0260  0.0575
32340W        W45754  16.490   4.788   2.306 -0.1643  0.0770 -0.0345
32341W        W45755   4.969   1.690   0.097  0.0090  0.3105 -0.1741
32342W        W45756  16.089   9.482  16.294  0.0740 -0.0795  0.1288
32343W        W45757   3.069  13.155  11.049  0.0047  0.2984 -0.1445
32344W        W45758  14.117   7.408   2.090 -0.2084  0.0338  0.0576
32345W        W45759   9.261  12.496  13.892  0.0848 -0.0907 -0.0560
32346W        W45760   6.472   9.711  10.558 -0.2516 -0.3403 -0.1563
32347W        W45761   2.694  16.903   2.960  0.1895 -0.0642 -0.1486
32348W        W45762   7.257   7.801   3.836 -0.1279  0.1863 -0.2078
32349W        W45763  12.884  12.071  11.819  0.2859 -0.0894  0.0114
32350W        W45764  11.045   6.128   5.285  0.2241 -0.0170  0.2847
32351W        W45765  16.242   9.262  13.448 -0.0721  0.1344 -0.2873
32352W        W45766  14.417   0.353  13.379 -0.1746  0.1886  0.0212
32353W        W45767   5.233   1.244  10.288  0.1097 -0.2313  0.1691
32354W        W45768   0.851  18.039   5.062 -0.2344 -0.0261  0.0732
32355W        W45769  15.076  18.081  13.030 -0.1271 -0.0834 -0.1651
32356W        W45770   8.001  12.661   4.567  0.0791  0.0492  0.0109
32357W        W45771   4.289   4.080  14.493  0.3628 -0.6361 -0.2038
32358W        W45772   3.602   8.517   2.724  0.1379 -0.0105  0.0980
32359W        W45773   5.891  18.375   5.346 -0.2244  0.1192 -0.0653
32360W        W45774  12.342   8.832   1.050  0.0294  0.0392  0.1660
32361W        W45775   8.146  13.249   0.344  0.1211 -0.2491 -0.1644
32362W        W45776   5.377  10.880   6.700  0.0773 -0.2177 -0.0873
32363W        W45777   2.414   8.921   6.007 -0.2439  0.3206 -0.3371
32364W        W45778  11.396   0.765  16.082 -0.2886 -0.2397  0.0750
32365W        W45779   9.382  12.653   0.865  0.0952  0.1135 -0.0003
32366W        W45780   5.196   6.860   3.294 -0.2255 -0.1137 -0.2108
32367W        W45781   3.505  17.493   2.487 -0.0368 -0.1016  0.0978
32368W        W45782  11.194   7.506  12.636 -0.1584  0.1672  0.0482
32369W        W45783   6.674   7.801   3.548 -0.0792 -0.2981  0.1613
32370W        W45784  16.739  18.126   0.641  0.0505 -0.1365 -0.0120
32371W        W45785   3.635   5.886  14.418 -0.0613  0.1813 -0.2232
32372W        W45786   2.436   4.210  10.867 -0.1147 -0.0084  0.1450
32373W        W45787  12.579   5.540   0.843 -0.3063 -0.2202 -0.3338
32374W        W45788   1.646   2.947   1.877 -0.1176  0.1128 -0.2253
32375W        W45789   3.516   5.943   0.174  0.3904 -0.3229 -0.3067
32376W        W45790   1.902  10.624   3.897  0.1097 -0.0566 -0.2987
32377W        W45791   9.195  17.597  16.121 -0.1853  0.2701 -0.0602
32378W        W45792   9.493   5.801  12.829 -0.1741  0.0257 -0.0680
32379W        W45793   5.794  16.407  12.893 -0.0888  0.0769  0.0401
32380W        W45794  12.063   0.120  15.147 -0.0921  0.1279 -0.1747
32381W        W45795   9.132   2.573   2.360 -0.0127  0.4421 -0.4381
32382W        W45796   1.338  16.327  13.935 -0.1665  0.0018 -0.1675
32383W        W45797   5.621   7.997   2.754  0.1736  0.0352 -0.2631
32384W        W45798  10.577   8.231   4.364  0.1109  0.3902 -0.0360
32385W        W45799  18.039   1.124  15.395 -0.1215 -0.1305  0.2499
32386W        W45800   9.428  12.926   4.523  0.0185 -0.0286 -0.2013
32387W        W45801  10.558   7.283  12.976 -0.2555  0.3228  0.4973
32388W        W45802  16.509   4.367   5.164  0.2039 -0.0256 -0.1010
32389W        W45803  11.360   3.753   2.337 -0.1236 -0.0622 -0.0366
32390W        W45804  17.704   8.183  10.285 -0.1857  0.0085 -0.4509
32391W        W45805   7.422   5.857  14.003  0.1608 -0.1239  0.2575
32392W        W45806  13.741   4.544  14.896  0.1508 -0.0754  0.1704
32393W        W45807  14.443  17.542   1.233  0.1570 -0.0335  0.2997
32394W        W45808   4.212   0.216  15.303  0.0998  0.0601 -0.0195
32395W        W45809  15.190  17.091   2.859  0.1309  0.0147  0.0223
32396W        W45810   7.003   0.074   5.479  0.0677  0.1199  0.2234
32397W        W45811  18.280   8.966   1.645  0.1448  0.1418 -0.1397
32398W        W45812   5.247   5.240  14.385 -0.0524  0.0045  0.1963
32399W        W45813  15.572  16.405  14.963 -0.2457 -0.0872  0.1764
32400W        W45814   6.744   5.233   3.480  0.1398  0.0898  0.1665
32401W        W45815   7.096   5.155   2.342  0.0446  0.2546 -0.3335
32402W        W45816  17.818  11.507   5.681 -0.1040 -0.1313  0.1483
32403W        W45817   2.702   0.680  13.467 -0.1281 -0.0606 -0.0636
32404W        W45818  12.996  10.379  12.054 -0.0621 -0.1109  0.1910
32405W        W45819   8.869  15.026   4.053  0.0904 -0.0573 -0.1187
32406W        W45820   6.928   7.104   0.153 -0.0674 -0.0966  0.1881
32407W        W45821   5.609  10.878   1.921  0.3890 -0.2661 -0.3712
32408W        W45822   1.008  15.889  11.768  0.2631 -0.2936  0.3769
32409W        W45823   4.055   8.581  10.587 -0.2212 -0.0800  0.3270
32410W        W45824  17.120   5.220  11.175 -0.1195 -0.0388 -0.1671
32411W        W45825  15.079  13.436   5.279  0.0076 -0.2488  0.0501
32412W        W45826   4.424  18.144   5.534 -0.0409  0.0929 -0.0087
32413W        W45827   4.025   6.794  15.608  0.0633  0.0010  0.0244
32414W        W45828   6.693  17.578   1.232 -0.0970 -0.0384 -0.0958
32415W        W45829   9.072   4.315   4.611 -0.2689  0.0951 -0.1051
32416W        W45830   6.509   8.490   4.901  0.1220 -0.0859  0.0390
32417W        W45831  13.243   9.490   1.727 -0.6708 -0.2569 -0.4039
32418W        W45832   3.828   6.208   2.889  0.1224 -0.0337 -0.3074
32419W        W45833   3.524  18.165   3.348 -0.0564  0.4183 -0.2289
32420W        W45834  10.373  11.335  11.934 -0.1203  0.1136  0.0562
32421W        W45835   7.595  18.342  10.416  0.0258 -0.0141  0.1595
32422W        W45836  15.924  12.687   1.399  0.0698 -0.3366 -0.0526
32423W        W45837  10.431   1.588   2.571  0.0292  0.1181 -0.1658
32424W        W45838  12.367  10.285   4.796 -0.1880  0.1925 -0.3562
32425W        W45839   5.621   7.464  14.103 -0.0175  0.5277 -0.0593
32426W        W45840  15.983  10.386   6.012  0.0817 -0.1474 -0.2089
32427W        W45841  13.067  16.756   6.205  0.2216 -0.3039 -0.2187
32428W        W45842   3.807   2.628  10.765 -0.0011  0.4156 -0.2066
32429W        W45843   0.144   1.080  15.728  0.2035  0.3804 -0.0541
32430W        W45844   8.710  14.016   4.153  0.0939  0.0970  0.0361
32431W        W45845   2.982   7.659   3.747 -0.0774  0.0134  0.0990
32432W        W45846   7.791  14.728  13.127  0.0657  0.2052 -0.2900
32433W        W45847   5.723  16.477  12.402 -0.0583 -0.2708 -0.0397
32434W        W45848  17.504   2.659  13.448 -0.1770 -0.3060 -0.2869
32435W        W45849   9.269   3.406  12.833 -0.2974  0.4291  0.4792
32436W        W45850   7.895   1.375   3.249 -0.2460  0.1232 -0.0989
32437W        W45851   0.034  10.095   5.146  0.1862 -0.0646 -0.0998
32438W        W45852  10.768   4.990   0.460  0.0098  0.2715  0.2101
32439W        W45853   2.224  10.145  13.700  0.3344 -0.2431 -0.0571
32440W        W45854  17.447   8.448  11.004 -0.2690  0.1153  0.1341
32441W        W45855  16.887  12.488   5.984 -0.0779  0.3239  0.0763
32442W        W45856   7.925  17.601   4.744 -0.0283  0.0500 -0.0149
32443W        W45857   2.881  17.311  13.506  0.0962 -0.2492  0.2406
32444W        W45858  14.753   3.439  15.623  0.1336  0.2853  0.0575
32445W        W45859   0.694   0.675   6.382 -0.0806  0.1241  0.0411
32446W        W45860   1.733  17.872   4.741 -0.2247 -0.2592  0.1085
32447W        W45861   0.984  12.225   3.645 -0.1960  0.2052  0.1685
32448W        W45862   1.969  15.842  10.277  0.0208  0.2231  0.1598
32449W        W45863   0.656  17.676  13.551  0.2577 -0.0757  0.1551
32450W        W45864   7.314  11.088  15.533  0.1643 -0.1219  0.3095
32451W        W45865  14.193   2.533  15.887 -0.2064  0.1885  0.2508
32452W        W45866  10.612   0.699   2.984  0.2073 -0.3734 -0.0698
32453W        W45867   5.789   5.285   4.312 -0.0987  0.0184 -0.0389
32454W        W45868  13.299  11.741  13.521  0.0841 -0.0144  0.0155
32455W        W45869   3.977  17.896   2.585  0.0233 -0.0301  0.1716
32456W        W45870  16.948  16.489   3.314  0.0004 -0.1681 -0.3725
32457W        W45871  18.163   6.077  10.421  0.1148  0.1221  0.0310
32458W        W45872  13.285  18.134   2.486  0.5132 -0.3665  0.1856
32459W        W45873   3.158  17.370  13.980  0.3282  0.3328  0.0270
32460W        W45874   5.464   5.657   3.868  0.0300  0.1716 -0.2738
32461W        W45875  15.618  11.590  10.602 -0.4445 -0.1806 -0.1456
32462W        W45876  15.834  16.698   5.405 -0.3679  0.1448 -0.0747
32463W        W45877  13.227  11.754   4.095  0.1670 -0.0910 -0.2324
32464W        W45878   0.741  17.026   2.613  0.0604  0.2949  0.2892
32465W        W45879   0.414   3.356   5.091 -0.0548 -0.3784  0.0026
32466W        W45880   0.504  11.991   1.070 -0.0101  0.0519 -0.2001
32467W        W45881  18.225  15.301  16.022  0.0171 -0.3404 -0.0051
32468W        W45882   3.867  15.778  13.335  0.0966 -0.0303 -0.0606
32469W        W45883  12.676   8.580  13.018 -0.3218 -0.0043 -0.0814
32470W        W45884  11.381  15.932   4.914  0.0402  0.1968 -0.0274
32471W        W45885  13.683   6.933   3.210  0.1989  0.2109 -0.2651
32472W        W45886  10.772  18.348   6.254 -0.0877  0.0682 -0.2772
32473W        W45887   2.365  16.082   3.951  0.2542  0.0252 -0.2019
32474W        W45888   8.050  14.888   0.661  0.2055  0.0148 -0.1753
32475W        W45889   4.355  11.719   1.106  0.0738 -0.0535 -0.0477
32476W        W45890   5.671   1.608  14.996 -0.0135 -0.0172 -0.0107
32477W        W45891   7.561  13.287   0.413 -0.0288 -0.1186  0.1003
32478W        W45892   1.037   1.447  13.131 -0.2952  0.2438  0.3202
32479W        W45893   0.355  17.242   3.020  0.2637 -0.1746 -0.0553
32480W        W45894   3.491  17.669  14.604  0.3509  0.1313  0.0824
32481W        W45895   6.866  10.830  10.932  0.0320  0.0552 -0.2259
32482W        W45896   2.061   6.675   3.282 -0.1733 -0.0650  0.3434
32483W        W45897   2.503  17.857   6.500  0.2276  0.1250 -0.2209
32484W        W45898   0.502  17.072  14.488  0.1473 -0.1276 -0.0959
32485W        W45899   4.691  16.154   0.689 -0.1824  0.2651  0.3430
32486W        W45900   1.687   5.566   4.505  0.2919  0.1431 -0.0393
32487W        W45901   6.097   7.195  14.021 -0.0942 -0.0860 -0.0838
32488W        W45902   9.663   3.032  14.648  0.0749 -0.3589 -0.0187
32489W        W45903  16.752   9.201   5.597  0.0101 -0.1288  0.1839
32490W        W45904   7.461   2.701  15.067  0.1897  0.2354  0.0684
32491W        W45905   9.224  16.045  16.483 -0.0382 -0.2068 -0.3033
32492W        W45906  11.166  11.549  14.173 -0.0337  0.1548 -0.2290
32493W        W45907   1.507  17.065  10.354 -0.1173  0.0048 -0.0287
32494W        W45908   6.103  17.235   5.140 -0.0581  0.3944  0.3689
32495W        W45909  11.643  16.211   5.945 -0.3840 -0.0204 -0.1826
32496W        W45910  11.930   5.088   3.945  0.1191  0.2413 -0.1663
32497W        W45911   8.183   8.785  12.035 -0.2531  0.1017  0.0549
32498W        W45912   1.732   3.098   3.824  0.0438  0.2408  0.0943
32499W        W45913   6.635   1.117  14.617 -0.0938  0.1300  0.0460
32500W        W45914   6.061  13.362  12.333  0.0757 -0.6062  0.0170
32501W        W45915   8.444  10.095   2.246 -0.0014  0.4318 -0.1318
32502W        W45916   1.888   3.632   4.950 -0.0105 -0.2389  0.1942
32503W        W45917  18.349   1.305   6.065  0.0338 -0.1684 -0.2227
32504W        W45918  14.230  15.787   1.642 -0.1629  0.2119  0.1095
32505W        W45919  15.075  15.805  13.884  0.0403  0.1207  0.4714
32506W        W45920   3.120  14.620  12.203 -0.2747 -0.0654 -0.1341
32507W        W45921   1.306  15.536  15.530 -0.2373 -0.3439 -0.0634
32508W        W45922   7.365  10.337  12.542 -0.0616 -0.0265  0.1187
32509W        W45923  11.967  12.629  11.302  0.2288 -0.0676  0.0098
32510W        W45924  16.405  12.501   6.115  0.0366 -0.0785  0.1546
32511W        W45925   0.425  10.408  12.794 -0.1819  0.0991  0.2003
32512W        W45926  13.463  11.541   0.931 -0.0895 -0.0339  0.0688
32513W        W45927   7.098  14.882   2.042  0.1481 -0.2571 -0.0220
32514W        W45928   4.334  10.582  13.044  0.2082 -0.0287  0.2856
32515W        W45929   9.710  10.167   2.569  0.1663 -0.3012 -0.3197
32516W        W45930   3.955   0.550   2.960  0.1365  0.0749 -0.0777
32517W        W45931   6.659   8.120   2.477 -0.0847  0.0909 -0.4042
32518W        W45932   5.049  15.526   4.488  0.0498 -0.2663  0.1727
32519W        W45933   8.110   5.809  10.451  0.0599  0.0433 -0.2130
32520W        W45934  10.361   5.557   1.218 -0.1933  0.0014  0.5763
32521W        W45935  15.421   2.554   3.864 -0.1722  0.2127 -0.0420
32522W        W45936   0.251  18.335   6.349 -0.2075  0.2823  0.2923
32523W        W45937  14.015  16.205   3.820  0.1521  0.0793  0.0608
32524W        W45938  15.517  12.177   0.564 -0.1548  0.1435 -0.1227
32525W        W45939  12.517  10.416   0.790  0.2020  0.1191 -0.0752
32526W        W45940   7.344   0.113  12.955  0.1004  0.1663 -0.3821
32527W        W45941   8.983  15.794   5.931  0.0535 -0.0313 -0.1579
32528W        W45942   9.808   7.935   1.460 -0.0053 -0.0269  0.2564
32529W        W45943  10.558  17.635   4.345 -0.1454  0.2246  0.0999
32530W        W45944   0.029   7.823   0.060 -0.3408 -0.1009 -0.4362
32531W        W45945   0.553  14.417   2.136 -0.1270 -0.1383  0.0291
32532W        W45946  11.077   4.196   2.217 -0.0047  0.2023 -0.1521
32533W        W45947   9.369  12.346  13.417  0.2691  0.0366  0.1774
32534W        W45948   3.201   0.423   1.113  0.0942 -0.3513  0.1971
32535W        W45949  12.289   4.484  13.431 -0.0898 -0.2460 -0.0083
32536W        W45950   8.661   2.004   1.862 -0.2062  0.0445 -0.1794
32537W        W45951  14.126  10.437   4.382 -0.3900 -0.2199 -0.0139
32538W        W45952   2.474   8.395   4.515 -0.2182 -0.3962  0.2866
32539W        W45953  11.715   5.109   0.722  0.0852  0.1325 -0.0097
32540W        W45954  12.163  14.778   1.533  0.2085  0.1223 -0.1141
32541W        W45955   2.131  17.638  12.449 -0.0791  0.1774  0.1939
32542W        W45956   9.583  12.375   6.573 -0.2182 -0.1944 -0.1478
32543W        W45957   0.308  17.487  14.240  0.2602 -0.3371  0.1119
32544W        W45958  17.124   1.112  12.648 -0.1464  0.1475 -0.0186
32545W        W45959   3.449   2.729  12.556  0.2362 -0.1404  0.1990
32546W        W45960   7.485  16.172   0.530  0.2185 -0.1405  0.2149
32547W        W45961   1.019  17.136  13.818 -0.2777  0.1677  0.1822
32548W        W45962   6.456   6.208   6.178  0.1201  0.1967 -0.2298
32549W        W45963  18.230   7.228   3.596  0.1127  0.1776  0.2010
32550W        W45964  15.141  10.307   3.471  0.1693 -0.0992 -0.2074
32551W        W45965  18.052  13.555  11.835  0.0653  0.2725 -0.1621
32552W        W45966   2.310   7.358   2.354 -0.0406 -0.1522  0.3024
32553W        W45967   5.156  17.306  13.692  0.0420 -0.1008 -0.1338
32554W        W45968   8.738   1.279  15.394 -0.0973  0.0725  0.1758
32555W        W45969  17.347   3.195  14.566  0.0826 -0.1025 -0.0989
32556W        W45970  11.622  17.560  11.999 -0.0080 -0.2311  0.1088
32557W        W45971   8.018  13.952   1.053 -0.0080  0.2155  0.0954
32558W        W45972  18.362  11.840  15.750  0.2443  0.3355  0.1331
32559W        W45973   3.810  17.490   6.464  0.0923 -0.0243 -0.1914
32560W        W45974   4.846  12.076  11.822 -0.0818  0.0349 -0.1712
32561W        W45975   0.016   7.475  11.051 -0.1065  0.1876 -0.2450
32562W        W45976  11.019   1.119  10.784  0.0235 -0.0797 -0.1534
32563W        W45977   7.984  17.981   3.258  0.0121  0.0217 -0.1898
32564W        W45978   2.308  10.295   2.039 -0.0302  0.0735  0.1568
32565W        W45979   3.099   8.989   0.501  0.0704 -0.2487  0.0873
32566W        W45980   5.247   8.371  11.949 -0.0638 -0.1856 -0.3298
32567W        W45981   2.357  10.755  14.845 -0.0507 -0.1060  0.1406
32568W        W45982   7.457  15.641   0.256 -0.0048  0.1908  0.0199
32569W        W45983   8.725  15.505   2.554 -0.1823 -0.0509 -0.1347
32570W        W45984   1.554   1.088  12.416 -0.3477 -0.1675  0.0682
32571W        W45985  11.737   7.615   2.915  0.0050 -0.2021  0.0500
32572W        W45986   5.508   7.413   1.598  0.1883  0.0590 -0.0235
32573W        W45987  11.529   7.133   4.290 -0.0650  0.0768  0.1053
32574W        W45988  14.602   9.218  13.192  0.0358  0.1924  0.2270
32575W        W45989   8.279   4.931  10.758  0.3224  0.0244  0.1290
32576W        W45990  14.748   1.731  13.732  0.0302 -0.2427 -0.0381
32577W        W45991  16.039   7.308  14.730  0.1228  0.0362  0.1105
32578W        W45992   7.694  11.365   4.246 -0.0574  0.1823 -0.1608
32579W        W45993  11.109   0.087   2.626 -0.0560 -0.0699  0.0482
32580W        W45994   3.825   0.623  12.909 -0.3629 -0.1150 -0.2436
32581W        W45995   3.182   4.016   1.105  0.1078 -0.0598 -0.0716
32582W        W45996   0.653   1.711   5.530  0.0903  0.1070 -0.0501
32583W        W45997  14.857  11.603   4.980  0.1157 -0.1120 -0.1787
32584W        W45998  13.211   2.786   4.873 -0.2099 -0.1102  0.1787
32585W        W45999  17.332   6.538  13.793  0.3125  0.4834  0.2161
32586W        W46000   4.511   0.254   5.841  0.0056  0.0402 -0.0602
32587W        W46001   7.399   9.175  14.869  0.0278 -0.0098 -0.1106
32588W        W46002  13.555  15.505   4.882 -0.1802  0.1532 -0.0082
32589W        W46003   4.847   0.845   0.292  0.2428  0.0415 -0.1687
32590W        W46004   6.221  15.123   4.534  0.2972 -0.0420 -0.1269
32591W        W46005   3.379  13.042   1.542 -0.1622 -0.0608 -0.0090
32592W        W46006   7.212  13.338  14.810 -0.0487 -0.1617  0.3701
32593W        W46007   5.800  12.976   6.002  0.3016 -0.4254  0.2343
32594W        W46008  13.108  17.236   4.075 -0.3190 -0.1251 -0.3000
32595W        W46009   6.521   9.145  11.236 -0.0478  0.1465 -0.3718
32596W        W46010   9.361   2.406  15.953 -0.1712 -0.1495  0.2361
32597W        W46011   9.978   9.343   5.045 -0.2655 -0.0041  0.1016
32598W        W46012  12.582  12.012  10.902 -0.0566  0.2186  0.1016
32599W        W46013   9.584  17.359   4.471 -0.0425  0.1243  0.1152
32600W        W46014  17.061  15.838  14.231 -0.0992 -0.2086 -0.2083
32601W        W46015  10.942   0.645  14.565 -0.1152  0.1294  0.0043
32602W        W46016   5.010  13.740   0.977 -0.2987 -0.3906 -0.0918
32603W        W46017  13.683   5.510   5.313 -0.3516 -0.3072  0.1534
32604W        W46018  10.556   8.830  14.559 -0.2038  0.1963 -0.2076
32605W        W46019   9.237   0.143   4.657  0.2943 -0.1156  0.2886
32606W        W46020  16.301  11.511   1.279  0.1683  0.2854  0.0329
32607W        W46021  16.514  13.617   2.914  0.0488 -0.2072  0.0267
32608W        W46022  13.141  17.321   1.200  0.2087  0.0038 -0.1647
32609W        W46023  12.278   4.179   2.228  0.1560  0.0452 -0.3478
32610W        W46024   5.786   2.946  15.964 -0.0190 -0.1904  0.0949
32611W        W46025  16.267   7.258  12.365  0.1122  0.0724  0.2253
32612W        W46026   8.181   6.840  10.561 -0.0614 -0.0254  0.2553
32613W        W46027  17.417   6.929  11.376 -0.2558  0.1745  0.0840
32614W        W46028   9.111  12.970  13.746  0.1650 -0.0346 -0.0875
32615W        W46029   8.646  16.155  11.087 -0.1421  0.0540 -0.2171
32616W        W46030   0.794   4.355  11.966 -0.3247 -0.0637  0.0107
32617W        W46031  10.680  17.318   1.047  0.1832 -0.1598 -0.0666
32618W        W46032   5.932   3.722   4.987 -0.0902 -0.0078  0.0028
32619W        W46033  11.798  14.972   5.940 -0.1083  0.0856  0.1834
32620W        W46034   1.323   6.354   5.990  0.0317  0.1478  0.1615
32621W        W46035  11.819  12.157   4.020  0.2217 -0.2400  0.1876
32622W        W46036  17.122  15.726   2.728 -0.0368 -0.1566 -0.0347
32623W        W46037   7.772   5.567  12.035  0.1167  0.1001 -0.0608
32624W        W46038   9.135   7.457  11.683 -0.2796  0.0708  0.1660
32625W        W46039   6.543  10.298  11.328 -0.0927  0.0249 -0.0586
32626W        W46040  18.316   6.513  14.538  0.1094  0.0120 -0.1485
32627W        W46041  12.337   5.778  10.443  0.1231 -0.2914  0.0114
32628W        W46042  10.068   1.821  16.077 -0.1412  0.2028  0.0628
32629W        W46043  10.310   5.614  11.162  0.0322  0.3472 -0.1778
32630W        W46044   9.372   0.345  15.389  0.3602 -0.0706  0.0479
32631W        W46045   8.318   6.071   3.491 -0.0335 -0.0799 -0.1642
32632W        W46046   6.449  16.868   5.368  0.2107 -0.3713  0.1491
32633W        W46047  13.499   1.904   1.726 -0.0088  0.1187  0.0757
32634W        W46048   3.649   8.898   0.259  0.0118 -0.4502  0.0696
32635W        W46049  14.308  15.104   0.328  0.1719  0.1528 -0.1787
32636W        W46050  18.393  14.669  16.331 -0.1709 -0.0630  0.1837
32637W        W46051   2.221  12.683   6.497 -0.5309 -0.1689 -0.0260
32638W        W46052   3.450  10.979   2.092 -0.6446 -0.0955 -0.0075
32639W        W46053   8.853  14.401  14.536 -0.1401  0.0784 -0.0539
32640W        W46054  10.573  13.722   1.442 -0.0412  0.3267  0.0223
32641W        W46055   3.583  16.663  12.957  0.2944  0.1610 -0.1789
32642W        W46056   3.244  12.389   6.405  0.0021  0.1103  0.1485
32643W        W46057   0.407   6.042   0.916  0.0708 -0.3520 -0.2320
32644W        W46058  17.077  17.221   2.705  0.0323 -0.0059 -0.1085
32645W        W46059  14.081  13.516   6.090  0.4888 -0.2932 -0.1903
32646W        W46060   6.700  15.610  12.546 -0.1835 -0.1891  0.2163
32647W        W46061   0.553  15.528   4.829 -0.3618  0.0782  0.1140
32648W        W46062   1.894  12.465  12.307 -0.0551  0.0188  0.0354
32649W        W46063  17.241  14.227  14.497 -0.0988  0.0646  0.1134
32650W        W46064   7.963   1.730  11.249  0.0293  0.1405  0.0820
32651W        W46065  15.613   3.567   4.606 -0.0762  0.1983  0.1348
32652W        W46066   3.695  15.290  15.388  0.0484 -0.0483  0.2542
32653W        W46067   8.253  17.777   0.625  0.0616 -0.0358  0.1762
32654W        W46068  15.196  16.377   1.785 -0.1135  0.0208  0.0866
32655W        W46069   2.100  12.526  15.882 -0.5090  0.1264  0.2693
32656W        W46070   6.025   3.057   1.550  0.2211  0.0438 -0.1785
32657W        W46071  17.560   1.829  15.539 -0.3727  0.1952  0.0850
32658W        W46072   2.101   2.751   0.343 -0.1028  0.0016  0.2205
32659W        W46073  13.149   4.212  14.457 -0.1013  0.3160 -0.0256
32660W        W46074   1.785   4.347   1.211  0.2391 -0.1593  0.2995
32661W        W46075   9.511  13.419   5.404  0.1602 -0.1647  0.0243
32662W        W46076  13.378  15.538  13.865  0.0894  0.1664  0.0932
32663W        W46077  10.129   1.762   4.959  0.4054  0.0163 -0.0011
32664W        W46078   4.740  15.643   4.110 -0.4121  0.0717  0.0190
32665W        W46079  15.719   0.375   3.486 -0.0377 -0.0510 -0.1564
32666W        W46080   1.399  15.262  14.875 -0.0310 -0.1585  0.1669
32667W        W46081   2.215   6.104   1.041  0.2632 -0.4586 -0.1092
32668W        W46082   6.022  11.050  15.033  0.1155  0.1940  0.0609
32669W        W46083  14.152   1.211  12.579 -0.2566 -0.1790 -0.0919
32670W        W46084   6.267  14.949  11.518  0.3846  0.0547 -0.0518
32671W        W46085  12.168   1.634   0.519 -0.3142  0.0121  0.0466
32672W        W46086   6.167  14.944   5.081  0.0845 -0.2952  0.2351
32673W        W46087  13.102  17.468  11.522  0.2407  0.4200 -0.1843
32674W        W46088  13.145   4.623   3.477 -0.1412  0.3342 -0.2006
32675W        W46089  16.659  15.703   5.227 -0.0745 -0.0267 -0.1834
32676W        W46090   4.626   5.087   1.857 -0.3393 -0.1722  0.2801
32677W        W46091   8.526  14.807  15.269  0.0299 -0.1021 -0.4673
32678W        W46092   2.234   3.077  15.746 -0.2883  0.0600  0.2035
32679W        W46093  14.481  16.353   3.884 -0.0770  0.3046  0.2014
32680W        W46094  13.466   0.409  11.170  0.1941 -0.0832  0.2452
32681W        W46095  12.310   4.216  15.449  0.0911 -0.2143 -0.0319
32682W        W46096   6.758   0.573  14.964 -0.1572  0.2177 -0.2693
32683W        W46097  10.660  11.143   1.405  0.1956  0.1939 -0.1311
32684W        W46098  14.751  15.313   0.283 -0.0356  0.1313 -0.0782
32685W        W46099   4.772   8.520  15.453 -0.3854 -0.0021 -0.0577
32686W        W46100   1.450  10.815   0.112  0.1157 -0.0249 -0.3533
32687W        W46101   1.833   0.468   4.877 -0.0298 -0.0501 -0.0253
32688W        W46102  17.164   0.114   3.287 -0.0355 -0.0092 -0.1358
32689W        W46103   2.133  11.713  12.378  0.2041 -0.0448  0.2698
32690W        W46104  13.407  11.560  12.691  0.0153 -0.1878 -0.2676
32691W        W46105  13.059   2.923  10.778  0.1632  0.1068  0.1142
32692W        W46106   5.651   0.484  10.550  0.0168  0.2239  0.2317
32693W        W46107   6.325  18.371   4.336 -0.0511  0.0155 -0.0425
32694W        W46108  13.080   7.119  10.924 -0.0852 -0.1371  0.1712
32695W        W46109  14.288   3.144  15.163 -0.0981  0.1292  0.0318
32696W        W46110   1.944  12.688   0.915 -0.0861  0.2550  0.0033
32697W        W46111  13.682  10.330   2.195 -0.2895 -0.2046 -0.0192
32698W        W46112   8.679   6.242  11.499 -0.1725  0.0517  0.1042
32699W        W46113  11.355  11.912  15.738  0.0178  0.0947 -0.2103
32700W        W46114   3.250   1.570   3.453  0.0682 -0.4406 -0.0979
32701W        W46115  16.087  16.880  12.404  0.0536 -0.0823  0.1326
32702W        W46116   7.518  12.097  11.007  0.2127  0.2088 -0.1917
32703W        W46117   8.898  16.983   2.305  0.1855 -0.0836 -0.1197
32704W        W46118  16.366   0.748  11.246  0.2289 -0.5560 -0.0404
32705W        W46119   5.634   1.469  16.327  0.1111  0.3881 -0.1776
32706W        W46120   3.588  14.193  11.890  0.0312 -0.1629  0.0192
32707W        W46121  11.937  12.219  12.704 -0.1278  0.1590 -0.2656
32708W        W46122  14.628   2.012   3.113  0.1884 -0.3442  0.1170
32709W        W46123  16.426   9.648  14.322 -0.0262 -0.0948  0.0192
32710W        W46124  17.005  11.067  15.704 -0.1084 -0.2333 -0.0406
32711W        W46125  18.180   0.513   5.387 -0.0800  0.3436 -0.1354
32712W        W46126   9.693  17.690   4.141 -0.0209 -0.0538  0.2363
32713W        W46127  14.960  15.252  11.265  0.0215  0.0230  0.0685
32714W        W46128  17.388  18.125  12.139 -0.2904  0.1120  0.0445
32715W        W46129   5.757  16.015  15.222  0.1976  0.2148 -0.2736
32716W        W46130  12.248  15.865   3.598 -0.0301  0.2289 -0.3180
32717W        W46131   7.245   3.970   1.313 -0.0379  0.4829  0.0816
32718W        W46132  11.790  10.961  14.103  0.2892  0.2201 -0.1967
32719W        W46133  16.239   9.607   1.950  0.0671  0.2068  0.2445
32720W        W46134   2.279  16.289  12.907 -0.1340 -0.0033 -0.0349
32721W        W46135   3.423   9.911  10.719 -0.0568  0.0105 -0.0114
32722W        W46136  16.557   1.463   2.173 -0.0436  0.0117 -0.1201
32723W        W46137  13.533  16.940   1.070 -0.0821 -0.2508 -0.1079
32724W        W46138   7.116   6.175  16.183  0.0938  0.1982 -0.1701
32725W        W46139   6.517   0.708  13.910  0.1214  0.1644 -0.1681
32726W        W46140   3.983  12.626   0.803 -0.1879 -0.1429 -0.1533
32727W        W46141  18.328  13.944  11.908  0.1578  0.4555 -0.0859
32728W        W46142  11.900  12.656   2.485  0.1209  0.2390 -0.3750
32729W        W46143   9.138   9.746   4.005  0.1238 -0.0746 -0.0668
32730W        W46144   2.007  13.373   3.159  0.2097 -0.3148  0.2019
32731W        W46145   8.827   4.519  12.371  0.2635  0.1608  0.0877
32732W        W46146  11.454  10.851  11.522  0.2153 -0.0033  0.2917
32733W        W46147  13.312   8.855   4.674 -0.0123 -0.0916 -0.1435
32734W        W46148   3.176  10.792   1.708 -0.2047  0.0924 -0.1587
32735W        W46149   2.901   8.900  11.387  0.0255  0.1452  0.1458
32736W        W46150   5.994   3.136  12.983 -0.3573 -0.0896 -0.2054
32737W        W46151  13.170   7.743   5.078 -0.0481 -0.3463 -0.4645
32738W        W46152   6.141   2.582   3.081  0.2520  0.0757  0.0356
32739W        W46153   1.920  14.308  13.033  0.2821  0.1077  0.2580
32740W        W46154   3.814  18.394  16.339 -0.1098  0.1385 -0.0341
32741W        W46155  12.325  18.104   0.457  0.2082  0.3105 -0.0391
32742W        W46156  16.248   3.804  13.114  0.0376 -0.2271  0.3098
32743W        W46157  13.259  16.626   0.707  0.0069  0.2715 -0.0424
32744W        W46158   4.851  14.219   3.894  0.0305  0.3790 -0.0247
32745W        W46159   1.872  14.801  15.505  0.1068 -0.2087  0.1502
32746W        W46160  14.944   6.308  13.455 -0.0058 -0.2122 -0.1696
32747W        W46161   2.108   5.605   0.793  0.1812  0.0307  0.0686
32748W        W46162   0.915  14.545  14.403  0.3202 -0.0904  0.0460
32749W        W46163   4.215   4.737  13.858  0.0051 -0.2673 -0.4161
32750W        W46164   4.819  13.077   0.373  0.0214  0.0046  0.4492
32751W        W46165   5.911  10.854   5.811 -0.0929 -0.3413  0.1860
32752W        W46166  12.844   0.945  14.171  0.0183 -0.0826  0.1488
32753W        W46167  16.993  18.103  13.078  0.0478 -0.4296  0.1732
32754W        W46168  17.344  11.368   5.410  0.0979  0.0054  0.1920
32755W        W46169   1.555  16.575  16.431  0.1097  0.2160  0.0269
32756W        W46170   4.884  16.529   5.519 -0.0415 -0.0145 -0.0003
32757W        W46171  15.791  17.291  12.281 -0.0698 -0.0745  0.3695
32758W        W46172   4.891   5.801  10.076 -0.1903  0.1762  0.0455
32759W        W46173   3.692  13.967  12.970 -0.1301  0.0017  0.0725
32760W        W46174  16.952   9.296  13.131 -0.1863 -0.2956 -0.1008
32761W        W46175  11.093  16.633  12.870 -0.4758  0.2237 -0.0809
32762W        W46176   9.054   9.297   3.249  0.0598 -0.0257 -0.0057
32763W        W46177   0.629  11.984  10.881 -0.1559 -0.3566  0.1928
32764W        W46178  10.780  10.376   4.994 -0.0809  0.0202  0.2884
32765W        W46179  13.277  10.697   2.229  0.0386 -0.0158  0.1643
32766W        W46180   9.505   2.334   2.001  0.0427  0.1488  0.1250
32767W        W46181   5.457   4.205   3.693  0.1093 -0.0477  0.0669
32768W        W46182   5.586  14.800  16.151  0.0605  0.3612 -0.1230
32769W        W46183   4.581  18.252   0.302  0.1142 -0.0138  0.1075
32770W        W46184   4.292   9.744   3.474 -0.1003  0.1336  0.1394
32771W        W46185  16.636  17.772  13.738  0.5362 -0.1019  0.3521
32772W        W46186  11.792  16.065   3.430  0.2489 -0.0118  0.2458
32773W        W46187  13.382   8.682   3.841  0.1574 -0.3956  0.1496
32774W        W46188  17.524  15.411   5.001  0.0963 -0.0499  0.0568
32775W        W46189  17.076   1.238  11.340 -0.1981  0.4436 -0.2134
32776W        W46190  13.710  13.453  13.269 -0.0930 -0.0223 -0.0667
32777W        W46191  13.896  13.892  13.423  0.2881  0.2052  0.0738
32778W        W46192  18.362  18.177   5.956 -0.2421  0.0335 -0.2597
32779W        W46193  15.320  14.872  14.681  0.2202 -0.2725 -0.2875
32780W        W46194  10.852   4.639  16.418 -0.1109  0.3808 -0.1135
32781W        W46195  17.846   3.906  11.466 -0.0905 -0.2277  0.2218
32782W        W46196   0.026  12.664   3.300 -0.3010 -0.1574 -0.0568
32783W        W46197  18.173   7.593   3.951 -0.1457 -0.0691  0.2508
32784W        W46198   5.156   4.930  14.764 -0.1731 -0.2891 -0.1040
32785W        W46199  15.998   3.845  13.702  0.2733 -0.4299 -0.3354
32786W        W46200   5.307   6.617  15.000  0.3838 -0.2461 -0.2258
32787W        W46201   3.304   0.935  14.560 -0.1352 -0.2971 -0.0395
32788W        W46202  10.467  15.161  13.400  0.0742 -0.0224  0.0726
32789W        W46203  17.661  15.487  14.741 -0.3093 -0.0939  0.1393
32790W        W46204   6.198   1.220  10.999  0.2225 -0.1236  0.3110
32791W        W46205   1.260  16.284  15.995 -0.1169  0.0161 -0.3163
32792W        W46206   9.510  17.818  14.224  0.2196 -0.2267  0.1607
32793W        W46207   0.977  16.049   2.781  0.0912  0.3216 -0.2139
32794W        W46208   4.423   3.393  16.137  0.0395  0.1416 -0.2145
32795W        W46209   2.090   2.665   1.867  0.0835  0.1548  0.0460
32796W        W46210  10.388   7.217  15.409  0.1026  0.2192 -0.3371
32797W        W46211  16.547  18.341  10.788  0.1582 -0.4256  0.2149
32798W        W46212   6.626   9.104   1.006 -0.2605 -0.3225  0.0627
32799W        W46213   4.260   2.330  12.826  0.0741 -0.1769  0.0386
32800W        W46214  17.987  12.523   5.292 -0.2225 -0.0296  0.3606
32801W        W46215   6.152   8.262   1.057  0.0048 -0.1689 -0.3845
32802W        W46216  12.441  13.731  11.002 -0.0604 -0.2745  0.0973
32803W        W46217   4.673  11.227   2.206 -0.0337 -0.0837 -0.4232
32804W        W46218  14.823   1.187   4.105 -0.1986 -0.0257  0.0454
32805W        W46219  12.944  18.081   1.546  0.1639 -0.1552 -0.2354
32806W        W46220   0.896   4.859   4.274  0.2519  0.0466 -0.1740
32807W        W46221   6.503   7.634   2.325  0.4530 -0.0874  0.4185
32808W        W46222   2.904   6.321  14.159  0.1704  0.0407 -0.0026
32809W        W46223  15.633   1.971  14.577 -0.1259  0.0735 -0.0473
32810W        W46224   6.747  10.611   1.812 -0.1634 -0.3750 -0.1486
32811W        W46225   1.055   9.244  12.668  0.1721 -0.0952  0.2265
32812W        W46226   6.993   7.679  13.654  0.0717  0.2537  0.0634
32813W        W46227   6.878  12.036  12.458  0.1876 -0.0932 -0.3059
32814W        W46228   8.421  16.537  13.102 -0.0517 -0.2788 -0.0299
32815W        W46229   2.097  16.163   5.528 -0.0279  0.2651  0.0549
32816W        W46230  13.722  15.305  14.292 -0.4611 -0.2643 -0.0226
32817W        W46231   8.520   3.448  13.148  0.0794 -0.2586  0.0300
32818W        W46232   9.009   3.793   3.811 -0.4386 -0.1764  0.1258
32819W        W46233   8.235   1.189   3.850 -0.0883  0.1501 -0.2731
32820W        W46234   1.860  10.706   0.475 -0.1978 -0.0586 -0.1119
32821W        W46235  11.175  15.078   1.677  0.0546  0.1196  0.0375
32822W        W46236  11.626   6.533  15.999 -0.0993  0.0282  0.2292
32823W        W46237  17.904  15.965   6.024 -0.0531  0.0588 -0.1437
32824W        W46238  15.616   5.231   0.404 -0.2325  0.0466 -0.3728
32825W        W46239  11.806  10.451   4.441 -0.1347 -0.3028  0.2431
32826W        W46240   0.163  12.306  14.156 -0.1054  0.1031  0.1376
32827W        W46241   5.643   0.220  14.667  0.2108  0.0182 -0.0435
32828W        W46242   8.764   1.282  12.192 -0.0442 -0.1291  0.1135
32829W        W46243  16.017   9.405  11.547  0.0843  0.1367 -0.0657
32830W        W46244  14.076   1.931  11.010  0.1492 -0.1977  0.0995
32831W        W46245  12.977  16.411   2.979  0.0552  0.1315 -0.0559
32832W        W46246   0.751   3.699   3.287  0.5653  0.1317 -0.0591
32833W        W46247   9.784   1.606   4.454  0.1400 -0.0735  0.1921
32834W        W46248  11.056   8.510   4.534  0.0243  0.1330 -0.1599
32835W        W46249  11.679  16.321   5.436  0.0883  0.4114 -0.0390
32836W        W46250   0.559  10.732  10.665  0.4220  0.2738 -0.1736
32837W        W46251  13.843  15.616  13.767  0.1620 -0.1704 -0.0523
32838W        W46252   3.465   0.072  14.659  0.3662 -0.3169 -0.1025
32839W        W46253  16.493   6.631   9.960  0.2974  0.4091  0.1728
32840W        W46254   7.717  16.002  13.757 -0.0198  0.1526  0.1652
32841W        W46255  14.031  16.017  15.654  0.0191  0.1497 -0.1024
32842W        W46256   6.624   9.703   4.718 -0.0601 -0.1637  0.3443
32843W        W46257  15.338   5.669  16.187  0.1784  0.1016  0.1847
32844W        W46258  10.591  12.357  11.292  0.0359  0.0408  0.0925
32845W        W46259   8.676  12.688  10.857  0.0865  0.3174 -0.1537
32846W        W46260   4.834   2.075  11.408 -0.1845  0.0736 -0.1647
32847W        W46261  12.280   3.767   1.439  0.2776 -0.0022 -0.2401
32848W        W46262  15.823   2.377  11.554 -0.0892  0.0955  0.2672
32849W        W46263   8.404  13.567   1.222  0.1545  0.1409  0.2991
32850W        W46264  12.891  16.955   3.148 -0.1107 -0.0951  0.0764
32851W        W46265   1.169  12.203  16.319  0.0331  0.0344  0.0363
32852W        W46266  15.759   3.614   5.093  0.0515 -0.0083  0.1641
32853W        W46267  14.559   7.430  15.198 -0.1079  0.2720 -0.1577
32854W        W46268   7.862   2.283  16.463 -0.0821 -0.0679  0.0057
32855W        W46269   1.981  12.066  14.262 -0.4395 -0.0226 -0.3316
32856W        W46270   4.525   8.605  14.148 -0.0180 -0.1068 -0.0259
32857W        W46271   8.464  14.772   4.864  0.0600  0.1370  0.2072
32858W        W46272   1.648  12.773  14.411  0.4292  0.1856  0.0984
32859W        W46273  13.421  16.080  12.557  0.1763  0.0711  0.2393
32860W        W46274   1.297  12.965  12.370  0.2905 -0.0538  0.1159
32861W        W46275   4.934   0.589   5.702  0.2370  0.0321  0.2169
32862W        W46276   7.987  12.864  14.494  0.1740 -0.1704 -0.3016
32863W        W46277  18.395   3.977  16.292  0.0891  0.1622 -0.2420
32864W        W46278  11.304   6.269   0.753  0.1526  0.0055  0.0272
32865W        W46279   3.270   3.560   1.312  0.4593  0.1178  0.2804
32866W        W46280   8.779   8.363   5.716  0.1254 -0.0977 -0.0015
32867W        W46281   7.209  17.806   4.803  0.0397  0.2210  0.1802
32868W        W46282  15.098   5.346  10.857  0.3245 -0.0961  0.0125
32869W        W46283   1.135   9.856  15.767 -0.1749  0.1936 -0.1495
32870W        W46284   4.162   1.496   3.014  0.5940  0.1473 -0.0559
32871W        W46285  13.471   0.752  11.512  0.2960  0.1053 -0.1150
32872W        W46286   2.366   3.733  11.726 -0.0683 -0.2663 -0.1539
32873W        W46287  12.765  11.995   0.376 -0.1448  0.2240  0.0353
32874W        W46288  16.222  10.536  14.214 -0.2627 -0.0800  0.3617
32875W        W46289   0.373  18.295  14.629  0.0634 -0.0189  0.0760
32876W        W46290   2.631   4.760   9.916 -0.1054  0.3123 -0.0901
32877W        W46291  11.019  12.507   5.126 -0.0997 -0.2091 -0.1982
32878W        W46292   6.299   2.163  10.967 -0.0890 -0.1714 -0.1658
32879W        W46293   3.829   8.620   3.798 -0.1768  0.0587  0.2456
32880W        W46294   7.418   4.725   2.212  0.4060  0.1130  0.1189
32881W        W46295  16.195  10.908   1.937 -0.1261 -0.1310 -0.2464
32882W        W46296   5.770   9.161  13.769  0.0271  0.1829 -0.1671
32883W        W46297   2.408   8.960  11.403 -0.1799  0.1683  0.2093
32884W        W46298   0.242  10.366  10.608 -0.2328 -0.1077  0.0090
32885W        W46299  14.444   5.798  12.408  0.0160  0.2005  0.1807
32886W        W46300  10.404   3.791  15.257  0.2065 -0.0426  0.0523
32887W        W46301  14.996   9.812   2.610 -0.0929 -0.1245 -0.1336
32888W        W46302   6.554   1.548  14.910  0.1812  0.0973  0.2296
32889W        W46303  11.108  13.028  11.223  0.1269  0.2959 -0.4001
32890W        W46304  10.488   1.493   3.567 -0.1136  0.0822 -0.0837
32891W        W46305   1.347   7.840   0.115 -0.0913 -0.0709 -0.0460
32892W        W46306  13.329   9.909  12.284 -0.0415 -0.1461  0.1205
32893W        W46307  11.022   3.151  11.704  0.2804  0.0270 -0.0105
32894W        W46308   6.774  10.935   1.199 -0.0176  0.1982 -0.2304
32895W        W46309   9.304  16.095  13.140  0.1813 -0.1172  0.0864
32896W        W46310   8.951   4.130   9.969 -0.3411  0.3386  0.1325
32897W        W46311   4.712   3.085  12.497 -0.2540  0.1763  0.1633
32898W        W46312   6.447   7.224  11.268  0.1973  0.0360 -0.2176
32899W        W46313   3.994   9.403  12.330 -0.2277  0.2256  0.0703
32900W        W46314  16.784   4.769   3.249 -0.1683 -0.0777  0.0450
32901W        W46315   1.356   6.440  14.740 -0.1981 -0.3347  0.0061
32902W        W46316  15.927   3.832   3.646  0.0705 -0.1063  0.0622
32903W        W46317  16.830   4.176  11.530  0.2350 -0.1139 -0.0820
32904W        W46318  12.410   3.512   2.606  0.0509  0.1619 -0.1055
32905W        W46319   3.262   8.444   3.088  0.0191  0.0019  0.2248
32906W        W46320   7.492  16.466  12.621 -0.5196 -0.2253  0.0933
32907W        W46321   6.020  13.795  11.964 -0.1773  0.0553  0.4378
32908W        W46322   3.533   7.648  15.867 -0.1446 -0.1359  0.2702
32909W        W46323   5.819  10.868   4.751 -0.0458  0.2246 -0.0575
32910W        W46324   7.055  16.408   0.342  0.0248  0.5811 -0.1812
32911W        W46325   3.561  15.704  13.988 -0.2289  0.0914  0.0010
32912W        W46326   9.315   0.531  11.652  0.1163 -0.0215 -0.3159
32913W        W46327  11.768  16.737  13.886 -0.1396 -0.1241 -0.0993
32914W        W46328   9.852   3.576  12.571 -0.1446 -0.0823  0.1566
32915W        W46329  16.511   9.649   5.865  0.0364 -0.0312  0.3534
32916W        W46330   8.933  16.852   0.848  0.1270 -0.2196 -0.0431
32917W        W46331  15.313   4.818   3.792  0.0537 -0.0670  0.5837
32918W        W46332   2.919   5.565   1.027 -0.0518  0.4194  0.0204
32919W        W46333   8.916   8.435  14.839  0.0395  0.1863 -0.1717
32920W        W46334   6.704   4.269  11.911 -0.1912 -0.1131 -0.4486
32921W        W46335   1.794   0.525   5.711  0.6771  0.0193  0.1716
32922W        W46336  10.771   5.685   1.682  0.4452  0.1105 -0.1306
32923W        W46337   6.253   1.749  15.241 -0.1347 -0.2137  0.0180
32924W        W46338   9.741   7.096  12.535  0.4961 -0.1718 -0.0439
32925W        W46339  10.940  10.132   2.945 -0.0118  0.1166 -0.1285
32926W        W46340  15.452  15.530  12.110 -0.1383  0.3094 -0.0528
32927W        W46341  15.012   0.717  10.883 -0.0082  0.0631  0.1132
32928W        W46342   0.555   7.880  16.196 -0.2281 -0.0293 -0.1854
32929W        W46343  15.507   8.407  16.296  0.0429 -0.3276  0.3259
32930W        W46344   4.795   2.717   2.315  0.0325 -0.1934  0.1771
32931W        W46345  14.763   7.188  10.140  0.2793  0.0196  0.1964
32932W        W46346  11.745   2.570  16.190 -0.2245 -0.3192 -0.2310
32933W        W46347  13.207   6.188  10.601 -0.1666 -0.2006 -0.0484
32934W        W46348   6.371   3.395  16.444  0.0926 -0.2920 -0.1572
32935W        W46349   5.989  15.417   0.185 -0.1394  0.3151 -0.1585
32936W        W46350  11.214   5.848   1.514  0.2243 -0.0296  0.4507
32937W        W46351   1.970   1.232  13.263 -0.0028 -0.0309  0.4238
32938W        W46352   0.001   4.814  11.148  0.0130  0.3151  0.0796
32939W        W46353   1.644   8.021  15.574 -0.0018  0.1779  0.4688
32940W        W46354   4.641   3.538  12.327  0.0051 -0.0652 -0.0932
32941W        W46355   2.486   5.426   2.460 -0.0469 -0.0866  0.1354
32942W        W46356  13.066   4.461   0.717  0.0733  0.3202  0.0959
32943W        W46357   3.320  18.207   6.478  0.2184  0.2474 -0.1713
32944W        W46358   8.133   7.670   4.133  0.0626 -0.0776 -0.0305
32945W        W46359   5.784   1.508   4.548 -0.0862 -0.0689 -0.3364
32946W        W46360   9.048   6.736  11.406  0.3802 -0.1362  0.0517
32947W        W46361   3.637   8.204   2.245  0.1904  0.2787 -0.2891
32948W        W46362   7.214   9.545   4.208 -0.1232 -0.2267 -0.2251
32949W        W46363  13.143  15.356  16.210 -0.4191 -0.1278 -0.1695
32950W        W46364  11.353  12.777   1.044 -0.4565 -0.2891  0.0626
32951W        W46365  15.172   5.138   4.448 -0.1815  0.0198 -0.1205
32952W        W46366   0.296  15.321   7.137 -0.0736  0.1652  0.0411
32953W        W46367  15.513  14.914   6.375  0.0654  0.0684  0.0062
32954W        W46368   5.452  11.550  16.412  0.3986  0.0136 -0.1048
32955W        W46369  17.993  16.273  12.352 -0.3495 -0.0043 -0.1061
32956W        W46370   0.637   8.112  12.736  0.0951  0.1154  0.1428
32957W        W46371  17.846   3.489   4.968  0.2092  0.1618 -0.0136
32958W        W46372   0.631   8.702   1.759 -0.1995  0.2704  0.1474
32959W        W46373  18.270   8.083  13.067 -0.1941  0.0048 -0.3060
32960W        W46374   0.345  16.271   0.658  0.1559 -0.0899 -0.2312
32961W        W46375   4.805  12.624  15.757 -0.0019  0.0882  0.0901
32962W        W46376   4.530   1.660  11.520  0.0966  0.1097  0.2322
32963W        W46377  10.922  12.513   2.471 -0.1228 -0.1010  0.0357
32964W        W46378  12.984  15.270   4.920 -0.0152 -0.3113  0.1534
32965W        W46379  12.188   4.098   3.722  0.2968 -0.0903  0.1274
32966W        W46380  16.854   7.012  16.004 -0.1276  0.1223 -0.3750
32967W        W46381  12.898   7.621  14.019 -0.1416  0.1724 -0.1477
32968W        W46382  15.742   9.972   4.978  0.0404  0.0618 -0.0417
32969W        W46383  15.443   8.025   3.697 -0.0607 -0.1057 -0.2566
32970W        W46384  18.343   4.640  14.294  0.2629 -0.4616 -0.0546
32971W        W46385   2.972   8.718  10.933 -0.2872  0.1993  0.2081
32972W        W46386  13.232  14.360  13.521 -0.0602  0.1267  0.3469
32973W        W46387  17.907   6.343   2.772 -0.2464 -0.1681 -0.0176
32974W        W46388  16.995  16.544   4.300  0.1942  0.0503 -0.1802
32975W        W46389   1.196   3.590  14.852 -0.0324 -0.1045  0.1572
32976W        W46390   1.649  14.198   4.888  0.2385  0.2239  0.2310
32977W        W46391   1.863   3.991  16.190 -0.1121 -0.3759 -0.1128
32978W        W46392   5.545  12.413   3.168 -0.1502 -0.3294  0.1768
32979W        W46393   8.485  13.600  12.534 -0.1593 -0.1263  0.0363
32980W        W46394   5.447  16.137  13.094 -0.0101  0.1814 -0.0120
32981W        W46395   9.033   9.656   2.908  0.1924 -0.1834 -0.0421
32982W        W46396   7.747   2.662  14.627 -0.2992 -0.4317  0.2099
32983W        W46397   5.334   5.776  15.049  0.2079  0.0734 -0.2310
32984W        W46398  10.239   3.605   1.916 -0.2660 -0.1236 -0.1332
32985W        W46399   9.274  10.664   3.963 -0.1213 -0.0894 -0.0813
32986W        W46400   6.732  14.015  16.219  0.2697 -0.3045  0.1476
32987W        W46401   5.131  12.080  11.049 -0.0566 -0.0382  0.0554
32988W        W46402  11.218   3.082  14.538 -0.0129  0.1083  0.1570
32989W        W46403   6.576   8.271   1.907 -0.0972  0.0000 -0.0898
32990W        W46404   8.308   0.385  11.291 -0.0814  0.2636 -0.0484
32991W        W46405   0.246  17.419  14.734  0.0844 -0.5343 -0.1662
32992W        W46406   1.295  13.705   1.090 -0.1708 -0.3706 -0.2071
32993W        W46407   0.606   0.895   5.278  0.2322 -0.0757  0.3256
32994W        W46408   2.017  15.139   4.344  0.3171  0.3507  0.1223
32995W        W46409   1.195  12.097  13.432 -0.0189 -0.0912  0.2722
32996W        W46410  14.115   4.100   5.944  0.2236  0.1755  0.0444
32997W        W46411   5.913   3.635   4.045 -0.1026  0.2602 -0.0028
32998W        W46412  15.541   3.298  15.037 -0.3053  0.3228  0.0281
32999W        W46413  14.756   3.518   1.915 -0.4069 -0.3507 -0.2889
33000W        W46414   4.877   6.422  13.186 -0.1087  0.0373 -0.0151
33001W        W46415   0.388  18.265   4.895  0.1208  0.1376 -0.0165
33002W        W46416   3.696   0.657   2.258  0.0131 -0.3040 -0.2891
33003W        W46417   7.493  16.054  14.224  0.0715 -0.0480  0.1934
33004W        W46418  15.025   7.469   1.767  0.0408 -0.2843  0.2573
33005W        W46419   3.137   2.766  14.941 -0.1777 -0.0024  0.0163
33006W        W46420   4.559   7.978   3.734 -0.0209  0.1320 -0.0260
33007W        W46421   0.819  10.413   1.117 -0.0738 -0.0942 -0.0048
33008W        W46422  11.348  15.753   1.077  0.4326 -0.0240  0.1797
33009W        W46423   1.134   3.905   4.715  0.0013  0.0119 -0.1981
33010W        W46424   3.855  12.269  16.142 -0.0661  0.0933 -0.1629
33011W        W46425   2.288  16.289  15.241 -0.1077  0.1392  0.3813
33012W        W46426  13.257   5.716  15.904 -0.2186  0.0831 -0.4344
33013W        W46427  13.042   5.533  12.200 -0.0382  0.2345  0.3497
33014W        W46428  12.042   0.366   2.582 -0.4244 -0.0271 -0.1180
33015W        W46429   1.884  11.982  11.210  0.2699  0.1377 -0.3336
33016W        W46430  16.876  15.113  12.458  0.0466  0.1405  0.0347
33017W        W46431   1.268   8.295   2.716 -0.1401 -0.0103  0.3530
33018W        W46432  12.008  11.085  14.645  0.1890 -0.3921 -0.0859
33019W        W46433   0.327  12.625   5.032  0.1981  0.1529  0.0208
33020W        W46434  16.112   8.942  13.000 -0.2790  0.1417 -0.1661
33021W        W46435  16.274   7.923   1.730 -0.0392 -0.0549  0.1525
33022W        W46436   8.775  10.120   2.700  0.0087  0.0011 -0.1397
33023W        W46437  15.395   6.653  11.925  0.2397  0.2307 -0.3893
33024W        W46438   6.702   2.186   3.442  0.0045 -0.1603 -0.2003
33025W        W46439  17.101   4.868  12.880 -0.1177  0.1336  0.0332
33026W        W46440  18.227   8.829  11.303  0.1271 -0.0707  0.0628
33027W        W46441   4.040   1.096  13.195 -0.2440 -0.0449  0.1501
33028W        W46442   0.384  15.303   3.045  0.2197 -0.1063 -0.1681
33029W        W46443  18.101   2.605   0.935  0.3366  0.0291 -0.0394
33030W        W46444  14.253   4.821   1.421 -0.1422 -0.1059  0.0816
33031W        W46445   8.099   4.614   4.719 -0.2195  0.0438 -0.2095
33032W        W46446  16.082   6.049   0.896 -0.1934  0.1883  0.1700
33033W        W46447   8.572   2.944   0.869 -0.0258 -0.0812 -0.1713
33034W        W46448   7.994  15.148  13.226  0.0812  0.1188  0.1593
33035W        W46449   1.853  11.509  15.449  0.1572  0.0639  0.0393
33036W        W46450  12.001   6.531  13.981  0.0056  0.3440 -0.0804
33037W        W46451   9.836  16.822   4.581 -0.0202  0.0147 -0.1277
33038W        W46452  13.369   5.814  12.698 -0.2042 -0.4306  0.1276
33039W        W46453   8.424  17.583   4.801 -0.2658  0.0345 -0.1780
33040W        W46454   7.524  13.029  12.777 -0.3110 -0.4406  0.0040
33041W        W46455   5.416  16.370   4.042 -0.0243  0.1873 -0.1434
33042W        W46456   8.752  17.339  11.737  0.0174  0.1552 -0.0348
33043W        W46457  14.818  12.867  14.440  0.3673 -0.0227  0.2024
33044W        W46458  10.310  13.587   2.490  0.2669 -0.0274  0.1890
33045W        W46459   9.957   2.137   0.926 -0.1105 -0.0686 -0.0188
33046W        W46460  12.416  13.551   3.043 -0.1949  0.1341  0.3319
33047W        W46461  15.018   8.173  15.053 -0.0330 -0.0256 -0.0490
33048W        W46462  16.089  14.359   4.675  0.0149  0.0841 -0.3263
33049W        W46463   3.527   4.374  14.816  0.1552  0.1727  0.1469
33050W        W46464  18.380   8.392  14.753  0.0131 -0.1635  0.0602
33051W        W46465  18.007  10.440  12.539 -0.1729  0.0784  0.1405
33052W        W46466   2.478   2.486   3.849 -0.1111 -0.3056  0.0547
33053W        W46467  16.732  14.274   4.802  0.0102 -0.1182  0.2504
33054W        W46468  14.721  11.227   2.997  0.0298 -0.1155  0.3842
33055W        W46469  13.479  17.260   4.434 -0.0655 -0.0713 -0.1088
33056W        W46470  17.153  17.744  14.363  0.0114 -0.2344 -0.0926
33057W        W46471   3.114  12.371  14.996 -0.0759 -0.0162  0.1746
33058W        W46472  15.060   0.851   2.734  0.4880  0.3028 -0.1582
33059W        W46473   9.233  15.615   0.765  0.0793 -0.0876 -0.1756
33060W        W46474  14.121   0.718  15.925 -0.1225  0.0317 -0.1092
33061W        W46475   4.500  17.738  13.933  0.1616  0.2057 -0.1617
33062W        W46476   1.028   9.468   2.811 -0.0786  0.0638 -0.1849
33063W        W46477   7.207   7.944  16.102 -0.0566  0.4499  0.2746
33064W        W46478  17.211  12.037  11.185 -0.1202  0.1628 -0.1157
33065W        W46479   2.886   6.195  12.936  0.0367  0.0445 -0.2142
33066W        W46480  12.053   6.041  12.491 -0.2445 -0.2055  0.1272
33067W        W46481  13.771  12.696  11.561  0.3186  0.0612 -0.1392
33068W        W46482  10.851   0.435  11.718 -0.1446 -0.0370 -0.1139
33069W        W46483  16.311  15.704  15.761 -0.0208  0.0246 -0.1961
33070W        W46484  13.407   7.703  16.167 -0.0133 -0.1716 -0.0166
33071W        W46485   9.469   0.617  16.481 -0.3305  0.1447 -0.1980
33072W        W46486  16.729  16.900  14.109  0.0043  0.0401 -0.0015
33073W        W46487   0.845  14.948  11.555  0.5152  0.0420 -0.2777
33074W        W46488  16.076  11.394  15.961  0.1664  0.1894  0.2113
33075W        W46489   4.536  10.901  15.565  0.3248  0.0566  0.0400
33076W        W46490   9.911   9.252  16.258  0.0613  0.1463 -0.1033
33077W        W46491   2.100  12.311  13.821  0.1233 -0.1958 -0.1257
33078W        W46492   9.279   8.659  15.233 -0.1284 -0.1221 -0.1874
33079W        W46493  14.601  13.071   0.493  0.5154  0.1994 -0.0239
33080W        W46494   0.128  13.901  12.509  0.1181  0.1076  0.0323
33081W        W46495  13.579   0.631  16.012 -0.0121 -0.0721  0.0139
33082W        W46496   7.506   2.094   0.378  0.1428 -0.0765  0.2097
33083W        W46497  18.063   6.348  12.838  0.4053 -0.1175 -0.1144
33084W        W46498  10.544   5.575   4.909  0.0649 -0.0514  0.2855
33085W        W46499  13.629  15.923  14.099 -0.1980 -0.1138  0.0046
33086W        W46500  11.962  18.324  10.907 -0.0417 -0.2820  0.1328
33087W        W46501   0.580  12.671  13.397 -0.1205  0.1008 -0.7266
33088W        W46502  10.434   8.696   1.526  0.1488  0.1191 -0.1352
33089W        W46503  12.403   7.310   2.738  0.1556  0.1628 -0.3756
33090W        W46504  12.531   7.306  12.726 -0.1258 -0.0820 -0.1213
33091W        W46505  16.606  10.380  16.478 -0.1363  0.3572 -0.1744
33092W        W46506  10.506  10.362  13.910 -0.0577 -0.0124 -0.0048
33093W        W46507   3.919  17.269   2.001 -0.2249  0.1559  0.0393
33094W        W46508   0.297   6.142   5.552  0.0778 -0.0708  0.1511
33095W        W46509   6.460   8.610  16.493 -0.0847  0.0342  0.1263
33096W        W46510   7.062   8.742  14.773 -0.1919 -0.5208  0.3117
33097W        W46511   6.931  18.126  15.839 -0.2587 -0.1121 -0.2114
33098W        W46512  10.767   2.586   1.214 -0.0081  0.1832  0.0736
33099W        W46513   9.897  12.570   0.609  0.0249 -0.0523 -0.1757
33100W        W46514  10.842   2.046   4.156  0.0767  0.1830  0.2193
33101W        W46515   3.103  13.836  15.825  0.0719  0.3000  0.2702
33102W        W46516   4.848  13.052   0.847  0.0390 -0.0952  0.1679
33103W        W46517  17.461  11.370  15.511  0.1541 -0.3322  0.1144
33104W        W46518  15.990   9.596   3.989  0.2927 -0.1389 -0.1317
33105W        W46519   3.202   9.306   2.608 -0.1148 -0.1421  0.0996
33106W        W46520  11.070   9.636   2.788  0.2602  0.1497  0.2483
33107W        W46521  16.748  15.687   4.712 -0.1352  0.0526  0.0707
33108W        W46522   5.054  15.435  11.707 -0.1590  0.0938  0.0225
33109W        W46523   5.399   0.010  10.822 -0.0207 -0.0119 -0.0730
33110W        W46524  14.088   3.868  11.789  0.2021  0.0931  0.0464
33111W        W46525   1.518   6.148  12.007  0.1869  0.0115 -0.0654
33112W        W46526  15.770   5.180  10.527  0.0480  0.1500  0.0957
33113W        W46527   3.623   0.661   0.858 -0.2000  0.1945  0.3485
33114W        W46528   0.753   4.052  11.092 -0.0451 -0.2230 -0.0708
33115W        W46529  12.238   8.416  15.417  0.1456  0.1391  0.1019
33116W        W46530  18.076   0.158  14.382  0.1677  0.2526 -0.0843
33117W        W46531   8.057   6.377  11.518  0.0190 -0.0705  0.0570
33118W        W46532  18.271   4.439   0.859  0.1988 -0.1128 -0.1066
33119W        W46533   9.419  13.003   2.956  0.0844  0.3800  0.2272
33120W        W46534  13.737  17.434   4.015  0.1505 -0.2868  0.1005
33121W        W46535   3.458  17.142   0.346 -0.2074 -0.0435 -0.1668
33122W        W46536   5.414  11.874   4.522  0.1272 -0.1291  0.0776
33123W        W46537   0.255  10.965   9.717  0.3080 -0.1981  0.1004
33124W        W46538   0.863   0.579  14.662 -0.2050  0.0638 -0.1680
33125W        W46539   7.487  12.667   2.845 -0.0885  0.1164  0.0015
33126W        W46540  14.989   5.435   4.834 -0.3454  0.0102  0.2857
33127W        W46541  15.170   1.861  12.198 -0.1583 -0.0962  0.1251
33128W        W46542   3.272  16.211  14.618  0.0186  0.0869  0.0324
33129W        W46543   8.085  15.390   5.341  0.1346  0.0343  0.1869
33130W        W46544   8.657   3.289   2.429  0.1715 -0.1016 -0.2205
33131W        W46545   6.910   2.424   3.835  0.1851  0.3407 -0.1453
33132W        W46546   7.894   9.863  14.529 -0.1080 -0.1552 -0.2035
33133W        W46547   2.265   9.219  13.628 -0.6238  0.1084  0.3592
33134W        W46548   4.313   6.885   4.393 -0.0253  0.2272  0.0647
33135W        W46549   4.520   2.158   0.604 -0.1209 -0.2889  0.2818
33136W        W46550   2.059   6.670   1.759 -0.3532  0.1227 -0.0798
33137W        W46551   3.954   8.396   3.192 -0.1997 -0.1286 -0.1917
33138W        W46552  13.760   3.423   5.621  0.0140  0.1529  0.0986
33139W        W46553   8.902   8.866  10.297  0.2453 -0.0067 -0.0515
33140W        W46554  12.028   3.731   5.286  0.2241 -0.3362  0.1036
33141W        W46555   2.880   0.424  15.957  0.2696 -0.0658  0.0269
33142W        W46556   1.473  15.277   2.502 -0.0005 -0.1700  0.2668
33143W        W46557   9.268  18.288   2.455  0.1274 -0.0911  0.1196
33144W        W46558   8.200  14.897  14.457 -0.2123 -0.1885  0.1323
33145W        W46559  11.230   8.944  14.619  0.0822  0.2154  0.1982
33146W        W46560  10.445  12.879  11.232 -0.4890  0.2933  0.3157
33147W        W46561   2.312  16.033  11.541 -0.0680 -0.1047 -0.4355
33148W        W46562   3.846   1.419  16.261  0.0689  0.0767  0.2174
33149W        W46563   8.032  11.006   0.765 -0.2193 -0.1960  0.0685
33150W        W46564   2.483  18.058  16.500 -0.2665 -0.1989  0.0016
33151W        W46565  10.795   4.941  10.642  0.1514 -0.0483  0.3079
33152W        W46566   4.255  18.308   2.518  0.1239 -0.0546  0.0784
33153W        W46567  12.551   5.582  11.903 -0.1039  0.0821 -0.0169
33154W        W46568  14.507  11.494  14.779 -0.3665  0.2231  0.0560
33155W        W46569   4.963   3.734   1.472 -0.1597 -0.0463  0.3423
33156W        W46570  11.297   4.773  10.763  0.1142 -0.0366  0.0840
33157W        W46571   9.464   3.502  14.491 -0.0998 -0.4680  0.0566
33158W        W46572   0.241  12.822   1.364  0.0487 -0.0187 -0.0858
33159W        W46573   2.124   5.324   4.661  0.1151 -0.1870  0.0319
33160W        W46574  18.024   4.167   4.566  0.0392  0.2355  0.0630
33161W        W46575  14.067  10.037   2.787  0.2966  0.2617 -0.0569
33162W        W46576   7.245  18.008  12.823  0.2118 -0.1195  0.0388
33163W        W46577   7.648   9.907   0.668  0.2332  0.2549 -0.1922
33164W        W46578   6.373   2.184  11.475  0.3091 -0.0318  0.0667
33165W        W46579   5.058  15.689  15.862  0.0447 -0.1598 -0.1606
33166W        W46580   7.932  14.232  13.972 -0.3477 -0.1999  0.1098
33167W        W46581  16.588  15.410   2.218 -0.3275  0.2780 -0.0566
33168W        W46582  17.810   8.447   5.955 -0.2272 -0.2666 -0.0186
33169W        W46583  10.790   8.388  10.814  0.2679 -0.2562  0.0496
33170W        W46584   9.656   3.204  11.261  0.0161 -0.2385 -0.2225
33171W        W46585   9.262  16.463   0.183  0.1635 -0.0844 -0.0379
33172W        W46586   1.751   3.780   2.359  0.1403  0.2213  0.0939
33173W        W46587  16.973   6.781   3.738  0.3111  0.5157  0.0144
33174W        W46588   1.466   7.536   9.826  0.0828 -0.1129 -0.3522
33175W        W46589  15.231   6.016   0.470 -0.2970 -0.0430  0.1110
33176W        W46590   4.056   4.523   3.745  0.0576  0.3205 -0.1165
33177W        W46591  14.152   9.910   0.487 -0.2949 -0.0288  0.3011
33178W        W46592  11.531   6.013   2.170 -0.3599  0.0377 -0.0568
33179W        W46593   1.201  15.017   0.641  0.1020 -0.1526 -0.3071
33180W        W46594  14.482   5.361  10.801 -0.3005  0.0782 -0.0100
33181W        W46595   3.351   7.059  13.108 -0.0803 -0.0743 -0.1608
33182W        W46596   6.514   6.360  14.925 -0.0399  0.3137 -0.2118
33183W        W46597  15.537   8.599  14.495 -0.0478 -0.1775 -0.0070
33184W        W46598   5.443   9.855  12.159 -0.1131  0.4064 -0.0041
33185W        W46599  10.118   4.233   0.221 -0.1276 -0.1114  0.1248
33186W        W46600  14.243   3.698  13.672  0.1313  0.0438 -0.3256
33187W        W46601   7.436  14.242  14.756 -0.3961  0.2313 -0.2876
33188W        W46602   1.958  17.079   3.098  0.1943 -0.1631 -0.0946
33189W        W46603  16.932   6.577   2.110  0.2556 -0.1127  0.1551
33190W        W46604  16.654   0.460   5.548 -0.1482  0.1326 -0.2335
33191W        W46605   8.383  16.489   0.571  0.1305 -0.2744  0.1277
33192W        W46606  16.591   4.778  14.548 -0.1374  0.0349  0.1062
33193W        W46607   6.306  14.736   1.340  0.3222  0.0436  0.4132
33194W        W46608  16.552   7.123  10.080 -0.0771  0.0337 -0.2048
33195W        W46609  11.507   3.971  13.646  0.0995 -0.1161 -0.1413
33196W        W46610  17.164   4.033   4.855 -0.4215 -0.1737  0.2525
33197W        W46611  13.329   1.113   1.370  0.0886  0.0151 -0.3679
33198W        W46612  10.423   7.748  13.067  0.3629  0.1740 -0.4658
33199W        W46613  12.655  17.673   5.857 -0.2559 -0.1707 -0.2347
33200W        W46614   4.163   6.163  14.254 -0.0350 -0.0714 -0.0620
33201W        W46615  13.532   1.324  13.858  0.0913 -0.4263  0.2695
33202W        W46616   5.908   7.683   4.749 -0.1688  0.0066  0.3544
33203W        W46617  17.131  15.211  13.739  0.0278  0.1808  0.0704
33204W        W46618  15.474  12.066   4.189 -0.0965 -0.2377 -0.1490
33205W        W46619   5.852   0.411  15.062  0.0988 -0.0927  0.3127
33206W        W46620  12.547   2.181   3.624 -0.3563 -0.0517  0.0082
33207W        W46621   2.678   5.795  14.962 -0.3220 -0.1689  0.0514
33208W        W46622   2.780   4.244   2.268 -0.3743 -0.1925 -0.1435
33209W        W46623  10.710  13.374  13.318 -0.1005  0.1309 -0.1486
33210W        W46624   1.051  16.048   6.160 -0.1466  0.0171  0.2678
33211W        W46625  18.163   1.090  12.005  0.1176  0.3178  0.1276
33212W        W46626  16.923   6.879  10.271 -0.1350  0.1906  0.1089
33213W        W46627   4.967   9.573   1.487 -0.2267 -0.3271  0.2690
33214W        W46628   5.885  13.144  11.125 -0.0290 -0.3440 -0.0752
33215W        W46629   5.445  11.685   5.947 -0.2008 -0.0201  0.2528
33216W        W46630   3.327   2.805  15.918  0.0967 -0.1750  0.2312
33217W        W46631   8.691   4.623   4.135 -0.2713  0.1395  0.4198
33218W        W46632  11.580  11.348   1.370 -0.3674  0.0347  0.0320
33219W        W46633   1.106  18.390  11.213 -0.0882 -0.1103 -0.1514
33220W        W46634   0.718  12.460  15.922  0.0233  0.0874  0.1174
33221W        W46635  11.875   1.448   3.880  0.0909 -0.1923 -0.1887
33222W        W46636  11.245   6.674   3.198  0.2084  0.1491 -0.0787
33223W        W46637   1.600  17.958  15.384  0.0637  0.0093  0.1246
33224W        W46638  10.863  13.588   3.735  0.0245 -0.0170 -0.0716
33225W        W46639  13.728  12.983   6.294 -0.0870  0.0062 -0.4359
33226W        W46640   1.268   7.310   0.117 -0.0063  0.3438  0.3075
33227W        W46641   5.392  17.309  10.827 -0.1880  0.2888  0.1374
33228W        W46642   7.461   2.234  14.200  0.0141  0.1057  0.0705
33229W        W46643   1.890   7.982  13.402  0.2400  0.0910  0.0019
33230W        W46644   1.035  11.611  12.891  0.1866 -0.1528  0.0282
33231W        W46645  13.039  16.877   5.271  0.0674 -0.0935  0.1458
33232W        W46646  10.245   1.755   0.652 -0.1075 -0.0304 -0.2722
33233W        W46647   3.023   7.494  12.505  0.0001 -0.0282  0.0835
33234W        W46648   2.704   4.904   1.517  0.3990  0.0339  0.2068
33235W        W46649  13.416   1.624   1.185 -0.4578  0.1426  0.0621
33236W        W46650  16.975   7.168  13.201 -0.0993 -0.0836 -0.2371
33237W        W46651  16.556   5.828   3.792  0.2752 -0.0304 -0.1387
33238W        W46652  10.008  14.012   5.044 -0.0344  0.0830 -0.1076
33239W        W46653   3.790  18.372  11.485 -0.2796  0.1252 -0.0095
33240W        W46654  13.231   6.791   9.395  0.2900 -0.1599 -0.3358
33241W        W46655  14.850   4.962   4.867  0.1433  0.1050 -0.1255
33242W        W46656   8.135   2.163  14.596  0.1066  0.3224 -0.2639
33243W        W46657  17.195  11.368  12.820  0.0616 -0.3012  0.2678
33244W        W46658  10.724  15.037  15.365  0.0805 -0.2601  0.2947
33245W        W46659  15.384  15.646   2.415 -0.1536  0.0283  0.0458
33246W        W46660   8.127   5.850   4.404  0.0719 -0.1789 -0.0620
33247W        W46661   7.404  14.554  15.180  0.1493  0.1578 -0.2264
33248W        W46662   8.894   3.944   0.465  0.0492 -0.0256  0.1844
33249W        W46663   1.483   2.274  12.755 -0.0915 -0.0625  0.1055
33250W        W46664  12.090  13.036   2.099 -0.0744  0.1454 -0.3015
33251W        W46665  10.663  17.094   4.447 -0.1270  0.1276 -0.2276
33252W        W46666  13.771   8.418   4.338 -0.0337  0.0035 -0.1699
33253W        W46667  16.617   9.252  11.116  0.0522  0.0639  0.0240
33254W        W46668  15.660   6.819  10.497  0.1146  0.1511 -0.0104
33255W        W46669   1.025   0.040   0.170  0.1962 -0.0372 -0.0173
33256W        W46670   4.208  14.033   2.462  0.0301 -0.0779 -0.0289
33257W        W46671  14.895  16.776   0.008 -0.0654  0.0853  0.0514
33258W        W46672   0.258  17.816  12.779 -0.0060  0.0667  0.1720
33259W        W46673  11.525   0.881  11.441 -0.2065  0.0082  0.1609
33260W        W46674  12.687  16.444   6.089  0.2009  0.0275  0.0763
33261W        W46675   2.865   3.344   4.683  0.3147 -0.0864  0.0944
33262W        W46676  10.268  10.470  13.118 -0.2771 -0.1501  0.1469
33263W        W46677  12.211  15.565  15.598  0.0713 -0.0262 -0.0463
33264W        W46678  11.940   0.187  13.857 -0.1264 -0.0716  0.0331
33265W        W46679  11.835  11.847   6.698  0.0977 -0.1318  0.0362
33266W        W46680  17.722  16.126  12.780  0.1653  0.2715 -0.2097
33267W        W46681  15.841   3.595  15.931 -0.0740  0.2947 -0.0515
33268W        W46682   3.902  14.274  13.296 -0.0502  0.0398  0.1862
33269W        W46683   7.820   5.504  15.971  0.0560  0.0460 -0.0431
33270W        W46684  11.217   9.122  15.118 -0.0219 -0.0156  0.1338
33271W        W46685   7.661  15.761   0.657 -0.1709  0.1841 -0.0963
33272W        W46686   1.068   5.211  13.034  0.2656 -0.1598 -0.4940
33273W        W46687   9.143   6.052  12.992 -0.1661 -0.2921 -0.1714
33274W        W46688   7.173  14.896   0.482 -0.1636 -0.0305  0.0014
33275W        W46689  15.616   5.926   0.770 -0.0373 -0.1666 -0.2026
33276W        W46690   2.440  11.329   3.366 -0.3309  0.2046 -0.3870
33277W        W46691  13.132  12.360   0.553 -0.0231  0.1082 -0.0794
33278W        W46692   7.386   0.540  16.029  0.1383  0.1961  0.0090
33279W        W46693   8.112   2.255   4.856  0.2887  0.0186  0.2463
33280W        W46694  16.185  17.629  13.632 -0.3658  0.0466 -0.3261
33281W        W46695  14.598   8.973   3.486  0.2703 -0.1913  0.0667
33282W        W46696   9.804  10.701   3.338 -0.4669  0.1413 -0.0286
33283W        W46697  14.031  14.024  10.624 -0.0129  0.1048 -0.3461
33284W        W46698   6.314  15.959   0.890 -0.3800 -0.2775  0.0837
33285W        W46699  11.488   8.789   3.834 -0.1852 -0.1050  0.2934
33286W        W46700  15.565  10.331   2.718  0.4235  0.0890 -0.1617
33287W        W46701  10.877  14.488   3.572  0.2360  0.1557  0.2222
33288W        W46702   2.897  11.945  12.645 -0.0225  0.0813 -0.0146
33289W        W46703  17.878   6.287  15.329  0.1464  0.1112  0.0677
33290W        W46704  16.397   5.532   5.359 -0.2516  0.1221  0.2648
33291W        W46705  15.866   6.343   1.230  0.1995  0.0796 -0.1425
33292W        W46706  17.621  11.460   1.835 -0.2893  0.1576 -0.2539
33293W        W46707  13.704  12.435  15.184 -0.2221 -0.1752  0.1016
33294W        W46708   1.667   6.562  15.682  0.0322 -0.2048  0.0001
33295W        W46709  15.777   1.812  12.140  0.4052  0.0745  0.3104
33296W        W46710  11.670   3.966   5.590  0.3092  0.0603  0.1346
33297W        W46711   3.126   1.686   1.499 -0.1026  0.0970 -0.1530
33298W        W46712   8.343  16.821   4.353  0.1363  0.2047 -0.0383
33299W        W46713   7.410   2.750   5.872  0.1394 -0.0841 -0.0080
33300W        W46714  15.071   4.346  10.406  0.0613 -0.0339  0.0134
33301W        W46715   6.671  18.143  13.825  0.2113  0.3349  0.2285
33302W        W46716   8.552  11.288  13.443  0.0726  0.1650  0.1165
33303W        W46717   4.908   5.598  16.344 -0.1054  0.0552 -0.4654
33304W        W46718   3.491  13.194  11.359 -0.0265  0.0117  0.0482
33305W        W46719   0.275   5.591  13.746  0.1841 -0.0843  0.1356
33306W        W46720   0.897  10.803   0.203  0.2248  0.2034 -0.3232
33307W        W46721  18.203   1.520   4.031  0.3092 -0.0460 -0.1513
33308W        W46722   5.881   6.706  14.339  0.2195  0.1126  0.0934
33309W        W46723  11.302  12.379   0.579 -0.3243 -0.2454  0.0387
33310W        W46724  11.757  16.049  12.246  0.1737 -0.0346 -0.0862
33311W        W46725  12.175   9.308  12.869  0.0192  0.1445  0.0324
33312W        W46726   5.674   1.358  10.051  0.1416  0.0370 -0.2651
33313W        W46727  17.670  12.722   2.889  0.1183 -0.1361 -0.2657
33314W        W46728  13.251   5.881   5.440 -0.0274  0.1726 -0.0302
33315W        W46729   3.609  10.841  13.537 -0.2039  0.0727  0.1219
33316W        W46730   5.228  18.162  15.203 -0.1142 -0.1403 -0.0293
33317W        W46731  15.539  11.373  13.956 -0.2094  0.1327 -0.1758
33318W        W46732   1.111   0.427  12.162  0.1128 -0.1671  0.0351
33319W        W46733   6.913  16.962   5.375  0.0506  0.1599 -0.0258
33320W        W46734   5.339   1.013   6.630  0.3406  0.2020  0.1625
33321W        W46735   3.293   5.880  10.980 -0.3507 -0.2246 -0.0473
33322W        W46736   3.009  12.489  12.093  0.0420  0.1663  0.0034
33323W        W46737   0.340   3.139   4.269  0.1361 -0.3248 -0.0562
33324W        W46738  11.354  14.443  11.597  0.3136  0.2127  0.0766
33325W        W46739   7.909  16.756  12.986  0.0861  0.0516 -0.0583
33326W        W46740  12.033  16.786   4.950 -0.1610  0.1059 -0.0742
33327W        W46741  18.152   8.692   2.161  0.0267 -0.0336  0.0888
33328W        W46742  18.131  14.267   1.462  0.2665  0.2644  0.2097
33329W        W46743  17.339  13.788   3.678  0.1603  0.0514 -0.1339
33330W        W46744  11.930   7.762   0.543 -0.2005  0.3566  0.1319
33331W        W46745  15.110   0.086  12.191  0.1653 -0.0425  0.0555
33332W        W46746  14.349   1.776   0.604 -0.1715 -0.1598  0.3837
33333W        W46747   9.846   9.424  14.319 -0.0124  0.1151  0.3417
33334W        W46748  11.985  13.716  11.513  0.2362  0.1199 -0.2019
33335W        W46749  11.825  17.378  13.160 -0.1942  0.1157  0.1613
33336W        W46750   8.507  13.729   5.931 -0.2649  0.1735 -0.0654
33337W        W46751  15.237  12.576  14.209 -0.1570 -0.1440  0.0499
33338W        W46752   6.980  13.625   4.724 -0.0065 -0.1748  0.1842
33339W        W46753  11.836  14.162  12.474 -0.2565 -0.0001  0.0690
33340W        W46754   1.761  15.216  12.631  0.2286 -0.0468 -0.1287
33341W        W46755   1.335   0.367   5.700  0.3721 -0.0437 -0.0663
33342W        W46756  17.711   9.700  12.873  0.0602  0.0189  0.2102
33343W        W46757   3.546   2.230   1.930  0.3193 -0.0284  0.0492
33344W        W46758  18.158  17.657   6.504 -0.4811  0.1097  0.0459
33345W        W46759  16.433   2.663   5.473  0.0596 -0.0058 -0.0404
33346W        W46760   4.100   7.437   4.264 -0.1692 -0.1046  0.3275
33347W        W46761   3.626  18.309   5.597  0.0618  0.2611  0.2963
33348W        W46762   9.752  13.784  16.479 -0.1412  0.3030 -0.1311
33349W        W46763  18.037   0.052   1.865 -0.1417 -0.0060 -0.3062
33350W        W46764   8.682   0.312  14.675  0.3800 -0.1323  0.0671
33351W        W46765  18.288  16.702   6.237  0.0182 -0.1065 -0.3078
33352W        W46766  16.723  10.275   1.369  0.1675 -0.0542 -0.3461
33353W        W46767  12.801  14.486  15.405  0.0401  0.0424 -0.2316
33354W        W46768  16.897   8.918   0.661 -0.1268  0.1399  0.1188
33355W        W46769   0.062   8.116   2.398 -0.0205  0.1043 -0.0636
33356W        W46770  16.576   3.933   2.169 -0.1469 -0.2229  0.2151
33357W        W46771   8.228   6.090   4.964 -0.2536 -0.2730  0.2496
33358W        W46772  11.110   5.199  12.215 -0.0793 -0.0552 -0.0574
33359W        W46773   3.176  14.386  11.760 -0.4590 -0.0257 -0.2550
33360W        W46774   4.398  10.803   5.217 -0.2621 -0.0875  0.0093
33361W        W46775   0.882   3.025  10.657  0.2648  0.2815  0.0277
33362W        W46776  14.656   5.280   4.462  0.0479  0.0599  0.3919
33363W        W46777  10.292   2.172  16.418 -0.2535 -0.1101  0.0526
33364W        W46778  13.419  14.776   1.082  0.0748 -0.1459 -0.1432
33365W        W46779  14.316   9.005  10.735  0.0260  0.1962 -0.0914
33366W        W46780   5.010   9.857  12.613 -0.1544  0.0134 -0.1400
33367W        W46781   5.965   1.480   6.148 -0.0684  0.1563  0.0342
33368W        W46782  17.732   7.109  15.613  0.3350 -0.1123  0.0165
33369W        W46783   0.132   7.747   0.582  0.2619  0.2990 -0.3783
33370W        W46784   8.890   7.032  16.305  0.1896 -0.2245  0.4067
33371W        W46785  15.829  11.582  10.164 -0.4219  0.2592 -0.2248
33372W        W46786   3.627   1.996  13.231  0.1354 -0.0719 -0.1065
33373W        W46787  16.736  11.329  12.860  0.3646 -0.1766  0.0263
33374W        W46788  12.157  10.216   4.179  0.0241  0.0235  0.0258
33375W        W46789  12.322  17.058   2.178 -0.0426 -0.1708  0.2343
33376W        W46790   5.178  16.576   2.362 -0.1435 -0.1207  0.1378
33377W        W46791   0.716   5.993  15.660  0.1708 -0.0076 -0.1426
33378W        W46792  10.892  11.622   4.061 -0.2290 -0.0578 -0.0708
33379W        W46793   6.638  15.300  11.395  0.1646  0.3097  0.2843
33380W        W46794   4.411   2.006   5.672 -0.0429  0.1233 -0.0427
33381W        W46795  13.781   6.974   2.625  0.0784  0.1409 -0.2383
33382W        W46796   1.756  16.342   6.427  0.2589  0.1285 -0.1542
33383W        W46797  13.889  15.473   4.521 -0.0710 -0.2042 -0.0034
33384W        W46798   3.457  14.803   3.575  0.1635  0.2410  0.2888
33385W        W46799  15.460   3.501   5.516  0.1949  0.1718 -0.1454
33386W        W46800  15.064   4.195   3.263 -0.1676 -0.0379  0.1634
33387W        W46801   2.425   6.645  10.783 -0.0824  0.0299 -0.0424
33388W        W46802  13.430   6.940  10.368  0.0320  0.0092  0.3039
33389W        W46803  16.004   7.588  16.211 -0.1776 -0.2548 -0.0116
33390W        W46804  16.617   3.416   3.471  0.2155  0.1088 -0.1901
33391W        W46805   3.541   8.843  14.102 -0.1580  0.1128  0.1258
33392W        W46806   6.674  11.694  13.841 -0.1982 -0.1713 -0.1459
33393W        W46807  12.489   5.498  10.829  0.1293  0.0957  0.4128
33394W        W46808   2.538  10.462   5.144  0.1491 -0.2926 -0.0714
33395W        W46809  12.357   3.033   0.268  0.1461  0.0979  0.1323
33396W        W46810  12.021   3.230   3.698  0.2590 -0.0107 -0.2262
33397W        W46811  10.583   3.155   2.971  0.0824  0.1561  0.1226
33398W        W46812  11.708  11.525  15.583  0.1026  0.0543  0.2802
33399W        W46813   7.925   5.882   3.102 -0.6402  0.2479 -0.0761
33400W        W46814   3.300   6.347  13.831 -0.0118 -0.0526 -0.0951
33401W        W46815   8.978  11.595   4.154 -0.6067  0.1502 -0.1992
33402W        W46816   2.023   3.407   1.614 -0.0692  0.0295  0.2540
33403W        W46817   9.807   8.484   4.110 -0.4515  0.3428 -0.0080
33404W        W46818   9.995   0.616  16.349 -0.0589  0.0704 -0.1226
33405W        W46819   3.456   2.905   3.284  0.1109  0.1501  0.0077
33406W        W46820   4.898   0.643   3.991 -0.0245 -0.0432 -0.0703
33407W        W46821   2.176  18.205   1.878 -0.0229 -0.1238 -0.1735
33408W        W46822  10.319  14.397  12.514 -0.2155  0.3070 -0.0601
33409W        W46823   6.177   4.852  11.346 -0.1321  0.4323 -0.2035
33410W        W46824  17.090   7.415  10.272 -0.0410 -0.2440  0.0861
33411W        W46825   7.786  10.897  11.191 -0.2790  0.0659 -0.2131
33412W        W46826  16.085  14.907   0.408  0.3315  0.1137 -0.1068
33413W        W46827  15.042   5.676   5.328 -0.0951  0.2007 -0.0522
33414W        W46828  13.567  10.588  14.923 -0.2675  0.1507 -0.0517
33415W        W46829  15.913  12.839  15.509 -0.0321 -0.0542 -0.1965
33416W        W46830  16.207   3.067  15.309  0.0078 -0.0525  0.1815
33417W        W46831  11.570   9.952  12.711 -0.2255  0.0485 -0.0305
33418W        W46832   0.457  18.079   2.988  0.0276  0.0149 -0.1402
33419W        W46833   8.237  12.772  10.556 -0.0298 -0.0254 -0.0176
33420W        W46834   4.608   8.419   5.477  0.1867  0.1036  0.1538
33421W        W46835  11.480  10.301   4.765  0.0390 -0.1967 -0.0017
33422W        W46836   0.670   3.103   0.168  0.1613  0.1864 -0.1333
33423W        W46837   1.190  17.552   5.525 -0.0298 -0.3784 -0.0017
33424W        W46838  17.571   3.685   0.279 -0.3640  0.1642 -0.1664
33425W        W46839   0.027  17.581   5.840  0.2424  0.2539 -0.0794
33426W        W46840  13.588   6.269  12.788 -0.1190 -0.0268 -0.2878
33427W        W46841  13.962  11.825   6.228  0.0386 -0.2394 -0.0548
33428W        W46842   8.790   8.268  15.777 -0.1458 -0.1620 -0.1472
33429W        W46843   3.090  10.763   4.169  0.0699  0.0987 -0.1675
33430W        W46844   2.105  13.061   5.279 -0.1051  0.0041 -0.1419
33431W        W46845  18.172   9.833  10.987  0.4095 -0.0833 -0.1194
33432W        W46846   2.491   4.544   4.443 -0.1394  0.1216 -0.0099
33433W        W46847  17.651  10.599  16.414  0.1840 -0.0910 -0.1873
33434W        W46848   2.860  15.157  14.518 -0.0163 -0.3959 -0.2668
33435W        W46849  11.989  16.895  13.305  0.3661 -0.0145  0.0657
33436W        W46850  12.198   4.738   4.985  0.2800  0.0476  0.1236
33437W        W46851   5.869  18.005   0.449  0.0290  0.0898 -0.1648
33438W        W46852   4.554   5.487   4.249 -0.1465 -0.1507 -0.0004
33439W        W46853  14.347   6.376   3.388 -0.2147  0.2117  0.0507
33440W        W46854  14.948   6.436   0.517  0.2222 -0.3187 -0.0777
33441W        W46855   4.412   0.405  12.090  0.1893  0.1387 -0.0421
33442W        W46856   7.065  14.877  15.015  0.1219  0.1352 -0.0152
33443W        W46857   7.607   2.625   0.355  0.1398 -0.0558  0.0696
33444W        W46858  16.862   0.672  12.931  0.0836  0.0723 -0.0364
33445W        W46859   7.167   2.459   0.101 -0.0141 -0.1472 -0.2460
33446W        W46860  11.148  10.747   6.407 -0.0159  0.2339  0.1407
33447W        W46861  13.775   7.416   3.898 -0.0378  0.0713  0.1925
33448W        W46862  10.381  11.089   5.378 -0.2139  0.2421  0.1962
33449W        W46863   8.313   0.451  13.013  0.0099  0.2445 -0.1220
33450W        W46864  10.726  12.957  16.505  0.0741 -0.1068  0.2238
33451W        W46865  17.485   0.946   4.197 -0.2554  0.0518  0.1283
33452W        W46866  13.613   4.027   2.412 -0.1377  0.1992  0.1706
33453W        W46867  11.772   5.173  12.942  0.1120 -0.1395  0.2614
33454W        W46868  13.807   7.348  10.306 -0.6632 -0.4492 -0.2101
33455W        W46869  13.774   7.446   2.533 -0.0314 -0.0829 -0.0288
33456W        W46870   7.151   4.913  13.849  0.3274  0.1223 -0.0722
33457W        W46871  15.129   3.558   4.540 -0.1319 -0.1788 -0.3704
33458W        W46872   2.178  15.091  13.310  0.2849 -0.1347 -0.1094
33459W        W46873  13.187  14.861   2.511 -0.0463 -0.2807 -0.0534
33460W        W46874   1.794   8.177   1.597  0.1610 -0.4344 -0.2731
33461W        W46875  13.188   6.865   4.037  0.5686 -0.0914 -0.2168
33462W        W46876   8.483   8.117  13.959 -0.0718  0.1421 -0.1201
33463W        W46877   3.265   9.877   5.630  0.2338  0.0100 -0.0903
33464W        W46878  10.809   3.687   3.077  0.0445 -0.0645 -0.1668
33465W        W46879   0.842   3.669   1.751  0.1473  0.1626  0.3270
33466W        W46880   4.624  14.528   1.894  0.0680  0.1869  0.1410
33467W        W46881   5.726   7.043   0.638  0.2590  0.0822 -0.2519
33468W        W46882   5.005  15.628   5.465 -0.0964 -0.1530  0.2000
33469W        W46883  14.186  15.521  15.772 -0.0292 -0.1314 -0.0159
33470W        W46884  12.973  11.516  15.317  0.1325 -0.0508  0.0251
33471W        W46885   3.078   3.296  16.088  0.0507  0.2082 -0.0239
33472W        W46886  15.807   4.233  14.966  0.0938  0.0098  0.1394
33473W        W46887  15.697   2.621   1.418 -0.0660  0.0817  0.0168
33474W        W46888  15.840   7.331   3.873  0.2602  0.2635 -0.3753
33475W        W46889   1.961   6.235  15.468  0.1344 -0.0776  0.1301
33476W        W46890   2.267   2.048  11.629 -0.0728  0.0038 -0.3562
33477W        W46891  17.580   5.155  15.242  0.0388 -0.4038 -0.3021
33478W        W46892  14.547  14.951   2.682 -0.0005 -0.4198  0.0771
33479W        W46893  10.140   8.504   5.340 -0.0188 -0.2198 -0.0392
33480W        W46894   0.014   9.731  13.385  0.1166 -0.4143  0.1452
33481W        W46895   7.274   2.407   5.515 -0.1925 -0.1697 -0.0265
33482W        W46896   3.211  11.132   3.109 -0.0375 -0.3118 -0.1342
33483W        W46897   3.527   6.083  15.356 -0.2084  0.1504  0.0019
33484W        W46898   4.165  16.740  15.376 -0.0544 -0.0501  0.1988
33485W        W46899   3.899  15.520   3.705  0.1184 -0.3190 -0.1524
33486W        W46900   7.128   7.722  13.221 -0.1268 -0.2285  0.3219
33487W        W46901  17.330  14.270   0.397  0.2676  0.0011  0.1451
33488W        W46902   1.267   8.043  12.927  0.1873  0.2250  0.1021
33489W        W46903   6.181   1.712   2.024  0.1673 -0.1574 -0.0878
33490W        W46904   2.273  14.980   3.960  0.0460  0.2180  0.3872
33491W        W46905  10.931  14.477  11.338  0.3794 -0.2482 -0.0722
33492W        W46906  15.950  17.057  10.608  0.2764 -0.1415 -0.2767
33493W        W46907   4.910  16.554  14.172 -0.2350  0.0490 -0.0217
33494W        W46908  10.930  17.330  10.617 -0.4725  0.2680 -0.0291
33495W        W46909  12.230  15.395   5.027 -0.3493 -0.0637 -0.2668
33496W        W46910   4.279   0.173  11.645 -0.3207 -0.1373 -0.0048
33497W        W46911   7.564  15.053  12.335 -0.0604  0.3440  0.0294
33498W        W46912  17.214   2.578   5.664 -0.1328 -0.0169 -0.2834
33499W        W46913   8.531   5.150  14.577 -0.2064 -0.1608  0.0060
33500W        W46914   5.323   8.936  14.983 -0.1297 -0.0400  0.1398
33501W        W46915  16.500  14.605  12.534 -0.3698 -0.2038 -0.2269
33502W        W46916  11.442   2.034   4.756 -0.1923  0.0945 -0.1825
33503W        W46917  11.735  17.669   5.731  0.1258  0.1154 -0.2321
33504W        W46918   6.361  11.760   0.898 -0.0578 -0.1076 -0.1669
33505W        W46919  12.460   5.868   6.122 -0.1408  0.0534  0.0449
33506W        W46920   5.522  10.914  15.197 -0.1179 -0.1261  0.1144
33507W        W46921   6.140   2.401   1.134 -0.0569  0.0700  0.1401
33508W        W46922   1.853  17.913   2.147 -0.1374  0.2208 -0.1895
33509W        W46923   1.137   7.654   1.370  0.3981  0.0580 -0.0538
33510W        W46924   3.763   5.138   2.046 -0.3362 -0.1624 -0.0434
33511W        W46925   3.740  16.350  14.718 -0.0905  0.0161  0.0887
33512W        W46926  12.793  10.858  13.865  0.1512 -0.0649  0.4708
33513W        W46927   6.913   3.363   1.409  0.0513  0.0755 -0.1272
33514W        W46928   6.394   7.438   1.393 -0.1606  0.1547 -0.1516
33515W        W46929   5.298  17.149  14.935  0.4024  0.1153 -0.3757
33516W        W46930   4.820   4.613  13.254 -0.0345 -0.0835 -0.2050
33517W        W46931  12.847  12.366  14.804  0.0447 -0.2259 -0.2151
33518W        W46932   5.061  10.646  12.044 -0.1754  0.1185  0.0484
33519W        W46933  11.858   0.050  15.627  0.0022  0.0125  0.2280
33520W        W46934  15.969   2.701   2.533  0.0786  0.0993 -0.0595
33521W        W46935   6.771   2.552  11.489  0.3764 -0.1234  0.0936
33522W        W46936  17.085   2.059  15.705 -0.3036  0.0550 -0.0688
33523W        W46937   3.061   6.093   5.387 -0.1380  0.2848  0.0392
33524W        W46938   7.195   6.499   0.910 -0.4034 -0.1588  0.1540
33525W        W46939  10.633  16.385   2.889 -0.1708 -0.0753 -0.2545
33526W        W46940  10.468  16.868   2.668  0.3561 -0.0630  0.0867
33527W        W46941   8.633   7.916   3.997  0.3107  0.0025 -0.4394
33528W        W46942  12.387  16.617   4.028 -0.4385 -0.1346  0.0534
33529W        W46943  12.980  11.676   1.140 -0.1257 -0.0270 -0.0250
33530W        W46944  16.466  16.867   4.667  0.3880 -0.1837  0.2102
33531W        W46945  14.688  16.698  13.514 -0.3637  0.0375  0.0443
33532W        W46946   7.202  16.722  12.223 -0.0438 -0.1188 -0.1458
33533W        W46947   2.702   8.436  12.158  0.0031 -0.1216  0.1682
33534W        W46948  12.449  17.977  12.750  0.1603 -0.1588 -0.1330
33535W        W46949   7.895   6.007  13.743  0.0493  0.3629  0.1168
33536W        W46950   5.532  15.645   4.595  0.1006  0.0688 -0.0677
33537W        W46951   1.127  14.009   3.307 -0.3001 -0.2293 -0.0559
33538W        W46952   1.389  13.365  12.713 -0.3993  0.0846 -0.1114
33539W        W46953  13.896   8.823  10.528 -0.0633  0.1200  0.0436
33540W        W46954   4.049  11.024   0.317 -0.1643 -0.2787  0.1042
33541W        W46955   5.090  15.547   3.220 -0.2373  0.2354 -0.3130
33542W        W46956   3.912  12.961   4.816  0.3324  0.0758 -0.0756
33543W        W46957  12.314  11.548  10.620  0.0632  0.0641  0.3507
33544W        W46958   6.655  15.620   0.479  0.2165  0.1933  0.3297
33545W        W46959   3.786  17.773  10.579 -0.1239 -0.2497  0.0433
33546W        W46960  18.027   1.023  14.385 -0.1089 -0.0493 -0.1666
33547W        W46961   5.393   7.591  13.400  0.2087 -0.1113  0.2929
33548W        W46962  17.630  14.184   3.837 -0.2623 -0.2141 -0.2327
33549W        W46963   6.166  13.281   2.108 -0.0329 -0.0326  0.1230
33550W        W46964  15.078   7.563  10.103 -0.0258  0.2439 -0.3526
33551W        W46965  13.163   3.803  12.803 -0.0109 -0.0844 -0.1840
33552W        W46966  17.562  17.127   1.447 -0.1212  0.3414  0.0546
33553W        W46967  17.782  12.367   2.504  0.2486  0.3696 -0.0185
33554W        W46968   0.546  15.744  11.523 -0.1065  0.0891 -0.3699
33555W        W46969  14.068  17.403  12.561  0.1501 -0.0076  0.2715
33556W        W46970  14.194   7.765  12.173  0.1573  0.0756  0.1234
33557W        W46971  12.279  10.737   3.103  0.2703 -0.0516  0.1211
33558W        W46972   4.472  17.263  13.140  0.2761  0.2357 -0.1004
33559W        W46973   3.064   9.123   4.591  0.1889 -0.0017 -0.0723
33560W        W46974   9.275   1.676  15.488 -0.3372  0.1133  0.2813
33561W        W46975  13.690   1.649  11.402 -0.1089 -0.3544  0.0536
33562W        W46976   5.193  11.865   0.372 -0.0909  0.2693 -0.0137
33563W        W46977  11.457  14.055   2.571 -0.1496  0.0438 -0.0432
33564W        W46978   9.427   8.244  13.509 -0.3389  0.0261  0.2144
33565W        W46979   7.923   4.041   1.986  0.0520  0.1873  0.3588
33566W        W46980  18.064  10.530  13.813  0.1488 -0.1738  0.1943
33567W        W46981   4.597  12.777   1.150  0.3022  0.0107 -0.0230
33568W        W46982  15.450  10.345   1.746  0.0781  0.1296  0.1202
33569W        W46983  14.784  16.971   2.443  0.1435 -0.5508 -0.1234
33570W        W46984   5.698  16.372  14.546  0.0159  0.0931 -0.2874
33571W        W46985   4.414  15.567  12.552 -0.0434 -0.2914 -0.1765
33572W        W46986   4.724  10.555  15.078  0.0241  0.1894 -0.3052
33573W        W46987   6.302   3.182   4.018 -0.0905  0.0120  0.0469
33574W        W46988  16.133   7.467   0.594  0.1869  0.0702  0.0764
33575W        W46989   6.058   6.552   1.649 -0.5565 -0.1572  0.0684
33576W        W46990  16.189   2.329   0.076  0.1231  0.0248 -0.1753
33577W        W46991   5.575  16.699   4.448 -0.1034 -0.0895 -0.0799
33578W        W46992  12.576   5.341   6.231 -0.4218 -0.4787  0.1577
33579W        W46993   4.981   6.556   0.069  0.1534  0.1594 -0.0183
33580W        W46994   3.569   5.056  16.428 -0.2707 -0.1114 -0.1177
33581W        W46995  15.344  10.619   2.247 -0.1025 -0.1431  0.0030
33582W        W46996   9.204   5.214   4.985  0.3252  0.3693  0.0420
33583W        W46997   9.178   6.906  14.481 -0.0174 -0.0227  0.2310
33584W        W46998   8.826  11.430   2.353 -0.2272 -0.0248 -0.1676
33585W        W46999  15.488   0.733   0.334 -0.1261 -0.1310 -0.1519
33586W        W47000   5.581   7.342   4.648 -0.0078 -0.0680  0.1429
33587W        W47001   2.942   5.769   2.713 -0.3847 -0.0970 -0.1962
33588W        W47002   2.636   6.793   4.585 -0.1869 -0.1078  0.0769
33589W        W47003   7.688   8.309   5.419 -0.0359  0.1673 -0.1009
33590W        W47004  12.834  10.036   2.849  0.1675  0.0784  0.1078
33591W        W47005  10.413   6.611  11.715 -0.1282  0.1942  0.0129
33592W        W47006  15.884  15.504   6.917  0.0259 -0.2775  0.1415
33593W        W47007   1.143  12.727   1.114  0.0248  0.0696 -0.0047
33594W        W47008   9.339  14.256   5.741 -0.2933 -0.1300 -0.0122
33595W        W47009   6.264   7.272   5.469  0.5420  0.0698 -0.2337
33596W        W47010  14.479   8.279  13.644  0.1263  0.0628  0.0257
33597W        W47011   1.076   7.757  14.154  0.1716 -0.0749 -0.1092
33598W        W47012  12.600   2.940  10.315  0.1712  0.3402 -0.0697
33599W        W47013  13.324   9.159  15.332 -0.0298  0.2207 -0.2834
33600W        W47014  17.789  10.895   1.290  0.3299  0.1009  0.0555
33601W        W47015  10.844   7.098  15.265 -0.0341  0.0077  0.1628
33602W        W47016   9.658  12.251   6.081  0.0513  0.2199 -0.1204
33603W        W47017  15.705  17.802  15.162 -0.2500  0.0183  0.1724
33604W        W47018   7.921   8.499   4.503 -0.0198 -0.1630  0.1647
33605W        W47019   1.865   3.200   4.716  0.1578 -0.2053  0.1359
33606W        W47020   9.894   9.009  10.361 -0.1890  0.0376  0.1153
33607W        W47021   7.309  12.896  15.044 -0.0811 -0.1960  0.2670
33608W        W47022  11.513   1.704   9.749  0.7241 -0.1939  0.0850
33609W        W47023  16.621   8.218   4.305  0.4390  0.0396 -0.2229
33610W        W47024  17.090  12.250   5.528 -0.1387  0.0764  0.0071
33611W        W47025  16.154   2.149   1.050  0.0410 -0.3372  0.1729
33612W        W47026   1.889   7.484  13.554 -0.0202  0.2069  0.0173
33613W        W47027   0.087   6.996  12.111 -0.0475  0.1771 -0.0780
33614W        W47028  13.374  16.572   2.067  0.0214 -0.1683 -0.1578
33615W        W47029   2.343  13.129   2.811  0.2393  0.0439 -0.0928
33616W        W47030  15.743   3.161   4.371  0.1019 -0.1422  0.2719
33617W        W47031   7.508   2.268  12.476 -0.1435  0.0398 -0.2230
33618W        W47032   8.907   1.973  10.039  0.1499  0.2030 -0.4603
33619W        W47033   5.900  17.717  14.263  0.1432 -0.1538  0.3186
33620W        W47034   6.043   8.499  11.523 -0.1611  0.0553  0.0391
33621W        W47035  16.976  16.808  15.384 -0.0675  0.3092  0.1871
33622W        W47036   0.548   9.643   2.893  0.1592  0.0169  0.0313
33623W        W47037   5.795   4.720   0.894  0.0135 -0.2276 -0.2996
33624W        W47038  13.903   9.330  10.721  0.3108  0.4528  0.0941
33625W        W47039  10.056   6.739  16.453 -0.0306 -0.1154 -0.2137
33626W        W47040  12.791   1.959   4.390  0.0729 -0.1194  0.0266
33627W        W47041  16.060  12.193   1.328 -0.2044  0.3581 -0.0561
33628W        W47042   3.072   4.560  12.705 -0.0052  0.1417 -0.0357
33629W        W47043  13.761   0.137   4.303 -0.2033 -0.1871  0.1423
33630W        W47044   8.275  15.144   1.752 -0.0450 -0.0476 -0.1951
33631W        W47045   1.080  10.671   4.020 -0.0301 -0.2371 -0.0905
33632W        W47046   5.548   8.625  12.349  0.0768 -0.1936 -0.0638
33633W        W47047  11.505   7.117   2.880  0.0785  0.1582 -0.1708
33634W        W47048  17.678  11.818   3.744  0.0396 -0.2247 -0.2080
33635W        W47049  14.128  14.239  16.380  0.0855 -0.0882 -0.2364
33636W        W47050   6.091   5.084   2.699  0.1135  0.0964  0.1440
33637W        W47051   1.303   3.182  13.849 -0.0407  0.1845  0.0244
33638W        W47052  10.953  18.293  12.194 -0.0997 -0.0998  0.3353
33639W        W47053  17.566  12.292   4.471  0.1975  0.1720  0.2495
33640W        W47054  16.461   3.480   2.977 -0.0516 -0.2444  0.1564
33641W        W47055   4.510  15.185  11.616 -0.2736 -0.1045 -0.3004
33642W        W47056  16.997  13.107   4.486 -0.1160  0.0112  0.1072
33643W        W47057   4.186   2.717   4.618  0.3745  0.1394 -0.0024
33644W        W47058   7.881   1.338  14.034  0.0507  0.0550 -0.1052
33645W        W47059   1.979   8.961   0.098  0.2331  0.2239 -0.3329
33646W        W47060   2.561   9.845  10.278  0.3887 -0.1891 -0.2328
33647W        W47061   2.497   4.475  13.905  0.1166  0.0748 -0.1425
33648W        W47062   2.454  15.895  14.019  0.2014  0.0812  0.2733
33649W        W47063   5.131   6.547   1.201  0.2301 -0.2055 -0.1773
33650W        W47064   3.855  11.579   0.724 -0.2531 -0.0599 -0.0869
33651W        W47065   8.242   5.257  13.108  0.1883 -0.1895 -0.1587
33652W        W47066  13.562   4.263  14.070  0.0937  0.0030 -0.1294
33653W        W47067   1.427   2.243  10.489 -0.2939 -0.1731  0.0024
33654W        W47068   2.241  17.383  11.311 -0.1843  0.1131  0.1612
33655W        W47069   6.513   5.747  10.835  0.0353 -0.0264  0.1667
33656W        W47070  13.753   1.017   3.985 -0.1963  0.0672 -0.1896
33657W        W47071  18.293   6.531  10.888  0.1693  0.1458  0.3009
33658W        W47072  14.275   9.446  11.068 -0.1198  0.0795  0.2264
33659W        W47073  15.413   3.372  12.322  0.0175  0.0246 -0.0308
33660W        W47074   8.202  11.704   3.312 -0.2984 -0.0759  0.0094
33661W        W47075  18.325   6.591   1.947 -0.3941  0.1615  0.0785
33662W        W47076  10.006  11.973  13.389  0.2350 -0.0568 -0.0621
33663W        W47077   0.549  15.404   1.063  0.0110  0.2743  0.1092
33664W        W47078  14.189  15.806   5.358  0.0072 -0.3809  0.0317
33665W        W47079   8.450  17.432   3.155  0.4958 -0.1070 -0.1923
33666W        W47080   6.340   7.636   5.007  0.1019 -0.2626 -0.0639
33667W        W47081   5.878  16.645   4.023  0.0790  0.0887 -0.3493
33668W        W47082   9.041   0.777   5.310 -0.1559 -0.0492  0.0413
33669W        W47083   8.501  16.454  15.337  0.0153 -0.4067  0.1297
33670W        W47084  15.676  17.800  14.165 -0.0294 -0.0877  0.0349
33671W        W47085  12.953  17.851  12.597 -0.1774  0.0116  0.2014
33672W        W47086   4.615  15.959   3.527  0.1286 -0.0636 -0.4192
33673W        W47087   1.196   3.298  12.104 -0.0946  0.0940 -0.0141
33674W        W47088  10.593   5.745   3.653 -0.2358 -0.0696 -0.0721
33675W        W47089  11.235  14.848   1.169  0.2729 -0.0690 -0.1405
33676W        W47090   1.626  15.729  15.102 -0.0956 -0.2565  0.0690
33677W        W47091  16.883  11.198   5.239  0.1307 -0.1732  0.2042
33678W        W47092   4.958   1.442  15.511  0.1798 -0.4011  0.2681
33679W        W47093   6.573  13.436   2.434  0.3078 -0.0994  0.3100
33680W        W47094   2.015  17.195  15.969  0.0131  0.1961  0.2189
33681W        W47095   3.115  16.820   2.108 -0.0729 -0.1457 -0.0046
33682W        W47096  12.984  14.306   5.455 -0.1039  0.0266  0.1799
33683W        W47097  15.686  14.185   0.790 -0.1302 -0.2747 -0.1046
33684W        W47098  12.041  18.035   3.872  0.0011  0.0264 -0.2277
33685W        W47099  18.270  15.679   6.246 -0.0633  0.0439  0.4501
33686W        W47100   4.592   1.749  13.845 -0.1177 -0.1582  0.2708
33687W        W47101   9.998   0.216  13.587 -0.1706  0.2850  0.1519
33688W        W47102  16.945   9.539  11.312 -0.0610 -0.2357  0.1574
33689W        W47103   8.260  14.955  16.232  0.0437 -0.0621 -0.0037
33690W        W47104   2.643  11.278   0.294  0.4727 -0.1432  0.0794
33691W        W47105  11.901  16.890   3.941 -0.1923  0.2113  0.1200
33692W        W47106   2.214   7.334  11.376  0.1007  0.3082 -0.0140
33693W        W47107   1.341   9.044  15.289  0.0510  0.3245  0.2491
33694W        W47108   1.576   9.983  14.929  0.1963  0.3404 -0.2073
33695W        W47109   7.047   3.108   4.514 -0.1825  0.2526 -0.0891
33696W        W47110  13.157   3.629  11.943 -0.3561 -0.0378  0.0884
33697W        W47111   5.768   0.688   1.828  0.1668 -0.0677  0.1349
33698W        W47112  10.946   7.161  12.298 -0.1814  0.1660  0.1449
33699W        W47113  17.453   0.741  12.613  0.0397 -0.1151 -0.1501
33700W        W47114   3.878   6.700  11.632 -0.2822  0.3523  0.0615
33701W        W47115  15.738   0.600  14.107  0.0054  0.0406  0.1901
33702W        W47116  18.371  17.005  16.285  0.1710 -0.1312 -0.2519
33703W        W47117  15.162  17.004   3.691 -0.3519  0.0985  0.0157
33704W        W47118   4.315  15.459   0.694  0.4194  0.2138 -0.4424
33705W        W47119   5.692  11.949  15.593  0.0423  0.1491 -0.1778
33706W        W47120   6.968   1.930  15.175  0.0915  0.1425 -0.1514
33707W        W47121   7.011  12.570   0.165  0.1499  0.0107 -0.0055
33708W        W47122   6.227   0.666  13.511 -0.0599 -0.0939 -0.0691
33709W        W47123  12.666   1.538   2.294  0.1900 -0.2950  0.2550
33710W        W47124  16.447  14.657   0.184  0.1662 -0.1000  0.0408
33711W        W47125  16.281   4.080   0.215 -0.2075  0.1161 -0.0916
33712W        W47126  17.508   8.933   0.936  0.0201  0.0456 -0.2500
33713W        W47127   1.978  10.940  11.184  0.0397 -0.3888 -0.0484
33714W        W47128  13.908  16.657   2.089 -0.0837 -0.1468  0.1520
33715W        W47129   3.175   9.219  12.720  0.0347  0.2095 -0.0791
33716W        W47130  11.178  12.589   4.662  0.0872  0.0770  0.0544
33717W        W47131   5.505   9.146   4.819 -0.0118  0.1930  0.1837
33718W        W47132   8.104  10.643  12.541  0.1472 -0.1173  0.1792
33719W        W47133   5.749   5.366   0.862 -0.2415 -0.0687  0.0544
33720W        W47134  15.577  16.234   1.559 -0.2353  0.3164  0.0360
33721W        W47135   9.884   6.674   4.310 -0.1370 -0.3961  0.1165
33722W        W47136   2.365   3.471  10.465  0.0032 -0.0843  0.0117
33723W        W47137  12.992   6.983   0.896 -0.0774 -0.0406  0.2708
33724W        W47138   5.793  12.827   3.996  0.2002 -0.2825 -0.1215
33725W        W47139   2.097  11.292   4.911  0.1547  0.0234  0.1026
33726W        W47140   3.404   7.056   2.576  0.1150  0.2287  0.2451
33727W        W47141   2.641   3.388  16.250  0.1796  0.0146  0.1071
33728W        W47142  11.141   7.500   3.509  0.1925  0.0137  0.1978
33729W        W47143   7.682   2.297  10.565  0.0536 -0.0395 -0.4737
33730W        W47144   9.223   0.676  15.785  0.0743  0.2881 -0.1992
33731W        W47145  16.560  10.939  14.117 -0.0432  0.3225 -0.1207
33732W        W47146  16.172  17.779  15.180  0.2629 -0.0824 -0.1146
33733W        W47147  15.280  13.018   6.463  0.1257 -0.1631 -0.1677
33734W        W47148  15.125   2.099  14.287 -0.1483  0.0288 -0.2222
33735W        W47149  13.604   5.029  14.973 -0.2565 -0.2360 -0.0175
33736W        W47150  15.972  12.749  13.657 -0.1641 -0.0011  0.0012
33737W        W47151  10.126  10.682   3.759 -0.1553 -0.2635 -0.2139
33738W        W47152  10.487  10.228   2.684 -0.1330 -0.0165 -0.1947
33739W        W47153   3.141  12.071   1.424 -0.4072  0.3530  0.1410
33740W        W47154   8.038   3.810  14.933 -0.2439  0.1456 -0.1714
33741W        W47155   4.207   2.854   3.069  0.3525  0.1359  0.1284
33742W        W47156  13.666   9.310  15.862  0.0979  0.0627  0.2670
33743W        W47157  11.268  16.418   4.749  0.0324  0.1698 -0.2819
33744W        W47158   9.251  14.198  12.000 -0.1704 -0.1625  0.4475
33745W        W47159  10.927   5.627   5.361  0.2197  0.0827  0.1172
33746W        W47160  10.454   0.433  16.062 -0.2893 -0.1766 -0.2758
33747W        W47161  14.877  16.864   2.002 -0.0262  0.1194 -0.0102
33748W        W47162  10.550   9.158  15.497 -0.0982  0.0516  0.2198
33749W        W47163   7.746  13.502  14.484 -0.2019 -0.0386 -0.2758
33750W        W47164  10.126  16.242   0.309 -0.0754 -0.0944 -0.0156
33751W        W47165   6.253   3.517   4.404 -0.1162  0.1096  0.0123
33752W        W47166  13.712   6.147   2.260  0.1289 -0.2170  0.1239
33753W        W47167  12.655   0.064   5.476  0.2201  0.0074  0.3998
33754W        W47168   1.297   5.097   1.003 -0.2498  0.1066 -0.0400
33755W        W47169   7.123  17.303   2.452 -0.1623  0.3392  0.0600
33756W        W47170   4.838   0.457  13.585 -0.0843  0.0560  0.1116
33757W        W47171   8.195   0.088  12.639  0.0643 -0.1165 -0.4062
33758W        W47172  11.271   9.578  13.089  0.3871 -0.0088  0.0494
33759W        W47173  11.408   9.454  16.090 -0.1402  0.2295 -0.2516
33760W        W47174   6.485   4.878  12.986  0.0073 -0.0266 -0.1230
33761W        W47175   9.925   0.229   1.485  0.1678 -0.0024 -0.1523
33762W        W47176   3.057   1.936  11.828 -0.2539 -0.2711  0.4818
33763W        W47177   9.653   6.437   3.403  0.1139 -0.0713  0.0520
33764W        W47178   7.222  16.421  15.553 -0.1658 -0.5785 -0.0246
33765W        W47179  15.111   7.146   0.361 -0.0798  0.2066  0.1526
33766W        W47180   9.863   7.548   3.908  0.1111 -0.3530 -0.1074
33767W        W47181   9.494  12.248  12.137  0.0999 -0.1511  0.2233
33768W        W47182  18.149  17.639   1.762 -0.4175 -0.3722  0.2261
33769W        W47183   5.505   0.039   1.098 -0.2322 -0.3490  0.0938
33770W        W47184   6.693  12.066  13.234  0.2606  0.2018  0.2018
33771W        W47185  14.850   1.811  15.218  0.2761  0.1165 -0.0159
33772W        W47186  16.150   2.030  11.235  0.2178 -0.2159 -0.2842
33773W        W47187  11.476  13.880  13.340  0.0159 -0.1180 -0.0490
33774W        W47188  11.667  17.982   2.008  0.3409  0.0641  0.2534
33775W        W47189  13.944   3.586   3.944 -0.1918  0.1860  0.0293
33776W        W47190   0.954  13.097  14.293 -0.0886 -0.0044 -0.0432
33777W        W47191  10.769   6.552   4.116  0.3732  0.4554 -0.0383
33778W        W47192  12.606  12.168   5.959  0.1311  0.0920 -0.1355
33779W        W47193   5.146  13.469  14.623  0.2160  0.1171  0.0755
33780W        W47194   2.246  10.275   4.800  0.0570 -0.0010  0.0501
33781W        W47195   0.848   7.535   4.648 -0.0039  0.0685 -0.2906
33782W        W47196  12.825  14.737   4.676 -0.2533  0.0128 -0.0254
33783W        W47197  18.357   6.790   0.691 -0.0593  0.2609  0.0571
33784W        W47198   1.770  15.687   1.870 -0.0090  0.0585  0.2043
33785W        W47199   4.979  17.549  11.161 -0.0157  0.1633 -0.1080
33786W        W47200  16.265   0.514  11.705  0.1624 -0.0464  0.0723
33787W        W47201  17.718   2.391   0.663 -0.0197  0.0510  0.1445
33788W        W47202  13.313   3.299  14.143  0.0217 -0.0032 -0.1124
33789W        W47203  18.037  17.352   3.135  0.1713  0.0940  0.0817
33790W        W47204   1.999  16.982   1.541 -0.2932  0.3196  0.0515
33791W        W47205  17.977   6.664  14.140 -0.0763  0.1667  0.0276
33792W        W47206   5.569   2.095  13.954  0.2183 -0.1651 -0.0256
33793W        W47207  12.060   1.247   0.127 -0.1776  0.0366  0.1688
33794W        W47208  11.037   1.076  14.229 -0.2104  0.0864 -0.1542
33795W        W47209   3.773  17.651   3.438 -0.3675  0.0400  0.1370
33796W        W47210  15.300  15.250   4.158 -0.1400  0.0275 -0.5396
33797W        W47211   8.638   7.218  14.815  0.4469  0.1589 -0.1082
33798W        W47212  12.283   9.327  15.163  0.0992 -0.2078 -0.2114
33799W        W47213  17.045   1.088  14.908 -0.1081 -0.1898 -0.0888
33800W        W47214  15.984  11.497   5.504  0.2768  0.0640  0.1890
33801W        W47215   0.876   3.045   1.583 -0.1166 -0.1012 -0.2372
33802W        W47216   2.635  13.124   4.354  0.0757 -0.0884  0.1968
33803W        W47217  12.148  10.538  15.576  0.0269 -0.1998 -0.1275
33804W        W47218   5.038   0.365  16.132  0.2221 -0.1661  0.1628
33805W        W47219  13.162   0.352   6.209  0.3031  0.0100  0.1245
33806W        W47220   4.932   1.924   3.849 -0.1366  0.0572 -0.0398
33807W        W47221   3.414   2.958   1.284  0.2489  0.2400  0.1699
33808W        W47222  15.801  12.863   5.546  0.4613  0.2142 -0.1329
33809W        W47223   7.130  14.636   4.588  0.0300  0.1246 -0.0521
33810W        W47224   2.736   4.250   0.847 -0.0525  0.2633  0.0936
33811W        W47225  17.834  18.009   6.534  0.2414  0.2694  0.1188
33812W        W47226   0.893  11.508   4.215 -0.2919 -0.1702 -0.1624
33813W        W47227   8.395  17.824  13.403  0.0171  0.2528  0.0659
33814W        W47228   8.275  15.189  14.932  0.0740 -0.1473  0.0037
33815W        W47229  16.065   7.365  11.001  0.2738  0.0939  0.2822
33816W        W47230   3.141  11.987  12.124 -0.0949  0.0199  0.0083
33817W        W47231   7.395  15.572  14.601  0.0166  0.1963 -0.3594
33818W        W47232  18.364   4.952  16.495 -0.1142 -0.4172  0.2074
33819W        W47233  15.572   0.849   6.289  0.0541  0.0927  0.0396
33820W        W47234  11.993  11.209  11.490 -0.1842  0.1808 -0.1719
33821W        W47235   1.816  11.027   1.764  0.2296 -0.0033  0.0561
33822W        W47236   2.749  10.115  13.076  0.0103  0.0451 -0.2333
33823W        W47237   2.959  13.744  14.433  0.3803 -0.4035  0.0721
33824W        W47238  15.701  15.027  12.805 -0.2543  0.3851 -0.1448
33825W        W47239  14.365  13.480  13.883  0.0609  0.1004  0.0539
33826W        W47240  18.332   8.585  13.818 -0.0199  0.0057 -0.1758
33827W        W47241   4.615  10.389   5.483  0.0996 -0.1636 -0.2117
33828W        W47242   5.385  10.124  15.593  0.0046  0.0494 -0.3603
33829W        W47243   4.828  15.256   2.613  0.0426  0.1399  0.1382
33830W        W47244  14.386  15.095  13.634  0.0953  0.2855  0.0366
33831W        W47245   0.804  15.059  14.339 -0.0793 -0.1329  0.3351
33832W        W47246   9.565  11.315  10.938 -0.0399 -0.0129 -0.2856
33833W        W47247  10.226  16.063  12.565 -0.0259  0.1576 -0.2826
33834W        W47248  14.972  15.891  16.211  0.0876  0.1555  0.1904
33835W        W47249   8.225   4.983  12.671 -0.1341  0.0479  0.0634
33836W        W47250   8.290   4.732  14.390  0.0098 -0.0677 -0.3951
33837W        W47251   7.282  15.745   0.934  0.1801 -0.0223 -0.1835
33838W        W47252   4.764   3.531  14.901 -0.1933 -0.1381 -0.2137
33839W        W47253  10.235  15.338  11.161 -0.5809 -0.5050 -0.1459
33840W        W47254   9.220   7.593  13.765 -0.0290 -0.3443  0.0026
33841W        W47255   4.304   3.762   6.371 -0.0288  0.0447 -0.1927
33842W        W47256   3.273   1.530  11.764  0.4192 -0.0721  0.2271
33843W        W47257   3.456   5.402  14.101  0.0206  0.2370  0.1319
33844W        W47258   3.851   7.904  14.163  0.0726  0.0206 -0.0920
33845W        W47259   4.423  13.079  12.786  0.0179 -0.0993  0.0001
33846W        W47260   7.142   2.880  16.243  0.1450 -0.0380  0.0193
33847W        W47261   0.337   0.823  12.161  0.2545 -0.1773 -0.3170
33848W        W47262   6.767   7.633   4.705  0.3653 -0.2556  0.0035
33849W        W47263  10.180   0.081  14.169 -0.4224  0.3316  0.0537
33850W        W47264   3.501  13.861   2.004  0.2373  0.0766 -0.2794
33851W        W47265   4.050  14.472  14.141  0.2655  0.0716 -0.0805
33852W        W47266  10.501  16.084  13.049  0.0496 -0.0526 -0.1878
33853W        W47267   7.046  11.061  10.493  0.1561  0.0394 -0.1007
33854W        W47268   4.078   9.516   2.988 -0.1249  0.0976 -0.1549
33855W        W47269   4.179  11.481  14.112  0.2576 -0.2087 -0.1668
33856W        W47270  11.315   1.441  12.850 -0.1905 -0.0914  0.0556
33857W        W47271   6.248   9.939  14.361 -0.1204  0.0740 -0.2367
33858W        W47272   1.785   6.654   4.366 -0.1772 -0.4276 -0.0827
33859W        W47273   6.277   5.480   2.102  0.2977  0.0188 -0.3031
33860W        W47274   0.801  15.852   7.053  0.0672 -0.0680 -0.0233
33861W        W47275  17.902  17.189  12.728  0.2577 -0.0394 -0.2049
33862W        W47276  12.353  12.260  13.115 -0.3896  0.1099 -0.1717
33863W        W47277   6.823   2.000  11.728  0.1314 -0.0930  0.1805
33864W        W47278  12.516  14.821  12.940 -0.2008  0.0605  0.0856
33865W        W47279   8.536  15.636  14.851  0.0754  0.0231  0.0414
33866W        W47280   1.488   6.438   1.103  0.0206  0.1673 -0.1395
33867W        W47281   0.082  15.685   4.943  0.2341 -0.2914 -0.1063
33868W        W47282  13.035   6.325  15.280 -0.3330 -0.0590  0.1492
33869W        W47283   0.480  16.023   4.933 -0.0945  0.3813 -0.0190
33870W        W47284   0.520   0.896  15.976  0.3494  0.2198  0.1022
33871W        W47285  12.675   1.002   4.493 -0.0404  0.0011 -0.0213
33872W        W47286   4.233  11.729  13.145  0.2719 -0.0325  0.1660
33873W        W47287  17.822  10.691  15.563  0.1525  0.1230  0.1688
33874W        W47288  11.354   2.454   3.446 -0.0099  0.0375  0.2362
33875W        W47289   1.254  11.262   2.841 -0.0515  0.0324 -0.2051
33876W        W47290   4.975  14.870  12.321  0.0184 -0.0386  0.1048
33877W        W47291   0.663   9.403   1.138  0.0400  0.0557 -0.5889
33878W        W47292  11.902  11.624  16.041 -0.0750 -0.2693 -0.1461
33879W        W47293   9.788  10.962  12.213  0.0674 -0.2290  0.0693
33880W        W47294   4.281   6.354   2.653  0.2594 -0.0122  0.1117
33881W        W47295  16.260   7.405   4.164  0.2240 -0.1190  0.1464
33882W        W47296   2.531  14.344  13.862  0.1376  0.0969 -0.1206
33883W        W47297  11.110   2.014  12.989  0.1008 -0.0853  0.2922
33884W        W47298   4.160   5.901  14.695  0.1140 -0.2606  0.0385
33885W        W47299  16.015  15.333   1.389  0.1379 -0.1085 -0.2501
33886W        W47300   1.725   6.979   1.216  0.2632 -0.0866  0.0159
33887W        W47301  17.784  15.836   0.831  0.2842 -0.0509 -0.4173
33888W        W47302  10.220  12.733  13.128  0.2083 -0.1832  0.1818
33889W        W47303  17.317   2.563  15.823  0.1452  0.0647  0.1453
33890W        W47304  15.789   6.146   3.874  0.0686 -0.2510 -0.2275
33891W        W47305  15.570   3.068   1.610  0.0178 -0.3225  0.0078
33892W        W47306  18.317  15.173   4.624 -0.0830  0.0076 -0.0115
33893W        W47307   6.910  14.777   0.915  0.3190  0.0803 -0.0394
33894W        W47308   5.258  14.133  15.056 -0.0943  0.1049 -0.0918
33895W        W47309  12.014  16.422   4.417 -0.3076 -0.1043  0.1156
33896W        W47310   6.331   6.122   1.493 -0.0467  0.0629 -0.1218
33897W        W47311   4.580   4.029   3.642 -0.0307  0.4807 -0.3537
33898W        W47312  12.875   2.298   9.939 -0.2855 -0.1885  0.0068
33899W        W47313  12.101  15.584  15.104 -0.0228 -0.0330 -0.1942
33900W        W47314   5.140  16.049  13.493 -0.2646 -0.1120 -0.2346
33901W        W47315   7.529  14.127  14.261  0.0704 -0.0783  0.2475
33902W        W47316   6.746  16.611   2.608  0.2183  0.2423 -0.0668
33903W        W47317   1.475  14.825  15.974 -0.1873  0.1507 -0.0501
33904W        W47318  11.399  17.413  13.492 -0.2210  0.2626 -0.1194
33905W        W47319  11.818   9.079  15.895  0.1588 -0.0050 -0.2709
33906W        W47320   9.471   2.270  14.127  0.2525 -0.0982 -0.1642
33907W        W47321  15.980  18.294  11.597  0.0359  0.0047  0.2534
33908W        W47322  13.323   8.074   0.506 -0.0360  0.1424 -0.1206
33909W        W47323   9.516   0.121  12.452 -0.0273  0.1237  0.0265
33910W        W47324  10.603  13.088   2.162 -0.3036 -0.0713 -0.2844
33911W        W47325   1.133  10.561   6.066 -0.0423 -0.0206 -0.2061
33912W        W47326   2.757   0.853   1.521 -0.1733  0.1645  0.1244
33913W        W47327  17.536   9.966  12.462 -0.5479 -0.0693 -0.0186
33914W        W47328   2.467  16.696   5.361  0.2306  0.0786 -0.2611
33915W        W47329   2.199  13.433   6.004 -0.0238  0.3099 -0.1682
33916W        W47330   5.266   8.922  11.019 -0.2481 -0.1054 -0.1189
33917W        W47331   3.947  14.750  15.964 -0.0278  0.2097 -0.0954
33918W        W47332  17.992  11.909   0.192  0.1399  0.1403 -0.1769
33919W        W47333  15.394  13.020  15.739 -0.1199 -0.1319 -0.3563
33920W        W47334  17.088  16.054  11.853 -0.0620 -0.2771  0.0330
33921W        W47335   2.924   4.060   2.800 -0.0791  0.2484  0.0836
33922W        W47336  12.452   9.794   2.405 -0.0817 -0.2227  0.0657
33923W        W47337   2.189   0.862  16.049  0.1980  0.1355 -0.0644
33924W        W47338   6.375  16.623   5.790  0.1927 -0.1450 -0.0571
33925W        W47339  12.026  12.617  13.005  0.1703 -0.1359  0.1014
33926W        W47340   7.828   9.561   1.013  0.2566  0.3218  0.1811
33927W        W47341  15.009   6.716  15.791  0.1554  0.0667  0.2547
33928W        W47342   6.223  10.347  13.415 -0.1519 -0.0175  0.1782
33929W        W47343  12.760   8.083   0.426 -0.0384 -0.0727 -0.0941
33930W        W47344  10.123   7.284   3.586 -0.5943  0.0211  0.1070
33931W        W47345   5.861  11.957   5.345 -0.0602  0.1217  0.2566
33932W        W47346  12.380   5.273  10.339 -0.0345 -0.0426 -0.1394
33933W        W47347   0.045  14.204   0.977  0.0335  0.0223 -0.0804
33934W        W47348   1.018  17.913   0.915 -0.0135 -0.2122 -0.1601
33935W        W47349  11.737   8.574  12.893  0.2305 -0.0478 -0.3183
33936W        W47350  14.913   0.825  12.214  0.2750 -0.0386 -0.0021
33937W        W47351   2.007   7.572   0.616  0.0093 -0.0226 -0.0419
33938W        W47352  15.286   5.948  10.211 -0.0113 -0.2298  0.2412
33939W        W47353   4.074   4.640  12.575 -0.2257 -0.0983  0.2684
33940W        W47354  11.084   7.874  15.569 -0.3289  0.1900  0.3044
33941W        W47355  16.535  13.771   0.487  0.0687  0.1976 -0.1795
33942W        W47356  12.712  17.984  15.474 -0.4529  0.1172 -0.0364
33943W        W47357   7.684  18.169  11.288  0.0222 -0.2273 -0.0739
33944W        W47358   8.035  10.994   0.245  0.3087  0.0334  0.0019
33945W        W47359   0.775  18.264   4.571  0.0183 -0.3509 -0.0232
33946W        W47360   7.588   6.862   3.740  0.2686 -0.0298  0.1915
33947W        W47361  17.227   4.423  12.779 -0.3002 -0.0323  0.0262
33948W        W47362  12.723   4.840  11.536  0.3115 -0.2071  0.0313
33949W        W47363  14.243   5.317  14.330  0.0369 -0.1946 -0.0446
33950W        W47364   1.388  10.211   3.243 -0.2615 -0.0221  0.1372
33951W        W47365   8.778   7.322  12.098  0.1875  0.4091  0.0677
33952W        W47366  17.609  15.601   6.220  0.1072  0.0323 -0.0811
33953W        W47367  12.021   1.297   6.043  0.0826 -0.0210  0.0231
33954W        W47368  15.775   4.245   0.165  0.1402 -0.1287 -0.2036
33955W        W47369   6.047  16.344  12.041 -0.0350  0.1316  0.2166
33956W        W47370   9.770   4.681  16.260 -0.2072 -0.0233 -0.1648
33957W        W47371  18.323  17.403   1.296 -0.1915 -0.1721  0.0863
33958W        W47372  10.386  16.001  13.745  0.1701 -0.1303  0.0683
33959W        W47373  14.842   1.727   5.796 -0.0156  0.0282  0.1746
33960W        W47374   5.182  16.803  16.353 -0.1247 -0.1697  0.0541
33961W        W47375   1.749   3.380   0.715 -0.0654  0.1984 -0.0600
33962W        W47376  14.172   1.096   4.236  0.1102  0.2579  0.1626
33963W        W47377  17.337   5.144   3.874 -0.2201 -0.1412 -0.1480
33964W        W47378   7.329   6.385   1.493 -0.0700  0.2746 -0.0913
33965W        W47379  18.109  14.058   0.573 -0.2548 -0.0533  0.0129
33966W        W47380  10.518  17.875   5.142 -0.2005  0.0922  0.3164
33967W        W47381   2.556   0.519   5.437 -0.2617  0.0843  0.1415
33968W        W47382   4.636   7.903  14.173 -0.0990  0.1640 -0.0451
33969W        W47383   5.399   9.716  14.294 -0.1103  0.2787  0.2860
33970W        W47384  16.686  14.717   5.433  0.3828 -0.2198 -0.0868
33971W        W47385  13.889  15.445   5.229 -0.0654  0.2311 -0.0833
33972W        W47386  15.671   8.753   4.252  0.0469 -0.0807  0.2940
33973W        W47387  14.649   1.315  11.537 -0.0679 -0.2595  0.3132
33974W        W47388  12.276   8.994   1.958 -0.0197  0.0660  0.2544
33975W        W47389  14.646  18.246   0.280  0.0054  0.0329 -0.0867
33976W        W47390  15.186  11.936  12.302  0.1398 -0.2030  0.2079
33977W        W47391   1.804  15.839   5.787 -0.0209 -0.2229  0.0053
33978W        W47392   4.328   3.637   3.251 -0.0979  0.0642  0.0069
33979W        W47393   8.442  15.700  13.984 -0.2404  0.3339  0.0890
33980W        W47394   5.152  11.640  13.717 -0.3078 -0.1019 -0.4298
33981W        W47395  13.503  15.014  11.560 -0.1426  0.1916  0.0209
33982W        W47396   0.458   9.502   5.754 -0.2751 -0.2787 -0.0090
33983W        W47397  10.024  14.196   2.996  0.2022 -0.0953  0.1278
33984W        W47398  16.772  16.469   1.572  0.0175 -0.0082 -0.2139
33985W        W47399   5.113  15.981   1.829 -0.3906 -0.3105 -0.0909
33986W        W47400   9.681  18.068   2.667  0.0986  0.1818 -0.1307
33987W        W47401  11.311  17.868  15.986  0.1523 -0.0113  0.3801
33988W        W47402   6.551  11.256   4.925 -0.1380  0.1788  0.3083
33989W        W47403   8.268   8.958   5.369 -0.4986 -0.0554 -0.1002
33990W        W47404   4.840   3.562  14.410  0.0675  0.1598 -0.1992
33991W        W47405  18.366   6.072  12.438  0.0160 -0.0216 -0.0414
33992W        W47406  14.979  16.842   4.949  0.0670 -0.1297  0.1542
33993W        W47407   0.254   9.847   2.511  0.3519 -0.0183  0.0019
33994W        W47408   6.898  14.542  14.105 -0.0291 -0.0971  0.1745
33995W        W47409   7.897  13.767  10.762  0.0564 -0.2478 -0.1098
33996W        W47410  12.326   2.681   3.865  0.2688  0.0006  0.2242
33997W        W47411   9.940  16.946  14.166 -0.0245 -0.3178 -0.3003
33998W        W47412   7.114  10.177  15.089 -0.3255  0.0654 -0.1973
33999W        W47413   9.417   5.966  15.813 -0.0396  0.1885  0.2177
34000W        W47414  10.376   5.431  12.942  0.2721  0.0975 -0.1277
34001W        W47415  17.791   8.597   1.283  0.0436  0.3851 -0.1819
34002W        W47416  11.604  12.049  16.200 -0.1232  0.0021  0.2046
34003W        W47417  13.858  12.095  16.028  0.1211  0.0146 -0.1934
34004W        W47418  11.367  12.833   2.667 -0.2569 -0.3827 -0.3969
34005W        W47419   1.082  18.084   4.121  0.2575 -0.0827 -0.1983
34006W        W47420   7.491  12.746   3.938 -0.0608  0.1188  0.2165
34007W        W47421   6.305   7.365  12.918  0.3931  0.0487  0.2835
34008W        W47422  17.128  15.201  16.207  0.0775  0.1228  0.0488
34009W        W47423  10.686  14.553   2.588 -0.0632 -0.1385 -0.0083
34010W        W47424  15.274  15.414  14.079 -0.1429  0.3759 -0.2124
34011W        W47425  14.096   9.226   1.580 -0.2056 -0.3344 -0.0868
34012W        W47426  17.938   6.066   1.064  0.0138 -0.1930 -0.0505
34013W        W47427  10.903   2.495  12.166  0.2873  0.1960  0.0550
34014W        W47428   3.229   3.895   2.430 -0.3032  0.3945 -0.0515
34015W        W47429  14.021   6.360   0.751  0.0710 -0.3179 -0.2430
34016W        W47430  13.771  13.396   4.977 -0.0031  0.1287  0.2632
34017W        W47431  11.770  16.720  11.073  0.3011 -0.0951 -0.0578
34018W        W47432  10.071  16.872  15.150 -0.2230  0.1143 -0.1713
34019W        W47433   9.311   9.973   2.337  0.0265 -0.1362  0.0724
34020W        W47434   4.997  15.973   3.810 -0.0700  0.0965  0.0544
34021W        W47435   1.015  17.670  13.882 -0.1468  0.0844 -0.0433
34022W        W47436  13.012   4.730  13.668 -0.1189 -0.4534  0.1489
34023W        W47437   7.062  10.280   0.366  0.3149  0.1024 -0.6076
34024W        W47438  15.540  14.706   6.797 -0.2280 -0.0469  0.0946
34025W        W47439  14.800   5.286  12.360 -0.0518  0.0915  0.0867
34026W        W47440  14.019  17.265  15.172 -0.0396  0.0188 -0.1303
34027W        W47441   7.728   9.070   2.949 -0.1073 -0.1745  0.0368
34028W        W47442  10.017   6.424   4.679 -0.0683  0.0294  0.1077
34029W        W47443  10.294   1.272  13.883  0.0392 -0.3226 -0.0252
34030W        W47444   4.953  17.557  14.079 -0.3528  0.1744 -0.1995
34031W        W47445  10.667   9.246   5.464 -0.0060 -0.1422 -0.1637
34032W        W47446  15.722  10.651   5.644  0.0179 -0.2301 -0.0295
34033W        W47447   1.910  16.226   3.878  0.2331  0.0471 -0.0619
34034W        W47448  13.921  12.163  10.272 -0.0638  0.3003  0.1169
34035W        W47449  16.692  11.326   3.616  0.0086  0.3345 -0.0747
34036W        W47450   4.409  14.626  11.810  0.1977 -0.0699 -0.4139
34037W        W47451   7.546  17.417  15.955  0.0673  0.0121 -0.0246
34038W        W47452  18.055  12.828   0.542 -0.0085 -0.0125  0.0815
34039W        W47453   7.316   0.148   5.052 -0.0867  0.1735 -0.2528
34040W        W47454  16.652  12.459  15.282 -0.1014  0.0512 -0.2204
34041W        W47455   7.073   5.053  15.895 -0.2067  0.1225  0.1453
34042W        W47456  12.205  15.740   0.568 -0.0392 -0.1190 -0.2274
34043W        W47457   4.744  17.947  16.456 -0.1029  0.3614 -0.0334
34044W        W47458   1.605  10.456   2.750  0.2135  0.1730  0.0601
34045W        W47459   2.591  18.090   5.708  0.2935 -0.0418  0.2679
34046W        W47460   8.745  16.300  12.719 -0.3451  0.0943  0.0836
34047W        W47461  15.994   4.716   2.222  0.2065  0.1428  0.2109
34048W        W47462  12.635  15.438  14.705 -0.1771 -0.1522  0.1503
34049W        W47463   5.051  12.795  13.826  0.1236  0.2202  0.2460
34050W        W47464   7.027  15.119   5.108  0.1845  0.1533  0.0888
34051W        W47465   8.946   6.860  12.281 -0.1805 -0.0434  0.1130
34052W        W47466  11.127   5.925   2.408 -0.1728 -0.0410  0.1094
34053W        W47467   4.689   4.403   0.261  0.2240 -0.4916  0.2345
34054W        W47468   4.692  11.989  14.471  0.4150  0.0795 -0.0389
34055W        W47469   4.863   3.987   4.949  0.3253  0.1059 -0.0616
34056W        W47470  15.140  11.696  14.696  0.0415 -0.0422  0.0597
34057W        W47471   2.726  13.179  14.109  0.2561 -0.1328  0.0207
34058W        W47472   8.403  13.842   3.746 -0.1464 -0.0353  0.0767
34059W        W47473  11.502   6.743  10.237 -0.1637 -0.0156  0.0530
34060W        W47474   9.768   6.715  13.736 -0.2404 -0.0418 -0.4141
34061W        W47475   5.566  12.538   3.653 -0.0224  0.3818 -0.1598
34062W        W47476  15.895   3.412   1.844  0.0704  0.2504  0.0730
34063W        W47477  10.707   6.141   1.519  0.0606 -0.0007 -0.2169
34064W        W47478  17.659  10.042   0.321  0.1229 -0.1159  0.0048
34065W        W47479   5.347  13.684  14.166  0.1098  0.1170 -0.0903
34066W        W47480   2.889   2.230  14.095  0.2718 -0.0539  0.1145
34067W        W47481   7.637   4.528  15.271 -0.2354 -0.3922 -0.1303
34068W        W47482   5.303   6.990   1.463  0.2381 -0.1496  0.1236
34069W        W47483  11.471  10.225   3.375  0.0961 -0.2245  0.1876
34070W        W47484   8.282   7.230   4.786  0.3095 -0.3249  0.3143
34071W        W47485  11.016   4.190  13.912  0.0821 -0.0446  0.0525
34072W        W47486  12.406   0.407  14.771 -0.0803 -0.2112 -0.0461
34073W        W47487   4.017  11.012  13.258  0.1404  0.0581 -0.2783
34074W        W47488   4.368   4.716  12.176 -0.0035  0.1643  0.1878
34075W        W47489  14.576   7.639  16.041  0.0980  0.5219 -0.0040
34076W        W47490   0.209  15.428  14.878 -0.1703  0.0067 -0.2451
34077W        W47491   2.814   2.257  14.848  0.0269 -0.1081  0.2884
34078W        W47492   3.780   7.748   4.736 -0.0240 -0.2094 -0.0966
34079W        W47493  15.337  11.105  12.755 -0.0006 -0.1693 -0.2876
34080W        W47494  16.481   2.730  15.831  0.2047 -0.0106  0.0221
34081W        W47495   1.884   5.173  13.501 -0.2488 -0.0458  0.1763
34082W        W47496  13.628  12.081   4.415  0.2350 -0.0169  0.0032
34083W        W47497  14.557  18.213   3.078  0.1138 -0.2052  0.0746
34084W        W47498  13.135  10.343   0.184  0.1279 -0.2708  0.1925
34085W        W47499   7.337  18.189  14.123  0.1211  0.0541 -0.0238
34086W        W47500   8.275   7.734   2.923 -0.0800 -0.2955  0.0503
34087W        W47501   0.204  15.991  13.276  0.0833  0.0621 -0.0359
34088W        W47502   9.932   6.827   3.414  0.2491 -0.1912  0.0040
34089W        W47503   5.118   3.287   5.361 -0.0924  0.2293 -0.1825
34090W        W47504   5.329  14.835  14.484 -0.1297  0.1217  0.0474
34091W        W47505  18.037   0.455  10.812 -0.0074 -0.0956 -0.2201
34092W        W47506  14.526   0.909   5.472 -0.1754 -0.1277 -0.1644
34093W        W47507   4.073   8.289   0.850 -0.1022 -0.1311  0.0104
34094W        W47508  14.034   9.021   2.710  0.0121 -0.0509  0.0323
34095W        W47509   1.903  13.598  14.300  0.0415  0.0238 -0.0391
34096W        W47510  10.185  13.735   2.940 -0.0137 -0.0262  0.2020
34097W        W47511   9.835   8.674   0.720  0.2254  0.0692  0.2097
34098W        W47512   0.879   6.889  10.855  0.1883  0.1111  0.3573
34099W        W47513  13.269  16.060   1.947  0.1625  0.2323 -0.3019
34100W        W47514  14.312  15.084  15.486  0.0542 -0.0742  0.3003
34101W        W47515   4.280   1.199  10.821 -0.1998  0.0031 -0.0557
34102W        W47516   3.336   0.492  12.762  0.2634  0.0761  0.1351
34103W        W47517   0.665  18.222  11.367  0.0273 -0.1875 -0.0581
34104W        W47518   2.154   9.301   5.920  0.1064 -0.0646 -0.0241
34105W        W47519   7.939   6.863   2.960  0.0955  0.2686 -0.2006
34106W        W47520  12.417  10.864  12.555 -0.0767 -0.3074  0.1099
34107W        W47521   5.580   4.258  11.190  0.0511 -0.1290 -0.1413
34108W        W47522  10.983  16.952   2.449 -0.1242  0.2456  0.0249
34109W        W47523   8.857   1.144  15.968  0.0380 -0.0772  0.2704
34110W        W47524  13.578   1.967   3.986 -0.0976 -0.0638  0.1792
34111W        W47525  12.272   3.360  10.175  0.0768 -0.0359  0.2453
34112W        W47526   5.872  13.473   1.122  0.1050 -0.1490 -0.0850
34113W        W47527  14.554   0.193  12.290 -0.2069 -0.2099 -0.0075
34114W        W47528   8.141  11.720  11.680 -0.0417 -0.3886 -0.1442
34115W        W47529  12.153  14.192  15.490  0.0748 -0.0411  0.0144
34116W        W47530  13.672   7.242   0.722 -0.2732 -0.2196 -0.0196
34117W        W47531   5.427  18.265   0.286 -0.1832  0.2081 -0.1026
34118W        W47532   3.887  13.732  12.026 -0.1214 -0.0445 -0.1612
34119W        W47533   0.986  10.123  11.789 -0.1328  0.0071  0.2583
34120W        W47534  12.690  16.834   4.909 -0.3377  0.0224  0.1093
34121W        W47535  11.738   3.350   0.203 -0.0721 -0.0161 -0.1407
34122W        W47536  16.158   2.101   3.094  0.1541 -0.3867  0.3572
34123W        W47537   4.975  12.621   3.948  0.2091 -0.0245  0.2124
34124W        W47538  10.256   6.783   5.663 -0.1157  0.0237  0.1291
34125W        W47539   2.214   7.623  13.223 -0.3650  0.3752 -0.2391
34126W        W47540   8.233  12.824   3.569  0.1846 -0.2441 -0.0724
34127W        W47541  14.580   4.515   5.036  0.0828  0.0399 -0.4080
34128W        W47542   3.986  11.654   4.640 -0.0316  0.1935  0.2990
34129W        W47543  11.691  18.250  16.130  0.0778 -0.0325 -0.0534
34130W        W47544   1.485   8.652  12.753  0.1895  0.1530  0.2442
34131W        W47545   6.713   1.402  15.934  0.0614  0.1437  0.0809
34132W        W47546   2.410  14.052  15.997  0.1152  0.3197 -0.0939
34133W        W47547   0.315  16.756   0.620  0.3641  0.3909  0.1516
34134W        W47548  16.962  12.076  15.518  0.1920  0.0230  0.0098
34135W        W47549   6.157   9.255  12.012  0.1371 -0.2126 -0.1594
34136W        W47550  11.845  15.393   0.275 -0.1805  0.2171 -0.1791
34137W        W47551  11.975   9.574  11.373 -0.1583  0.0968 -0.3663
34138W        W47552  15.513   5.611   5.205  0.2240  0.1164  0.2206
34139W        W47553   6.900   7.622   9.928 -0.2810 -0.0573 -0.1747
34140W        W47554  13.841   3.677   3.120  0.0366 -0.1076 -0.0406
34141W        W47555  14.697  12.138  11.828  0.0096  0.2648 -0.3060
34142W        W47556   8.069   8.044   6.294  0.0599  0.1939  0.3892
34143W        W47557  11.438   5.796  13.527  0.1184 -0.0425 -0.5682
34144W        W47558  12.711   2.501   0.033 -0.1077  0.2065  0.2033
34145W        W47559   0.060   1.025  14.170  0.0558 -0.4540  0.0601
34146W        W47560  11.480   2.187  13.323  0.2964  0.1660  0.0670
34147W        W47561   2.675   1.237  13.277  0.0655 -0.1605  0.1316
34148W        W47562  10.501  17.039  11.732  0.1324 -0.1653  0.1194
34149W        W47563  13.937  16.539   6.082 -0.3450 -0.0028  0.0251
34150W        W47564  12.031  16.453   1.492 -0.1145  0.0842  0.2671
34151W        W47565  10.107   8.440  15.170  0.1886 -0.0787  0.0768
34152W        W47566  10.326   3.861  14.463  0.0996  0.0261  0.2142
34153W        W47567   9.693  13.740   0.499 -0.0586  0.2892  0.1754
34154W        W47568  13.136   9.697   0.245  0.2378 -0.0922  0.2027
34155W        W47569  11.295  15.535  12.900  0.1648 -0.3653  0.1940
34156W        W47570  14.483  11.137  13.299 -0.0564  0.0428 -0.0649
34157W        W47571   2.123   3.797  15.216  0.1254 -0.1193  0.1181
34158W        W47572   1.809   4.351   4.473 -0.0833  0.1299  0.1769
34159W        W47573   2.713  15.530  12.719  0.0325 -0.0126 -0.2123
34160W        W47574  17.038  13.417  12.971 -0.0301  0.2115  0.1564
34161W        W47575   1.290   0.336   1.331 -0.2811 -0.0801  0.1341
34162W        W47576  17.952  16.766  16.213  0.1261 -0.1313  0.1707
34163W        W47577   8.719  11.727  13.505 -0.4328 -0.0133 -0.1860
34164W        W47578   6.266   6.505   5.266  0.1513 -0.1638  0.1294
34165W        W47579  12.692   1.471  14.947 -0.3342  0.1883  0.1539
34166W        W47580  11.999  12.176  11.164 -0.2184  0.1720 -0.1206
34167W        W47581  13.949   6.263   5.065 -0.0527  0.2633  0.2504
34168W        W47582   3.246   5.510  13.657 -0.0439 -0.0719 -0.1154
34169W        W47583   5.767   1.592  11.051  0.0702  0.1491 -0.0094
34170W        W47584  16.246   7.683   3.664  0.1522  0.1226  0.0917
34171W        W47585  17.411   2.014   0.817  0.1503 -0.2279  0.0992
34172W        W47586   7.247  12.099  12.880 -0.2360 -0.2326  0.0948
34173W        W47587   7.987   0.406   4.204 -0.0873  0.2553  0.3005
34174W        W47588   5.884   0.980  13.255  0.5165  0.1165 -0.0606
34175W        W47589  12.902   1.411   4.795 -0.1544  0.2488 -0.2102
34176W        W47590  10.523   7.518   2.142 -0.0215  0.0971 -0.1193
34177W        W47591   9.900   9.052   3.091  0.1898  0.3322 -0.1689
34178W        W47592   2.345  15.635   1.647 -0.2012  0.0698  0.1692
34179W        W47593   1.595   8.532  11.658  0.0684  0.2185  0.1437
34180W        W47594   6.544   5.302  16.176  0.3991 -0.1101  0.2863
34181W        W47595  13.424  13.503  11.162 -0.1715  0.1862 -0.1896
34182W        W47596   2.364   9.862   2.837  0.1034  0.3220  0.3938
34183W        W47597  11.460   9.335   1.338  0.0281  0.0236  0.1170
34184W        W47598  10.849  17.503  12.456 -0.4484  0.4093 -0.1847
34185W        W47599  17.427  18.388  10.617  0.2156  0.3648  0.3215
34186W        W47600  11.200   6.042  13.965 -0.2453 -0.0826  0.1585
34187W        W47601   0.424   0.333   6.040 -0.1522 -0.2650  0.2320
34188W        W47602   4.740  18.272  12.968 -0.1824  0.0808  0.0640
34189W        W47603   7.730   1.565  12.160 -0.0938  0.1066 -0.0856
34190W        W47604  11.454  16.981   0.230 -0.1733  0.0128  0.1484
34191W        W47605   7.009  16.801   1.036  0.0744  0.0310 -0.0920
34192W        W47606   4.422   5.096   4.548 -0.2107 -0.0800 -0.1056
34193W        W47607   7.817  13.668  15.957 -0.1744  0.2447 -0.0445
34194W        W47608  10.913  17.768   9.816 -0.3129  0.2055 -0.4333
34195W        W47609   2.442   5.663   1.138 -0.0679 -0.1851 -0.0539
34196W        W47610  11.220  10.158   3.807 -0.2187  0.0327  0.0313
34197W        W47611  10.049  11.467   2.447  0.0587  0.5201 -0.1533
34198W        W47612  17.710  12.888  13.174 -0.0117  0.0757  0.4380
34199W        W47613   2.092  16.651  11.877 -0.0215  0.2199  0.0721
34200W        W47614   1.914   0.334  11.700 -0.0844 -0.0344  0.1173
34201W        W47615   8.737  11.898   2.317 -0.0475 -0.1476  0.0620
34202W        W47616   1.114   0.567  12.734  0.0551 -0.1550 -0.2626
34203W        W47617   8.755  11.417  14.572  0.0895 -0.0856 -0.1366
34204W        W47618  12.693   1.661  13.216  0.0507 -0.2523  0.0359
34205W        W47619   8.852   9.837  12.636  0.1644  0.0466  0.0002
34206W        W47620  14.019   0.268  13.713 -0.3233 -0.3863  0.1028
34207W        W47621   1.671  15.009   3.389  0.1957 -0.0672 -0.0860
34208W        W47622   3.706  10.060  11.275 -0.0859  0.2556 -0.0506
34209W        W47623   6.809   8.400   0.267 -0.1203  0.3192  0.3799
34210W        W47624   1.398  12.032   1.420 -0.1260  0.1631 -0.0450
34211W        W47625  17.194   1.024  13.961 -0.0624 -0.0454 -0.3590
34212W        W47626   7.575  16.278   3.343  0.1945 -0.1521 -0.0370
34213W        W47627  11.543  13.482   4.590 -0.1413 -0.1697 -0.1806
34214W        W47628  12.611   0.513  14.059 -0.3445  0.0265 -0.1011
34215W        W47629   8.540   9.488  11.432  0.1329  0.1273  0.4290
34216W        W47630  13.330   1.062  16.311 -0.1184  0.0024 -0.0344
34217W        W47631  12.993  17.534   2.414  0.2167  0.0689  0.0078
34218W        W47632   8.138  10.203  10.233  0.0388 -0.0938  0.0218
34219W        W47633   5.330   6.746  12.153 -0.4446  0.3627  0.2790
34220W        W47634   5.244  13.993  13.299 -0.0956 -0.0255 -0.0754
34221W        W47635  10.518   5.668   5.721 -0.1560  0.1542 -0.1531
34222W        W47636   8.747   2.114  11.169  0.0313 -0.1455  0.0734
34223W        W47637   9.602   5.469   0.310 -0.0535 -0.0247 -0.3379
34224W        W47638   4.914  11.379   1.512  0.0488 -0.0604  0.0244
34225W        W47639   9.764   0.464   9.598 -0.3619  0.4785  0.0480
34226W        W47640  16.267  17.700  14.194 -0.0323 -0.2059 -0.1096
34227W        W47641   7.372  16.808  13.009  0.0603  0.0321  0.0391
34228W        W47642   4.028  13.492  12.902  0.0782  0.0896  0.0777
34229W        W47643  11.118  14.692  12.437 -0.0167  0.0160 -0.1054
34230W        W47644  11.463   1.525   4.744  0.0521 -0.1109 -0.4319
34231W        W47645   3.210   5.453   0.098  0.1616  0.2151  0.0890
34232W        W47646   6.963   6.888  12.478  0.7548 -0.1694  0.1921
34233W        W47647   6.631  10.197   5.550  0.0151 -0.0490  0.0082
34234W        W47648  16.158  15.094   5.628  0.3061 -0.1416  0.3405
34235W        W47649  12.919  10.541  14.891 -0.2153 -0.0779 -0.0862
34236W        W47650   3.432   9.417   0.562  0.1414  0.1099  0.0130
34237W        W47651  16.715   2.911   2.827  0.0005 -0.3199 -0.0833
34238W        W47652   6.064   5.088  14.607  0.0372 -0.0659 -0.2508
34239W        W47653   6.848  16.497   1.422 -0.0626  0.1253 -0.0425
34240W        W47654  18.169   9.661   3.365 -0.1617 -0.2168 -0.0882
34241W        W47655   1.023  10.788   1.394  0.3637 -0.1610 -0.1309
34242W        W47656   9.385   6.852  10.476 -0.1197 -0.0768 -0.1233
34243W        W47657   4.810   9.574   5.259  0.2340  0.0932 -0.4198
34244W        W47658   0.496  15.164   1.438 -0.1901  0.0913  0.1154
34245W        W47659   5.421   0.045  11.288 -0.0997  0.3204  0.0869
34246W        W47660  14.075   6.934  11.623 -0.2789  0.3361  0.0503
34247W        W47661   9.986   1.939  13.816  0.2601  0.0641  0.0846
34248W        W47662   8.512   3.015   1.403  0.2314  0.0056  0.1980
34249W        W47663   3.097  12.857  16.201 -0.4519  0.1942 -0.1240
34250W        W47664   2.178   3.976  15.706 -0.0251 -0.1443 -0.0415
34251W        W47665   5.811   3.949   4.408 -0.1632  0.0659  0.0177
34252W        W47666  12.628   9.072   4.228 -0.2193  0.1354 -0.1960
34253W        W47667   3.243  11.902   0.015 -0.1249 -0.0355 -0.2074
34254W        W47668  15.988  11.837  15.585 -0.0035 -0.4064 -0.0171
34255W        W47669  15.531   6.940  13.749  0.0069 -0.0543  0.1211
34256W        W47670   4.439   2.469  10.891  0.0600 -0.2023 -0.1444
34257W        W47671   4.900   4.678  16.237 -0.2027 -0.0222 -0.3590
34258W        W47672  18.061   9.848  14.744 -0.0201  0.3721 -0.1953
34259W        W47673  15.805  17.112   5.829  0.1395 -0.1662 -0.0313
34260W        W47674   8.242   3.591   5.095  0.0214 -0.1991  0.0311
34261W        W47675  11.707  11.809  13.584 -0.0060 -0.1101 -0.1932
34262W        W47676   9.751  18.300  14.500  0.0584  0.1571  0.2385
34263W        W47677   9.157   2.045   2.332  0.0622  0.1200 -0.2515
34264W        W47678   3.064   3.046   0.023  0.1499 -0.0154 -0.1842
34265W        W47679  14.225   7.565  13.257  0.1123  0.0473 -0.2132
34266W        W47680  13.940   5.938  12.576  0.2717  0.2088 -0.0633
34267W        W47681   8.015  13.783   3.434 -0.3364  0.3163  0.0318
34268W        W47682   2.335   1.549  12.252  0.0529  0.0323  0.0570
34269W        W47683  14.125   2.903  12.018 -0.1869 -0.1930  0.1562
34270W        W47684  15.342   6.905  10.876 -0.4356 -0.1989  0.2619
34271W        W47685  11.928   8.490  11.691  0.1258  0.0256  0.1274
34272W        W47686   3.028  11.538  12.312 -0.0570  0.0116 -0.0387
34273W        W47687  11.638   8.202  13.195  0.1114 -0.1257  0.0403
34274W        W47688   8.803   4.359  13.580 -0.1811 -0.1502 -0.0889
34275W        W47689   5.011   5.264   5.519  0.1732  0.1318  0.2984
34276W        W47690   2.083  16.622   0.297 -0.0295 -0.0422 -0.1604
34277W        W47691  14.967  13.584  14.830 -0.2099  0.0232  0.0617
34278W        W47692   7.283   5.455   5.490  0.1289 -0.0250 -0.4787
34279W        W47693   0.079   9.823   5.563 -0.1015 -0.0104 -0.0742
34280W        W47694   4.045   7.700   5.271 -0.1150  0.0325  0.4313
34281W        W47695   3.346  14.172  14.433  0.0114  0.0574 -0.2866
34282W        W47696   6.318   7.605  11.660  0.2997  0.1766 -0.0627
34283W        W47697   7.019   8.454   0.790  0.0143 -0.1489  0.0845
34284W        W47698  12.336  10.165   3.114 -0.0575  0.0549  0.0754
34285W        W47699  11.457   0.574   1.878  0.0863 -0.2245  0.1728
34286W        W47700  10.224  15.041  11.625 -0.5233 -0.1508 -0.2121
34287W        W47701   6.157  18.308   3.247 -0.0350 -0.0736  0.0264
34288W        W47702  10.812   5.300  13.064  0.3268  0.0537 -0.1111
34289W        W47703   8.865   9.011  14.760  0.3973 -0.0237 -0.2842
34290W        W47704  14.958   6.159  10.598 -0.1765 -0.1258 -0.1513
34291W        W47705   7.021   3.388   2.601  0.1271  0.0445  0.0175
34292W        W47706  17.771  10.610   4.480  0.1920  0.0275  0.0769
34293W        W47707   0.033   0.855  16.192 -0.2329 -0.1119 -0.1441
34294W        W47708  14.432  16.571   0.015 -0.5192  0.0989  0.2563
34295W        W47709  14.829  13.875   0.603  0.1591  0.0293  0.1182
34296W        W47710   3.184  11.532   0.350 -0.0120 -0.1205 -0.2683
34297W        W47711  15.031  12.189   3.392  0.4719  0.1910  0.1910
34298W        W47712   3.530   3.124  16.316 -0.1897 -0.0640 -0.2524
34299W        W47713  11.424   0.544  14.638  0.0528 -0.1356 -0.1105
34300W        W47714  12.201  10.387  12.123  0.1106  0.0134 -0.1542
34301W        W47715  15.148  16.255  15.223  0.0807 -0.0575  0.1565
34302W        W47716  11.339  14.221  12.498  0.0966 -0.1417  0.0199
34303W        W47717  11.870  17.530   4.693  0.0438  0.0881  0.0168
34304W        W47718  10.340  14.869   0.834  0.1200 -0.2959  0.0661
34305W        W47719  14.460   7.124   3.015  0.3161 -0.0224  0.0611
34306W        W47720   7.679   6.339   4.930  0.1477  0.2010 -0.3544
34307W        W47721  10.015   7.462   1.551  0.1575 -0.4062  0.0002
34308W        W47722   6.468   5.128   3.024  0.3934  0.1044 -0.0163
34309W        W47723   7.457   4.700  11.989 -0.1719  0.4916  0.2042
34310W        W47724   9.899  17.940   0.069  0.2396  0.0126 -0.0151
34311W        W47725   5.099   0.377  14.404  0.4253 -0.0169 -0.1091
34312W        W47726  17.961   7.491  10.751  0.1931  0.1139 -0.3027
34313W        W47727   7.406   5.110   2.870  0.0091  0.2677  0.0638
34314W        W47728   7.720  14.996  14.286 -0.0791  0.2425 -0.0319
34315W        W47729   8.609  14.859   0.599  0.1469 -0.1365  0.0521
34316W        W47730   7.925   9.305   3.517  0.0097 -0.0241  0.4900
34317W        W47731  18.227   8.989  10.653  0.2369 -0.0361 -0.1786
34318W        W47732  12.257   2.088   9.668 -0.0663  0.0855  0.5559
34319W        W47733   3.234  16.526   1.530  0.3153  0.1468  0.0519
34320W        W47734   5.473  15.740   2.191 -0.2601 -0.1260 -0.0876
34321W        W47735   0.734   8.999   0.872 -0.1816 -0.0409  0.0795
34322W        W47736  15.314   0.244   6.167  0.0043 -0.1709  0.3148
34323W        W47737  12.133   9.986  15.848 -0.0466 -0.2092  0.0779
34324W        W47738   9.114   6.504   3.045  0.0822  0.0271 -0.1570
34325W        W47739  17.140   8.114   1.830  0.1698  0.0669 -0.3362
34326W        W47740  15.188   3.366   2.744 -0.0587  0.0890  0.1773
34327W        W47741   3.861   7.073   3.129  0.0693 -0.0644 -0.2825
34328W        W47742   0.417  10.216   2.213  0.0113 -0.1070 -0.2481
34329W        W47743  11.772  11.179   3.791  0.0997 -0.1236 -0.3483
34330W        W47744   5.305   4.226  12.137  0.1298  0.0594 -0.1263
34331W        W47745  18.301   7.503  14.723  0.2145 -0.0681 -0.1306
34332W        W47746   2.683   0.358  11.340  0.0004 -0.0181  0.3497
34333W        W47747   4.301  13.438  13.689  0.0716  0.3353 -0.0577
34334W        W47748   0.489  13.014  15.175  0.0086  0.0719 -0.0527
34335W        W47749  16.017   6.703   5.257 -0.0152  0.2447 -0.0360
34336W        W47750  11.475  12.828   5.627 -0.0439 -0.4211  0.1121
34337W        W47751   8.002   5.492  15.434  0.0406  0.2222  0.0992
34338W        W47752   4.504  18.061   0.795 -0.1026 -0.1226  0.0016
34339W        W47753   3.924   1.135  12.734 -0.3137 -0.2606 -0.1526
34340W        W47754   4.924   9.681  11.914  0.1534  0.0681  0.1471
34341W        W47755   9.065   6.212  16.161  0.2004 -0.2358  0.2361
34342W        W47756   9.667  15.216   5.582  0.3443  0.0412  0.0004
34343W        W47757   8.298  16.114   1.287 -0.0898 -0.3689 -0.3587
34344W        W47758  17.499   2.922   0.337 -0.2954 -0.1301 -0.0742
34345W        W47759   5.076   3.908  14.704 -0.0821 -0.2588  0.0964
34346W        W47760  11.554   8.610   4.314 -0.0250  0.1093 -0.0656
34347W        W47761  11.336  16.320   3.577 -0.2685  0.0591  0.2636
34348W        W47762  14.355   3.723   2.971  0.0333 -0.1474 -0.1205
34349W        W47763   1.986   0.702  13.173 -0.0370 -0.0510 -0.3878
34350W        W47764  12.477  11.086  13.533 -0.0295 -0.4800 -0.2057
34351W        W47765   8.905   9.344  12.859  0.0842  0.3411  0.1357
34352W        W47766   1.581   6.912   0.077 -0.2321  0.2409  0.2088
34353W        W47767   8.603  12.193  11.532 -0.2494 -0.0284  0.1484
34354W        W47768  10.018  13.943   3.771  0.2074 -0.1241 -0.2179
34355W        W47769   0.498   3.478  15.145 -0.2883 -0.0502  0.1901
34356W        W47770  17.059  14.784   2.816 -0.3039 -0.0233  0.0405
34357W        W47771   1.294   9.150   5.228 -0.1363  0.0073 -0.0529
34358W        W47772  15.886  10.063  11.422 -0.1859 -0.1627 -0.0704
34359W        W47773   2.919   8.301  13.102  0.3750 -0.0605  0.2584
34360W        W47774   7.409   2.681  12.233 -0.0792 -0.1233 -0.5399
34361W        W47775   0.423   2.898  12.440 -0.1344 -0.0132 -0.2890
34362W        W47776   6.638  16.599  12.366  0.0128 -0.3036  0.1288
34363W        W47777   1.681  13.972   1.150 -0.0074  0.0574  0.0360
34364W        W47778  11.935   2.970   2.219  0.1483 -0.2477  0.0951
34365W        W47779   3.489  10.855   5.060  0.0383 -0.4795 -0.0642
34366W        W47780  17.831   6.410   1.967 -0.0758 -0.4483  0.2255
34367W        W47781   4.078   5.453  11.329 -0.2478  0.2011 -0.0098
34368W        W47782  15.275   2.261  16.206  0.2422  0.0165  0.2902
34369W        W47783  12.850   9.799  13.560  0.0349  0.0172  0.0705
34370W        W47784   3.951   1.901   2.743  0.1064  0.2512  0.0437
34371W        W47785  12.882   8.079  10.838 -0.1649  0.1674 -0.0572
34372W        W47786   0.936   9.793  12.175 -0.0739 -0.0238 -0.0673
34373W        W47787  15.468   1.145  15.257  0.0018  0.0050 -0.1026
34374W        W47788   3.773  10.620  12.592 -0.0567  0.1019 -0.3312
34375W        W47789   5.716   4.329  13.680  0.0646  0.2308 -0.1110
34376W        W47790   1.969   2.968  12.486  0.1677 -0.1438  0.0156
34377W        W47791  12.420   7.021  13.584  0.0044 -0.0909 -0.2185
34378W        W47792  15.709   6.930   9.993  0.1178 -0.0938  0.1495
34379W        W47793  12.334   3.252   3.302  0.2390 -0.1103  0.1377
34380W        W47794   0.562  14.474  11.601  0.4009  0.1681 -0.2508
34381W        W47795  12.482   7.445  16.384 -0.0572 -0.4493 -0.0668
34382W        W47796   7.099  10.691   2.197  0.1471 -0.0257 -0.0119
34383W        W47797   9.221  11.509   0.426 -0.0659  0.2106 -0.0563
34384W        W47798   1.774  11.880   2.324  0.1567 -0.1805 -0.0069
34385W        W47799  16.465   6.246   0.630  0.1064 -0.1377 -0.2005
34386W        W47800   6.612   9.819   2.725 -0.1600 -0.1725  0.0296
34387W        W47801  12.364  17.165  12.514  0.0492 -0.0718  0.3453
34388W        W47802  17.372   9.259  16.363 -0.1710 -0.3013 -0.2193
34389W        W47803  10.377  11.892  15.407  0.1112  0.2793  0.1505
34390W        W47804   3.521  11.504  14.712 -0.1628 -0.1295 -0.2324
34391W        W47805   6.698   9.750  15.037 -0.1037  0.1510 -0.0442
34392W        W47806  15.493   5.291  15.931 -0.0938  0.0306  0.1088
34393W        W47807   6.381   1.002  13.161 -0.0297 -0.4333  0.0393
34394W        W47808   0.968  11.918   5.255  0.1080 -0.1577 -0.2716
34395W        W47809  16.324   3.141  14.429 -0.0770  0.0960  0.0955
34396W        W47810  13.479  12.888  13.089 -0.1859 -0.1002 -0.1682
34397W        W47811   9.191   4.352   0.564  0.1563  0.0414  0.1380
34398W        W47812  10.588  13.029   4.515  0.0757  0.3685 -0.0122
34399W        W47813  16.722  15.431  15.008 -0.2500  0.0400  0.1381
34400W        W47814   9.667  16.316   3.669  0.0663  0.2677 -0.1890
34401W        W47815   5.899   5.820   4.083 -0.1726  0.3536  0.1164
34402W        W47816   1.346  12.728   2.585 -0.2802 -0.5240  0.0290
34403W        W47817   7.870   1.608   5.785  0.1128  0.2380 -0.0248
34404W        W47818  11.615   4.995   1.210 -0.0553 -0.2314 -0.2008
34405W        W47819  12.543   4.668  12.496 -0.1663  0.0689 -0.1288
34406W        W47820  17.574   4.384  15.899 -0.0272  0.0141  0.1885
34407W        W47821   0.851   8.899   5.078  0.1392 -0.0082  0.2867
34408W        W47822  12.035   6.731   2.227 -0.0380  0.0705 -0.3412
34409W        W47823  10.648   5.172   1.313 -0.1173 -0.1937  0.0594
34410W        W47824   3.851  17.680  15.546 -0.0133 -0.2690 -0.3166
34411W        W47825   7.302  17.413  11.543 -0.2008 -0.0831 -0.5372
34412W        W47826  12.584   6.478   0.181 -0.0308  0.1140  0.2481
34413W        W47827   2.618   3.165   2.333  0.0189  0.2304 -0.0378
34414W        W47828   7.720   0.356  12.750 -0.2758  0.0754  0.3867
34415W        W47829  12.618  17.969  13.215  0.2610  0.0697  0.2143
34416W        W47830  11.161   9.617   3.830  0.2483 -0.0404  0.2300
34417W        W47831  17.268   1.405   0.014  0.2993  0.1126  0.0298
34418W        W47832   7.960  11.140  14.004  0.1280  0.1659 -0.2264
34419W        W47833   1.086   4.690   0.713 -0.0593 -0.0597  0.2243
34420W        W47834   4.277  16.517   4.903  0.0931 -0.1043 -0.2311
34421W        W47835  17.511   1.316   6.001 -0.1362  0.0725 -0.0030
34422W        W47836   7.800   0.602   0.747 -0.1846  0.0783  0.0954
34423W        W47837   3.186  11.410  14.390 -0.0511 -0.1609  0.5337
34424W        W47838   4.359  15.641  16.346  0.2238  0.0543  0.0923
34425W        W47839  16.131   7.246   4.773 -0.0876  0.2708  0.2077
34426W        W47840   4.678   8.732   3.741 -0.1134 -0.2889  0.3875
34427W        W47841  12.949   5.736   9.685  0.0692 -0.1986  0.0717
34428W        W47842   6.941  11.570   1.898  0.5557  0.3161  0.2173
34429W        W47843   8.313   6.526   2.571  0.1606 -0.4505 -0.1648
34430W        W47844   6.259  15.861   6.094 -0.4046  0.1536  0.0411
34431W        W47845   7.876  12.419  12.200 -0.0605 -0.3678  0.1469
34432W        W47846  14.541   7.639   1.755  0.4137 -0.0997 -0.0314
34433W        W47847   5.905   9.609   3.701 -0.0770  0.2275  0.2218
34434W        W47848  13.792   8.114   6.063 -0.1877  0.0252  0.0727
34435W        W47849  15.472   2.605  11.918 -0.1012  0.3016  0.4288
34436W        W47850  18.300   6.938  14.930  0.1823 -0.3277  0.4437
34437W        W47851   9.191  13.571   4.321 -0.0736  0.0240 -0.1706
34438W        W47852  11.076  12.758   5.869  0.0397  0.1304  0.1288
34439W        W47853   8.213   9.602  14.993 -0.3493 -0.0313  0.0245
34440W        W47854  14.112  16.369  15.263  0.3580 -0.0251 -0.5230
34441W        W47855   5.647  11.489   3.204  0.2061 -0.0645  0.2585
34442W        W47856  17.928   9.895  13.801 -0.3053 -0.0525 -0.3762
34443W        W47857  15.590  18.302  15.246 -0.1553 -0.4231 -0.1313
34444W        W47858   6.916   7.539  15.983  0.4744 -0.0383  0.2060
34445W        W47859   6.959   1.931  15.890 -0.2007 -0.0776 -0.3655
34446W        W47860  13.117  14.816   5.080  0.2494 -0.1383 -0.0295
34447W        W47861  11.865  11.864  14.856  0.2048 -0.3607 -0.1096
34448W        W47862   3.542  10.592   5.501 -0.2712 -0.0684  0.1279
34449W        W47863  13.397   4.130  16.145  0.3334 -0.3353 -0.0251
34450W        W47864  17.887   0.155   0.995 -0.2126 -0.2276 -0.0642
34451W        W47865  18.327   5.992   0.155  0.3341  0.3818 -0.0156
34452W        W47866  10.318  18.005  13.203 -0.0499  0.0107 -0.4553
34453W        W47867  13.498  15.360  13.251 -0.4021  0.0407 -0.2245
34454W        W47868  15.605   5.492  10.904 -0.1660  0.3791 -0.4683
34455W        W47869   0.049   4.531  12.063 -0.2187  0.2911 -0.0404
34456W        W47870  15.538   7.474  14.565 -0.0494  0.1707 -0.0131
34457W        W47871   6.260   7.907   2.017  0.1613 -0.0541  0.0217
34458W        W47872  15.363   9.190  15.768 -0.0415 -0.1999  0.0078
34459W        W47873   0.617   4.692   0.625  0.0386  0.0802 -0.1355
34460W        W47874   9.160  16.948   2.731  0.1402  0.1537 -0.1492
34461W        W47875  15.811   1.741   2.713 -0.2353 -0.0395  0.3685
34462W        W47876  14.885  13.458  13.874  0.0647 -0.0823 -0.1656
34463W        W47877  16.354   4.028   5.804 -0.0861 -0.1141 -0.0735
34464W        W47878   6.778   9.323  13.943 -0.2666  0.1078  0.0950
34465W        W47879  17.990  12.322  11.054 -0.2709 -0.0744 -0.1256
34466W        W47880   9.472   2.584   2.733 -0.2154  0.0102  0.1984
34467W        W47881   5.129  11.370  16.038 -0.1022 -0.1740  0.2192
34468W        W47882   0.323   4.376   1.168  0.2591 -0.0787  0.0542
34469W        W47883   9.881   2.030  15.325 -0.0778 -0.3535 -0.0750
34470W        W47884  12.128   1.840   1.532 -0.3251  0.1884 -0.0714
34471W        W47885   7.557   5.965   1.322 -0.0307  0.1072  0.2525
34472W        W47886  16.595   5.639  10.111 -0.1322 -0.2941 -0.2351
34473W        W47887   1.980  14.048  11.838 -0.1432  0.0468 -0.2241
34474W        W47888   2.588  16.998   2.302 -0.0951 -0.0897  0.0818
34475W        W47889   5.923   0.993   6.398  0.2248  0.0191 -0.1774
34476W        W47890  16.748  11.325   2.156  0.0691  0.0802 -0.3889
34477W        W47891   2.904   0.616   0.041 -0.2213  0.0794 -0.0041
34478W        W47892  14.090   6.811   1.597 -0.1433  0.0855  0.1029
34479W        W47893   8.863   8.818   4.283 -0.1215 -0.0579 -0.0901
34480W        W47894  14.831  13.202  12.645  0.0213 -0.0735  0.2229
34481W        W47895   5.468  13.304  12.437 -0.1607 -0.1272  0.1266
34482W        W47896   4.613   0.876   3.650 -0.1327  0.2012 -0.2880
34483W        W47897   3.807   5.674  13.197  0.0007 -0.2624  0.0265
34484W        W47898   5.851  15.381   2.349  0.1256  0.0720  0.0406
34485W        W47899  17.278   7.133   4.647  0.0554 -0.1799  0.0915
34486W        W47900  13.562  14.631  14.504  0.0207  0.0701 -0.1335
34487W        W47901   8.278  14.548   2.781 -0.2836  0.0983  0.2442
34488W        W47902  15.968   0.371   3.024 -0.0159  0.0063 -0.0987
34489W        W47903   1.583  16.594   1.668  0.1145 -0.1522 -0.0359
34490W        W47904  15.765  11.136   5.763  0.1536  0.1006 -0.0625
34491W        W47905   1.224  15.474   4.814  0.1324 -0.1211 -0.0368
34492W        W47906   4.160   0.278   4.911 -0.1343  0.2544 -0.0750
34493W        W47907   4.927  14.660   3.730 -0.4252 -0.1348  0.0745
34494W        W47908   3.865   9.113   3.979  0.0067  0.1466 -0.1045
34495W        W47909  12.133  11.327   2.812 -0.0113  0.1674  0.2177
34496W        W47910   3.458   0.942  12.612 -0.0345  0.1577 -0.1372
34497W        W47911   3.945   5.696  11.723 -0.0726  0.0446  0.1284
34498W        W47912   1.938   2.389  14.457  0.0003 -0.0839 -0.3965
34499W        W47913  15.966   0.899   0.088  0.1138  0.1032  0.1455
34500W        W47914  11.250   3.876   3.199 -0.0315 -0.0338 -0.1232
34501W        W47915   2.281   8.138  13.006  0.1151  0.2014 -0.3696
34502W        W47916  10.219  16.647  10.684 -0.0109  0.0160  0.0080
34503W        W47917  12.872   5.173  11.912  0.0333 -0.2552 -0.0173
34504W        W47918   1.846   6.527   4.844 -0.2767  0.1156  0.0349
34505W        W47919   9.444   1.446   0.826 -0.1091 -0.1152 -0.2269
34506W        W47920  14.346   1.117  15.734  0.0102 -0.1074 -0.4576
34507W        W47921  12.736  15.572  11.284 -0.1305  0.1397  0.2858
34508W        W47922   8.287  15.452   2.948 -0.2339  0.0416  0.2411
34509W        W47923   6.274   6.621  14.597  0.3490 -0.2683 -0.0261
34510W        W47924   4.696  11.494  13.206  0.0044  0.1000  0.1133
34511W        W47925   4.990   8.693   3.315 -0.0581 -0.0191 -0.0168
34512W        W47926   2.023  10.044  11.490 -0.4212 -0.2109 -0.4302
34513W        W47927  11.264  12.331  15.479 -0.1309 -0.3972  0.1356
34514W        W47928   8.306   3.543  10.684  0.1393  0.2417 -0.2138
34515W        W47929   9.851  11.188  13.041 -0.2199  0.0091  0.0467
34516W        W47930  16.339  16.890  11.522  0.0905  0.2007  0.1531
34517W        W47931   0.694   0.017  13.291  0.6997  0.0451  0.3465
34518W        W47932   5.431   9.778   1.469  0.2012 -0.1854 -0.0429
34519W        W47933   5.014   5.131   4.533 -0.5381  0.0635 -0.2749
34520W        W47934  15.134   5.526  13.270 -0.0396  0.1000 -0.0146
34521W        W47935  14.937  14.314   5.053 -0.0787  0.2078 -0.0654
34522W        W47936  16.410   4.403   2.014  0.0163 -0.0551 -0.0928
34523W        W47937  17.287   5.484   2.763  0.1456  0.0665 -0.0735
34524W        W47938  13.040  15.642  13.277  0.1913  0.4349  0.1314
34525W        W47939  13.224   8.952   1.996  0.0734 -0.4461 -0.1750
34526W        W47940   2.976   4.501  14.611 -0.2009 -0.2151 -0.0664
34527W        W47941   3.061   4.434  14.094 -0.0029  0.0920  0.3181
34528W        W47942   0.032  14.113  14.434  0.1172 -0.1908 -0.1518
34529W        W47943  13.981  15.811   4.935 -0.0263  0.0389 -0.1969
34530W        W47944  16.019   6.317  14.959 -0.1720  0.0098  0.0095
34531W        W47945  14.018   3.935   4.793  0.2487  0.2076 -0.4441
34532W        W47946  15.282   9.518  15.051  0.0864  0.0810  0.1675
34533W        W47947   8.975  11.898  15.266 -0.1241 -0.1166  0.0757
34534W        W47948   6.818   2.381  11.003 -0.2285  0.0467  0.0967
34535W        W47949   0.193   9.360   5.159  0.1705 -0.1833 -0.1280
34536W        W47950  10.673  17.352  13.738  0.0683  0.3028 -0.2025
34537W        W47951   4.346   2.046   3.759 -0.0992 -0.1700  0.0314
34538W        W47952  14.057   4.765   3.467 -0.0680  0.1485 -0.1480
34539W        W47953  11.031   3.132  11.232  0.0078 -0.2906  0.3438
34540W        W47954  13.091   6.376   2.116 -0.3096  0.3959  0.4326
34541W        W47955   3.322   5.738   3.176 -0.0260 -0.0764  0.1556
34542W        W47956   1.523   9.890   3.687  0.2966  0.3276 -0.0089
34543W        W47957  17.126  12.763   4.044  0.1308 -0.0838 -0.0779
34544W        W47958  16.487   1.525  14.584  0.1725  0.2425 -0.1224
34545W        W47959   8.774  10.574  12.015  0.0198  0.0297 -0.1696
34546W        W47960  14.652  16.917  12.192  0.2438  0.0068 -0.1057
34547W        W47961   1.535   1.957   2.303  0.4062 -0.0625 -0.0314
34548W        W47962   3.240   3.652  15.312  0.1850 -0.1486 -0.0058
34549W        W47963   7.888  17.020   0.648  0.0582  0.2066 -0.0172
34550W        W47964   3.423   9.078   5.476 -0.1807  0.1968  0.2764
34551W        W47965   2.621   4.565  15.596  0.0358 -0.2554 -0.0006
34552W        W47966   4.105  16.490  12.816  0.1371  0.0356 -0.2452
34553W        W47967  17.210   7.957  16.228 -0.0469  0.0014 -0.2321
34554W        W47968   3.747   0.986  14.948  0.0941 -0.0585 -0.4734
34555W        W47969   8.253  12.320  14.072 -0.1759  0.1350  0.0179
34556W        W47970   4.170   4.915   5.758  0.0426 -0.0886  0.0914
34557W        W47971   7.835   8.931   1.358 -0.0172  0.0295  0.1207
34558W        W47972   4.394  11.977   4.423 -0.2996  0.1046 -0.0905
34559W        W47973   4.235  10.326   2.166  0.0937 -0.0618 -0.1291
34560W        W47974   7.597   7.347   0.275  0.2481  0.0150 -0.1032
34561W        W47975   2.838   8.488   5.407 -0.0193 -0.1695  0.1324
34562W        W47976  11.194  18.135   5.055  0.0715 -0.1116 -0.2738
34563W        W47977   2.517   2.206   5.795  0.0843  0.1024 -0.1847
34564W        W47978   1.780  16.939   5.923 -0.0628 -0.1820 -0.1813
34565W        W47979   5.564  12.401  15.373 -0.0775  0.1703  0.1032
34566W        W47980  10.702  12.175   3.789 -0.0047  0.0859 -0.1156
34567W        W47981  14.050  17.715  14.753  0.0954  0.2317 -0.0096
34568W        W47982   6.185   0.255   0.429 -0.0183 -0.0382 -0.0317
34569W        W47983  14.585  13.224  13.463  0.0256 -0.1765 -0.1209
34570W        W47984  16.362   0.250   2.771 -0.0712  0.0160  0.3318
34571W        W47985   4.182   9.722   0.111  0.1554 -0.2800 -0.0774
34572W        W47986  13.767  16.165  14.977 -0.1356 -0.3805  0.0500
34573W        W47987  16.163  16.009  11.648  0.1638  0.0736 -0.2181
34574W        W47988  17.149   3.650  12.961 -0.3271  0.0314  0.1469
34575W        W47989  16.362  13.892  11.017  0.1274  0.2319  0.1122
34576W        W47990  16.935   3.997  15.250  0.2481 -0.0499 -0.0142
34577W        W47991   6.701   2.136  10.504 -0.0257  0.4388 -0.2305
34578W        W47992  10.270  10.133  10.238  0.0811  0.0789 -0.0905
34579W        W47993  11.818   5.943   1.737  0.1621 -0.2429  0.1640
34580W        W47994   2.624   6.028   3.627 -0.2716 -0.0653  0.0486
34581W        W47995  13.000  17.858   4.970  0.0159 -0.0365 -0.1554
34582W        W47996   0.829  18.041  14.204  0.0258 -0.1998 -0.0199
34583W        W47997  10.168   8.591  10.421 -0.2951 -0.3342 -0.0371
34584W        W47998   2.273  12.222  11.498 -0.1077  0.1379  0.0128
34585W        W47999  13.469   9.311   0.422  0.3253  0.0290 -0.5766
34586W        W48000   1.687   2.316  10.956  0.0344  0.0413 -0.3284
34587W        W48001   9.576  13.162   2.496 -0.1812 -0.0522  0.0292
34588W        W48002   5.066   6.270  10.206 -0.1997  0.1353 -0.0842
34589W        W48003   4.139   1.999   4.550 -0.1330  0.0661 -0.2437
34590W        W48004  10.494   2.636  14.863 -0.0979 -0.1577  0.0063
34591W        W48005  15.571  14.623  10.879 -0.0588 -0.2129  0.5464
34592W        W48006  11.307  12.886   0.426  0.0546 -0.1365  0.1316
34593W        W48007   9.912   8.852   2.165 -0.0691  0.3055 -0.0498
34594W        W48008   8.649   4.570  10.086  0.0474  0.0463 -0.0122
34595W        W48009  16.963   6.572  12.569  0.1358 -0.0766  0.2582
34596W        W48010  14.792   2.937  15.230 -0.1188 -0.0620  0.1530
34597W        W48011   1.140   6.774  16.309  0.2665  0.0289  0.0671
34598W        W48012   3.818   2.930  11.180  0.0051 -0.0810  0.0104
34599W        W48013   3.659  10.165  12.754 -0.0564 -0.2192  0.0458
34600W        W48014  16.513   2.174   1.440 -0.1215  0.0560 -0.0545
34601W        W48015  16.281   9.639  14.838  0.2815  0.0726 -0.3549
34602W        W48016   3.902  15.182   3.315  0.0769 -0.0517  0.0039
34603W        W48017   7.031   7.755   4.261  0.0136  0.1133  0.0806
34604W        W48018   8.754  13.298   5.509  0.0084  0.0449 -0.0380
34605W        W48019  10.568   0.845  12.951  0.3128  0.1525 -0.0109
34606W        W48020   6.929   1.780   2.912  0.0360  0.0655 -0.0712
34607W        W48021   8.485   4.798   0.698 -0.2181  0.1957  0.2495
34608W        W48022   5.898  16.987  15.459  0.1710 -0.0174  0.2164
34609W        W48023  17.762   4.128   1.522  0.0118  0.0292  0.1822
34610W        W48024   4.574   3.891  11.543  0.1153  0.0387 -0.0377
34611W        W48025  10.103   4.627   3.467  0.2986  0.0013  0.1925
34612W        W48026  14.514  16.283   0.881  0.2311 -0.2345 -0.0188
34613W        W48027  16.398   3.519   4.437 -0.2050 -0.1731  0.1560
34614W        W48028   3.846  16.387   1.898  0.0309 -0.1574 -0.0525
34615W        W48029   8.498  12.595  13.677  0.0362 -0.0905  0.2075
34616W        W48030   6.806   1.368  15.410 -0.2257 -0.1468  0.1942
34617W        W48031   2.044  13.532  15.302 -0.1697 -0.0976  0.1550
34618W        W48032   6.421  14.847   2.848 -0.2259  0.3180  0.0627
34619W        W48033  17.324   9.660   0.208  0.1424  0.0063  0.2483
34620W        W48034  10.516  11.424   4.954 -0.0111  0.1863 -0.1354
34621W        W48035  18.356  14.611  10.767 -0.0765 -0.0619  0.0129
34622W        W48036   0.869   2.058   1.649  0.1697 -0.0246 -0.0222
34623W        W48037   0.534   8.355   2.132  0.4611 -0.0319  0.1046
34624W        W48038   0.144  12.087  16.495  0.0584  0.3757 -0.4172
34625W        W48039  12.909   3.022  13.935 -0.2010 -0.1343 -0.1026
34626W        W48040  15.643  11.878   1.689 -0.0155 -0.0862  0.2230
34627W        W48041   6.917  17.681  11.350 -0.0731  0.0213  0.0410
34628W        W48042   5.539   8.272  15.663  0.3037 -0.3006 -0.3115
34629W        W48043   4.516  17.704   0.414  0.2038  0.2509 -0.1366
34630W        W48044  16.912   2.473   2.789  0.0088 -0.0264  0.2413
34631W        W48045  17.114   3.618   0.495 -0.1254 -0.1619 -0.0291
34632W        W48046   1.568   5.456  14.908  0.3078  0.2578 -0.0433
34633W        W48047  14.279  14.628   4.238 -0.0344 -0.1059 -0.0385
34634W        W48048   4.544   3.027   0.362 -0.0549 -0.1587  0.3834
34635W        W48049   4.635   2.417  15.397  0.2668 -0.1030  0.0416
34636W        W48050  16.650  13.923  13.052 -0.0726 -0.1110  0.0515
34637W        W48051  12.060  11.204  10.926 -0.0258 -0.2418  0.0464
34638W        W48052  17.991  10.815  15.083 -0.1463  0.3190  0.0606
34639W        W48053   3.482   3.172   5.228  0.0605  0.3473  0.1617
34640W        W48054   6.790  17.153  15.422 -0.0926 -0.0794 -0.1727
34641W        W48055   8.018  10.947   5.046 -0.0393 -0.0891 -0.1731
34642W        W48056   3.164   1.196  14.115  0.0705 -0.1471 -0.0885
34643W        W48057   1.152  11.126   1.022  0.2273 -0.0560  0.2082
34644W        W48058   5.321  14.029  16.485 -0.0469  0.1469  0.0404
34645W        W48059  16.239   5.898   1.641 -0.0965 -0.4486 -0.1948
34646W        W48060   9.057   1.369  12.536  0.0794 -0.1790 -0.0390
34647W        W48061   9.753   3.542   5.565 -0.1145 -0.0629 -0.2795
34648W        W48062  12.714  13.198  13.174 -0.4020 -0.2307  0.1484
34649W        W48063  17.228   2.704   0.697 -0.2552 -0.3989  0.2662
34650W        W48064  13.515   6.739  13.229 -0.0821 -0.1362  0.1576
34651W        W48065  17.350  16.210  14.686 -0.0207  0.4221 -0.0886
34652W        W48066   0.807  13.809   6.327 -0.3599  0.0869 -0.1387
34653W        W48067  13.091   8.981  12.532 -0.1653 -0.0272  0.0201
34654W        W48068  15.355  11.012   5.492  0.0467 -0.1436 -0.2692
34655W        W48069   7.249   8.803  14.002 -0.0341  0.0634 -0.0674
34656W        W48070   7.738   8.613  11.906 -0.0971  0.0889 -0.1155
34657W        W48071   1.262  14.452   4.704  0.0512  0.1097 -0.4065
34658W        W48072  14.327   7.045  15.413  0.0737 -0.0846  0.0040
34659W        W48073   5.350  13.352   4.057  0.0301 -0.1384 -0.0431
34660W        W48074  11.686   0.262  13.398 -0.1630 -0.1890 -0.0135
34661W        W48075   1.409   9.482  14.067  0.3097 -0.1437  0.2810
34662W        W48076  18.180  11.077  11.186 -0.2239 -0.1222 -0.1158
34663W        W48077   4.217   0.557   3.974 -0.1311 -0.3276 -0.1059
34664W        W48078   6.447  10.820  12.607 -0.0345 -0.1805  0.1263
34665W        W48079   4.151  17.774  12.954 -0.2684 -0.0105 -0.3666
34666W        W48080  14.778   4.263   2.522  0.0128 -0.0383 -0.2632
34667W        W48081   7.719   6.969   6.020  0.0311  0.0686 -0.0718
34668W        W48082   7.170   7.034   6.138  0.0386 -0.0039  0.2439
34669W        W48083   8.165  10.539   2.106  0.0957  0.3083 -0.0378
34670W        W48084   6.306   1.965  13.563  0.1305 -0.2252 -0.0697
34671W        W48085   2.158   8.824   2.942 -0.1054  0.1819  0.0585
34672W        W48086  17.531   6.327  14.896 -0.0693  0.0086  0.2466
34673W        W48087   2.988  11.297  12.737  0.0144 -0.1643 -0.1569
34674W        W48088   9.238  17.361  11.614  0.2337 -0.0679 -0.0008
34675W        W48089   0.347  12.279   1.437  0.0956 -0.1711 -0.1702
34676W        W48090   0.783   5.680  13.131 -0.0857 -0.0268 -0.2458
34677W        W48091   9.338   1.296  10.548 -0.0681  0.1166  0.1569
34678W        W48092  16.422  10.467   4.092 -0.0498  0.2412 -0.0027
34679W        W48093  17.176   3.831  13.750 -0.0029  0.2886  0.4492
34680W        W48094  14.439  16.849   5.958 -0.1463  0.3133  0.4103
34681W        W48095   7.523   9.773   2.582 -0.0334 -0.0304  0.3232
34682W        W48096   2.201  15.554  12.398 -0.1661  0.2074 -0.1365
34683W        W48097   0.211  10.666  16.500  0.2216  0.2207  0.1682
34684W        W48098  14.891  18.392   3.680  0.4385 -0.0282 -0.2874
34685W        W48099   5.051  15.319   0.339 -0.2297 -0.2515 -0.0093
34686W        W48100   8.527  17.989   3.322  0.1652  0.2775  0.0067
34687W        W48101   3.281  11.590  13.529 -0.2398  0.1524  0.3638
34688W        W48102  12.810  15.125  11.619 -0.0118  0.0505  0.0523
34689W        W48103  15.243  15.039  13.031 -0.0818  0.4874  0.2550
34690W        W48104  14.877   7.752   4.509 -0.0027  0.2379  0.1779
34691W        W48105  13.113  11.006  10.967 -0.2318  0.1287 -0.0117
34692W        W48106   2.128   7.780  10.552 -0.4040  0.1216  0.1958
34693W        W48107  11.234   2.027   3.780  0.0643 -0.1434  0.0408
34694W        W48108  14.614   2.884   0.411 -0.1977  0.0269 -0.0979
34695W        W48109  10.565   1.125   1.604  0.0290 -0.3109  0.3325
34696W        W48110   2.151   3.358   4.038 -0.3278 -0.1223 -0.1504
34697W        W48111  14.461   1.815   0.115  0.0880  0.1169 -0.1782
34698W        W48112  13.316   1.435   5.813 -0.3865 -0.1403 -0.4496
34699W        W48113  12.403   1.022   4.877  0.2677 -0.0867 -0.0620
34700W        W48114  11.505   2.125   0.976  0.0778 -0.3750  0.1040
34701W        W48115  13.748   5.911  14.099 -0.3338 -0.1896 -0.1528
34702W        W48116   6.711   1.466   3.252 -0.3715 -0.2373  0.1536
34703W        W48117   8.067   9.475  13.239  0.1009  0.3764  0.5502
34704W        W48118   6.331   3.376  10.240 -0.1311 -0.0305 -0.0841
34705W        W48119  12.133   8.566   2.790 -0.0814 -0.1785  0.0034
34706W        W48120  13.726  15.461  11.954 -0.0804  0.0544 -0.1728
34707W        W48121   4.459   0.860  13.404 -0.1099  0.1665 -0.2057
34708W        W48122  16.358  17.187  12.970  0.3790  0.0298  0.0078
34709W        W48123  12.025  10.328  12.844  0.1494 -0.1005  0.2649
34710W        W48124   6.428  17.433   3.953  0.5020 -0.1357 -0.1171
34711W        W48125   7.505   5.846   5.323  0.0248  0.0423  0.1611
34712W        W48126   2.606   2.967  15.358  0.0950  0.1710 -0.2180
34713W        W48127  16.081   5.213   9.675 -0.0829 -0.1351 -0.1157
34714W        W48128   7.611  18.253  15.316 -0.0226  0.5288 -0.1532
34715W        W48129   9.643  10.102  13.801 -0.1740  0.0373  0.1701
34716W        W48130   6.275   8.209  16.233  0.2135  0.0447  0.0173
34717W        W48131  10.712  16.653   0.823 -0.0687 -0.4028 -0.0176
34718W        W48132   3.568  14.037   5.722  0.1678  0.2129 -0.0996
34719W        W48133  13.308   8.583  16.283 -0.0209  0.2804 -0.0085
34720W        W48134   4.391  14.024  13.598 -0.4106  0.1607 -0.0178
34721W        W48135   7.000  13.410   0.576 -0.2919 -0.0917 -0.0344
34722W        W48136  12.015  17.415  10.408 -0.2308  0.0281 -0.2243
34723W        W48137  18.202   9.231  14.808 -0.0522  0.2228 -0.0556
34724W        W48138   8.883  10.844   5.107 -0.2684 -0.2934 -0.0501
34725W        W48139   4.652   6.492  12.738 -0.1948 -0.0067  0.4293
34726W        W48140  15.797   0.005   6.093  0.2841  0.1510 -0.3783
34727W        W48141  10.293  14.466   4.066  0.2969  0.3660  0.3720
34728W        W48142  15.535   2.526  13.885  0.1948 -0.4192 -0.0645
34729W        W48143   8.333   1.966  12.777  0.1099 -0.1536 -0.0420
34730W        W48144   1.371  15.215   1.066 -0.0621  0.0558  0.0416
34731W        W48145   5.922   5.108  15.124  0.3975 -0.0549 -0.0613
34732W        W48146   5.870  18.321  10.652 -0.0273 -0.3401  0.0595
34733W        W48147  10.395   7.463  11.034  0.4646 -0.0553 -0.2561
34734W        W48148   9.884  13.753   2.117  0.2615 -0.1092  0.1469
34735W        W48149   6.248  13.073   5.138  0.0325  0.2930  0.0392
34736W        W48150   1.884   5.160  11.848  0.0412 -0.2216  0.0993
34737W        W48151  15.091  11.181   4.938  0.3462 -0.0850 -0.0095
34738W        W48152   9.562   1.886   1.236 -0.1330 -0.0564 -0.0142
34739W        W48153  17.082   2.785   0.143  0.1182  0.3216  0.1518
34740W        W48154   8.181   9.813   5.245 -0.1626  0.1148  0.0165
34741W        W48155   0.009  10.163   1.003  0.1024  0.0961  0.2283
34742W        W48156  11.913   7.393  14.266 -0.2349  0.3416 -0.3003
34743W        W48157   2.106   7.850  15.806  0.2469  0.1482 -0.2250
34744W        W48158   7.928   1.688  11.755  0.2226 -0.1812  0.4657
34745W        W48159   1.260   8.071  12.066  0.0910 -0.0739 -0.0057
34746W        W48160   4.166   1.481   2.454 -0.2470  0.2307 -0.1784
34747W        W48161  10.235   5.535  14.701  0.0715  0.0922 -0.1558
34748W        W48162  11.564   6.022   2.719 -0.1293  0.1920 -0.1723
34749W        W48163  16.271  18.185   3.614 -0.4447 -0.0082  0.1436
34750W        W48164   5.956  13.336   3.291  0.1898 -0.2814  0.1469
34751W        W48165   5.535   2.350   5.431 -0.1874  0.0187  0.0512
34752W        W48166   0.707   6.276   5.758 -0.1433 -0.1075 -0.2633
34753W        W48167  12.661   5.465  16.503 -0.1147  0.1256 -0.0984
34754W        W48168   0.986  16.256  13.549  0.0161 -0.1194  0.0165
34755W        W48169   5.837  14.228  16.202 -0.0847  0.1743  0.2583
34756W        W48170  15.255   4.301  11.385 -0.0652  0.0011  0.1439
34757W        W48171   6.577   1.062   2.326  0.2020  0.1938 -0.4242
34758W        W48172  15.010   9.818   4.292 -0.1048 -0.1241  0.3153
34759W        W48173  10.363   4.091   0.631  0.1600 -0.2571  0.0079
34760W        W48174   9.114  15.073   3.543 -0.3351  0.2516 -0.0162
34761W        W48175  16.651   6.611  14.308 -0.3633 -0.2103 -0.2257
34762W        W48176  18.229  10.856  15.822  0.0058 -0.1532 -0.2722
34763W        W48177   0.221   1.274  13.717  0.0346  0.1349  0.2631
34764W        W48178   4.885   3.620  16.146  0.2036 -0.2875 -0.1722
34765W        W48179  17.880  18.122  13.182  0.0807 -0.0504  0.0088
34766W        W48180  16.875  18.048  14.061  0.0677  0.0641 -0.0364
34767W        W48181  14.152   8.699  15.033 -0.3160  0.2528  0.1640
34768W        W48182   4.839  18.272   4.595  0.0698 -0.2031 -0.1740
34769W        W48183  12.392  11.745   2.953  0.1994 -0.2036 -0.0625
34770W        W48184  18.087   4.478   1.739 -0.0527 -0.0826  0.1334
34771W        W48185  13.544   1.775  14.748  0.1250  0.1029 -0.0021
34772W        W48186   2.407   2.260   5.311  0.0284 -0.0737  0.1188
34773W        W48187  14.371   8.261  14.128  0.2763 -0.1516 -0.0977
34774W        W48188   0.387   2.867  11.924  0.0432 -0.1692 -0.0531
34775W        W48189   6.021   8.868   4.164  0.1041 -0.0461 -0.1193
34776W        W48190   8.759   0.665  12.018  0.3467 -0.2184  0.0288
34777W        W48191   5.708   2.369   0.844  0.0096  0.1935  0.1818
34778W        W48192  15.288   7.154   5.307 -0.0911 -0.0393 -0.2755
34779W        W48193  10.534  17.389  10.263  0.0178  0.2189  0.0033
34780W        W48194   0.775   6.857  12.354 -0.2499  0.0695  0.2676
34781W        W48195  13.684   9.502  15.327 -0.0371  0.2055  0.2479
34782W        W48196   2.532   9.657  14.556  0.1671  0.1525  0.0433
34783W        W48197   4.635  11.707   3.485  0.1181  0.1188 -0.0579
34784W        W48198   6.325  17.797   0.902  0.3504 -0.0342 -0.1082
34785W        W48199   7.258   4.612   2.634  0.0406  0.1519  0.2992
34786W        W48200   8.500   2.317  15.560 -0.0826 -0.2183 -0.1153
34787W        W48201  10.259   4.278  12.497 -0.3440 -0.1200  0.1435
34788W        W48202  17.884   1.486   5.305  0.0075  0.0495  0.2460
34789W        W48203  12.933  16.333   4.989  0.2246  0.0266 -0.1719
34790W        W48204  14.860  16.198  11.245  0.0452 -0.1478  0.0726
34791W        W48205  13.625   7.650   2.098 -0.1352  0.2080 -0.1996
34792W        W48206  10.070  17.488  16.404  0.0963 -0.2121 -0.3252
34793W        W48207   5.619  13.860   4.877  0.0956  0.1133 -0.5287
34794W        W48208  15.451   1.132   1.449 -0.1440  0.1612 -0.0871
34795W        W48209  14.505  12.061   0.376  0.0018  0.0070 -0.0689
34796W        W48210  11.820  10.510   5.615 -0.2630 -0.1533 -0.2715
34797W        W48211   3.629   4.839  10.091 -0.0884 -0.2708  0.0895
34798W        W48212  16.296   4.318  13.689  0.0511  0.1621  0.2385
34799W        W48213   8.273   8.225  12.598 -0.0591  0.1161  0.2798
34800W        W48214  12.619   1.386  13.843  0.1783 -0.2144 -0.0541
34801W        W48215   0.238   5.206  12.679 -0.1420 -0.0300  0.1338
34802W        W48216   3.960  13.851  11.105  0.1798  0.1514  0.4291
34803W        W48217  10.038  16.285   4.346  0.0224  0.2171 -0.1907
34804W        W48218  14.462  10.292   2.104 -0.3190  0.0316  0.0957
34805W        W48219   7.740   1.875   1.065  0.2098 -0.1113  0.2202
34806W        W48220  15.266  14.780   2.304 -0.1628  0.2689 -0.0032
34807W        W48221   0.420   3.228  16.254 -0.1172 -0.1291  0.3940
34808W        W48222   3.182  15.061   0.971  0.2076  0.3914  0.0760
34809W        W48223   5.282   2.801  11.785  0.3099 -0.3417  0.1728
34810W        W48224  13.712   5.125   4.257  0.1490 -0.2934  0.0740
34811W        W48225   2.956   9.710   1.045  0.0150 -0.0565  0.0366
34812W        W48226  10.826   6.311  13.124  0.0244 -0.3641  0.1349
34813W        W48227  13.828   7.815   4.343  0.1875  0.1805  0.4032
34814W        W48228   6.889  13.474   1.389  0.0523 -0.0891 -0.1514
34815W        W48229  18.250  11.225  12.727  0.1716 -0.2881  0.2425
34816W        W48230  16.072   1.825   4.959  0.2112  0.0817  0.1580
34817W        W48231   6.635  17.337  13.109 -0.3244 -0.1652  0.1466
34818W        W48232   9.102  15.730  16.118  0.3289  0.0782  0.1675
34819W        W48233   9.027   5.698  16.053  0.0744 -0.0512 -0.1055
34820W        W48234  17.680   3.345  14.246 -0.0951  0.2485  0.0843
34821W        W48235  12.274   3.722   0.933  0.1722  0.0486  0.0642
34822W        W48236   1.907   8.377   3.055  0.1455  0.1295 -0.2009
34823W        W48237  13.790  10.016   0.804  0.1196  0.2444  0.0066
34824W        W48238   5.855   2.517   0.350 -0.2276 -0.2598  0.0772
34825W        W48239   5.809   6.229  14.440  0.0636  0.0879  0.0966
34826W        W48240   8.786  11.288  14.061  0.1027  0.0299  0.1117
34827W        W48241  14.500  12.914   1.014  0.2043  0.3285  0.0485
34828W        W48242  17.589   0.898   2.888 -0.1210  0.2472 -0.3361
34829W        W48243  13.579   9.265   2.306 -0.3359  0.1236 -0.0290
34830W        W48244  18.182  17.941  16.391 -0.0159  0.0655  0.1613
34831W        W48245  16.730   8.896  12.839 -0.1560 -0.1376 -0.6070
34832W        W48246  12.842  17.811  10.734 -0.1611 -0.1287  0.1521
34833W        W48247  16.735   2.225   5.459  0.2845  0.0963  0.1056
34834W        W48248  15.885   7.963   1.310  0.1512  0.1237  0.2268
34835W        W48249   2.311   7.621  13.731 -0.0601 -0.0627  0.0354
34836W        W48250  13.582   1.249   2.488 -0.0617 -0.0327  0.0749
34837W        W48251   9.878   7.616  12.331 -0.1746  0.0071 -0.1206
34838W        W48252  13.059  10.642   5.256 -0.1268 -0.2181 -0.0739
34839W        W48253   9.539   7.948  11.412 -0.0418  0.0142  0.1800
34840W        W48254  11.229  12.165  12.382  0.0380 -0.3402 -0.0514
34841W        W48255   0.595   6.904   1.849 -0.2065  0.0025 -0.4093
34842W        W48256  11.608  15.151  12.748  0.1224  0.0134  0.0662
34843W        W48257  12.553  15.607  13.251 -0.2208 -0.1650 -0.1685
34844W        W48258  12.038   8.295   4.377 -0.1438  0.1221 -0.2171
34845W        W48259   3.066  15.572  14.282 -0.1523 -0.6162  0.1881
34846W        W48260   3.087   7.418  15.751  0.1643 -0.2029  0.2414
34847W        W48261   3.673  11.513  11.618  0.0626 -0.1956 -0.1285
34848W        W48262   3.800   5.125  10.504 -0.1950 -0.0003  0.0729
34849W        W48263  13.803   0.013   1.074 -0.0950 -0.3601 -0.2852
34850W        W48264   1.851  10.840   3.033 -0.1813 -0.0968 -0.0114
34851W        W48265   5.816   2.746   2.132 -0.0193 -0.2617  0.1243
34852W        W48266  10.675   7.855  13.974  0.1223 -0.1298 -0.1642
34853W        W48267  15.603  16.103   0.137 -0.1334 -0.2653  0.1488
34854W        W48268  11.953  17.077  15.425 -0.0600 -0.3796  0.4233
34855W        W48269  10.246   5.207   2.719  0.0452  0.4253 -0.0453
34856W        W48270  17.773   4.846   4.901  0.0707 -0.1822 -0.1001
34857W        W48271   5.104   3.179   1.970  0.0390  0.2043 -0.1691
34858W        W48272  15.969   0.646   6.746 -0.0526 -0.1088  0.0491
34859W        W48273  16.834   9.703   4.109 -0.1838 -0.2723  0.0424
34860W        W48274  13.909   5.150   0.727  0.0851 -0.0520 -0.2766
34861W        W48275   8.311   1.877   5.272 -0.1217  0.0101  0.1721
34862W        W48276  12.604  10.547  15.322 -0.0105 -0.2277 -0.1007
34863W        W48277   8.659  16.043  15.553  0.0260 -0.0627 -0.1393
34864W        W48278   1.029   5.435  15.599  0.0151 -0.0229 -0.2668
34865W        W48279  11.134  17.604   1.217 -0.1532 -0.1077 -0.2704
34866W        W48280   9.551  15.676  16.343 -0.3072  0.0312 -0.1939
34867W        W48281  14.607  14.580   4.774 -0.1174 -0.3753 -0.2726
34868W        W48282  13.827  11.742  13.409  0.1137  0.1752  0.0771
34869W        W48283  13.721   9.486  13.246 -0.1917 -0.0375 -0.0438
34870W        W48284  13.890   8.306  14.249 -0.1663  0.1793 -0.0725
34871W        W48285   3.307  10.373  16.119  0.2085 -0.1215 -0.0393
34872W        W48286   2.681   9.997  13.628 -0.0688  0.2943 -0.0212
34873W        W48287   7.393   1.883   2.702 -0.1931 -0.0821 -0.0581
34874W        W48288  12.901  13.963   3.064 -0.1342 -0.0857  0.1028
34875W        W48289  10.172   0.975  11.264  0.0540 -0.0934 -0.2069
34876W        W48290   7.758  17.368  14.608 -0.1397 -0.1480 -0.4442
34877W        W48291   7.348   3.033  10.297 -0.3975  0.3314  0.1952
34878W        W48292  18.214   5.623  15.678 -0.0258  0.0321 -0.1740
34879W        W48293   9.018   2.415  16.368 -0.0217  0.1957  0.1419
34880W        W48294   2.213   7.245  14.066 -0.1797  0.1581  0.1005
34881W        W48295   1.953  11.005   5.533 -0.0538  0.1761  0.0704
34882W        W48296   9.860   1.554  13.007 -0.2416  0.0840  0.1657
34883W        W48297   1.553  18.396  15.666 -0.2718  0.1007  0.1331
34884W        W48298  11.255  10.288  15.795  0.3271 -0.1153 -0.1139
34885W        W48299  10.554   8.250   1.371  0.0106  0.1673  0.0711
34886W        W48300   9.190  11.182   5.400  0.3342  0.2059 -0.2188
34887W        W48301   7.320   3.400  11.714  0.2471  0.2083  0.2274
34888W        W48302  18.299  12.422  15.074  0.0198  0.2227  0.0406
34889W        W48303   9.835  13.970  12.947  0.0595  0.4231  0.0628
34890W        W48304  11.359   4.373   5.449  0.0632 -0.0576  0.1642
34891W        W48305  17.585   1.614  13.763 -0.0744  0.2895  0.0255
34892W        W48306   5.064   2.081  13.625 -0.2235  0.1790 -0.0037
34893W        W48307   7.875  13.087  11.962  0.0611 -0.0634 -0.0477
34894W        W48308  10.177  11.740  12.371  0.1267 -0.2394  0.1031
34895W        W48309   4.478   5.032  14.230 -0.1545  0.4185 -0.1756
34896W        W48310  18.231   8.871   4.053  0.2532  0.1385 -0.0882
34897W        W48311  16.086  16.548  12.013  0.1856  0.2105 -0.1825
34898W        W48312  12.872   3.979   4.941  0.1015  0.2076  0.3140
34899W        W48313  15.823  14.135  11.979 -0.0350 -0.2579  0.1426
34900W        W48314   6.765   1.695  16.338  0.1258 -0.1788 -0.0294
34901W        W48315   2.292   8.562   5.259  0.0189  0.1136 -0.2110
34902W        W48316  11.306  12.028  12.885  0.0988  0.1664 -0.1165
34903W        W48317   6.055  16.027  14.791 -0.0610  0.0343 -0.0004
34904W        W48318  11.932  13.088   6.348 -0.0353  0.3857  0.1649
34905W        W48319   8.515  16.965  14.536 -0.1149 -0.1054  0.1129
34906W        W48320  14.807   6.435  15.490 -0.0812  0.0499 -0.0240
34907W        W48321  16.138  13.045  14.028 -0.1280  0.2411 -0.3046
34908W        W48322  12.751  12.828  10.783 -0.2126 -0.0641 -0.0239
34909W        W48323   9.805  12.757   3.767  0.3555 -0.1723 -0.0062
34910W        W48324   8.461   7.835   0.402  0.3154  0.0054 -0.0944
34911W        W48325   4.508  12.285  12.174 -0.1833 -0.0205  0.1702
34912W        W48326  12.977   1.700   5.280  0.2177  0.1592  0.1466
34913W        W48327   8.160   1.282   0.298 -0.1584 -0.1703  0.1740
34914W        W48328  15.740  11.781   3.791  0.3849 -0.2041  0.0189
34915W        W48329  15.743   5.321  14.834  0.0701  0.0848  0.0202
34916W        W48330  17.097   6.552   2.701 -0.2064  0.0189 -0.0423
34917W        W48331   9.016   5.626  15.571 -0.0098  0.2527  0.2219
34918W        W48332   0.642   4.897   3.856 -0.0546 -0.2215  0.2084
34919W        W48333   7.855  16.199  12.429  0.0767  0.0681 -0.1222
34920W        W48334   5.588  12.147  11.186  0.0355  0.0915  0.1654
34921W        W48335   6.979   0.639  10.595 -0.1701  0.0585 -0.1811
34922W        W48336   3.290   8.970   9.706  0.2541 -0.0723  0.0957
34923W        W48337  13.889   5.136   1.320 -0.1700 -0.1747  0.0507
34924W        W48338   3.590  12.877   1.030  0.0659 -0.0934 -0.1063
34925W        W48339   3.010   2.957   4.324  0.0920 -0.0712  0.1259
34926W        W48340   3.714  11.437  10.632 -0.1560 -0.2106  0.3102
34927W        W48341   6.998  17.629  12.980  0.0172 -0.0619  0.0204
34928W        W48342   2.821  11.782  13.779 -0.3778 -0.3388 -0.0151
34929W        W48343   8.279  14.910  10.478  0.2032  0.0646  0.3079
34930W        W48344  14.420   6.849   3.507 -0.1645 -0.1040 -0.0894
34931W        W48345   6.200   2.774   4.263 -0.2669  0.4357 -0.0402
34932W        W48346  12.461   2.157  13.382  0.0158 -0.1238 -0.0821
34933W        W48347  10.452   9.155   2.435  0.1151 -0.1738 -0.2609
34934W        W48348   9.257  11.221   3.483 -0.1967  0.1140 -0.2189
34935W        W48349  14.926  17.118  13.418 -0.0023 -0.2353 -0.0597
34936W        W48350  14.439   2.611  14.473 -0.0281  0.0625 -0.1818
34937W        W48351   9.789  16.448  14.207  0.2178 -0.1283  0.2147
34938W        W48352  11.808   1.519  15.884  0.0259  0.2705  0.0157
34939W        W48353  12.141   8.183   5.327  0.0837 -0.1296  0.0837
34940W        W48354  10.662   5.762  10.119  0.0296  0.2505 -0.0497
34941W        W48355   9.270  15.801  11.648  0.1980  0.1669  0.1533
34942W        W48356   1.815  10.356  13.448  0.0449  0.0665 -0.0525
34943W        W48357  11.437   9.976  10.389 -0.3708 -0.0352  0.1823
34944W        W48358  13.083  14.354   1.247  0.0242 -0.2166  0.0286
34945W        W48359  13.800  16.446  14.034 -0.0107 -0.3030  0.1341
34946W        W48360  12.055  15.332   4.040  0.3470 -0.0222  0.4130
34947W        W48361  17.790  18.013   2.547 -0.0477  0.0283 -0.3598
34948W        W48362  10.069   0.825  14.336 -0.3029 -0.0747  0.0978
34949W        W48363  12.545   4.619  15.633  0.1290  0.3309  0.0548
34950W        W48364  18.061  15.692   4.659 -0.1814  0.0009 -0.0485
34951W        W48365   5.668  16.993   5.234  0.1258 -0.1615  0.0604
34952W        W48366   1.929  11.384   3.240  0.1242 -0.4494 -0.2344
34953W        W48367  11.816  14.231  11.258 -0.1943  0.2384 -0.1337
34954W        W48368  10.566   0.242   2.214  0.2035  0.1746 -0.1481
34955W        W48369  16.448  14.928   3.483  0.0242  0.1431 -0.0150
34956W        W48370   7.208  11.614   2.442 -0.0648 -0.2536  0.1797
34957W        W48371   5.785  10.501   3.325 -0.0684  0.0027  0.0458
34958W        W48372  16.918   0.159   2.708 -0.0830  0.0066  0.0552
34959W        W48373   2.058   4.313  12.702  0.1319 -0.1870  0.3302
34960W        W48374  12.598  13.183  11.163  0.1002  0.0524  0.1023
34961W        W48375  13.676  10.792   4.889  0.0210 -0.0933  0.0930
34962W        W48376   7.269   8.345   3.813  0.4828  0.0595  0.1105
34963W        W48377   8.719  17.845  16.294 -0.0648  0.2177  0.0114
34964W        W48378  13.961  13.674  14.811 -0.0488 -0.2468 -0.0461
34965W        W48379   4.854   8.570   4.532 -0.1053  0.1481 -0.1852
34966W        W48380   1.800   4.016   5.393  0.1993  0.0594 -0.1558
34967W        W48381  13.309  15.829   3.190  0.1893  0.2642 -0.2842
34968W        W48382  13.610  15.563  11.458  0.3198  0.5277 -0.2601
34969W        W48383   0.503  17.381   0.710 -0.2793  0.1577  0.3025
34970W        W48384  18.374  11.528   1.531  0.0163 -0.0563  0.0571
34971W        W48385  16.576   2.232   1.997 -0.1685 -0.2354  0.4446
34972W        W48386  17.491   8.675  10.234  0.1361  0.0389 -0.0658
34973W        W48387   6.882  12.585  13.269  0.0445 -0.1532  0.1619
34974W        W48388   6.153   0.133   2.175 -0.0148 -0.0443  0.1977
34975W        W48389  16.624   5.971   5.277  0.2927  0.0014 -0.0316
34976W        W48390   4.449   8.898   4.659 -0.1003  0.3042 -0.0170
34977W        W48391   1.125   6.886   1.748 -0.1467 -0.0724 -0.2861
34978W        W48392  10.494  16.991  14.135  0.3176 -0.1089 -0.0141
34979W        W48393   6.361  18.394   0.921  0.4425 -0.1546  0.0832
34980W        W48394  15.458   6.281  15.712  0.0629  0.0566  0.1354
34981W        W48395   9.258   4.652  16.363 -0.0578  0.1895  0.0725
34982W        W48396   0.524   2.186   2.028  0.0192  0.0456  0.0829
34983W        W48397   6.099   8.930   1.758 -0.0387 -0.0300  0.1634
34984W        W48398   9.451  10.629  16.392  0.2463 -0.1240  0.0988
34985W        W48399   0.377  10.984  11.875 -0.0387 -0.0260  0.0861
34986W        W48400   0.174   2.841  11.308 -0.3924 -0.0714 -0.1630
34987W        W48401   8.374   4.176  15.549  0.2174  0.1292  0.4154
34988W        W48402  13.716   1.095   0.173  0.2101 -0.0018 -0.0318
34989W        W48403  18.380  12.134   3.186 -0.0031  0.3790 -0.3333
34990W        W48404  14.792  11.103  15.428 -0.1713  0.2610 -0.3603
34991W        W48405   3.911  17.063   6.117 -0.1181 -0.4152  0.1570
34992W        W48406  18.299  18.133   2.632 -0.0665 -0.1679  0.0881
34993W        W48407   0.482   7.050  14.092 -0.0884  0.0617  0.0316
34994W        W48408   7.125   5.880   1.671  0.0875  0.1618 -0.0748
34995W        W48409   9.766  14.425  12.877  0.1748 -0.1957  0.1193
34996W        W48410   9.844  14.227   4.245 -0.0652  0.2754  0.1825
34997W        W48411   6.800  17.757  14.781 -0.0781 -0.0810 -0.0753
34998W        W48412  10.052  13.878  14.332 -0.0326 -0.4402 -0.1172
34999W        W48413  11.073   6.033  12.128  0.1807  0.3070 -0.4792
35000W        W48414   4.683  12.542   3.004  0.1839 -0.2295  0.2262
35001W        W48415   1.491  14.532  10.936 -0.2173 -0.0831 -0.0040
35002W        W48416   1.624   2.216  16.126  0.1938 -0.2508  0.0182
35003W        W48417   2.653  15.158   2.743 -0.4471  0.0296 -0.0205
35004W        W48418   6.602   3.393  10.879  0.0276 -0.1139 -0.2882
35005W        W48419   9.280   1.534  14.485  0.0079 -0.0709  0.1120
35006W        W48420  17.643  14.509  14.735  0.3349  0.0241  0.0466
35007W        W48421  12.326   8.290  12.718  0.1939 -0.0152 -0.0099
35008W        W48422  14.051  12.164   5.366  0.1608  0.0640 -0.2584
35009W        W48423   5.533   8.369   1.812 -0.3173 -0.1164  0.1015
35010W        W48424   2.519  13.504  15.187 -0.1375 -0.0228 -0.2221
35011W        W48425   3.653  11.534   0.200 -0.0146 -0.0480  0.2468
35012W        W48426   8.334   0.582  14.967  0.1250  0.1830  0.1027
35013W        W48427  16.423   1.525   4.835  0.0509 -0.0128  0.1450
35014W        W48428   1.827   9.179   0.962 -0.0798 -0.1992  0.1520
35015W        W48429   7.228  10.445   2.705 -0.0200 -0.1448 -0.1372
35016W        W48430   2.933   6.422   5.016 -0.1395  0.0636 -0.0770
35017W        W48431   3.475  14.093  13.577 -0.0500  0.1458 -0.0970
35018W        W48432   3.536  13.363  12.617  0.0228  0.1103  0.1041
35019W        W48433  17.797   5.230   1.643 -0.1212 -0.2321 -0.2244
35020W        W48434  15.423   6.391  10.654 -0.1211  0.2229 -0.1826
35021W        W48435  10.443  14.020  14.645  0.0995  0.1525  0.1627
35022W        W48436   0.788   2.732  11.085  0.0814  0.2749 -0.0382
35023W        W48437   9.651  12.659   1.294 -0.3560  0.0863 -0.1693
35024W        W48438  18.083  14.304  12.949  0.0471  0.0572 -0.0930
35025W        W48439   0.729   0.403  12.978 -0.1656 -0.0579  0.1496
35026W        W48440   3.348  11.495   0.808 -0.2606  0.0284 -0.0830
35027W        W48441   6.338  14.574  11.899 -0.2768  0.0262 -0.4534
35028W        W48442  16.194  15.322   0.786 -0.3484  0.1230 -0.1219
35029W        W48443   4.723   1.952   0.997  0.0693  0.1215 -0.1795
35030W        W48444  15.679  16.683  13.667  0.3491  0.2904  0.3403
35031W        W48445   0.371  11.937  12.156  0.1402  0.3361  0.2849
35032W        W48446   7.256   0.140   1.493 -0.0771 -0.1884  0.2768
35033W        W48447   0.503   0.828  14.040 -0.0060  0.4171 -0.0787
35034W        W48448  11.698  17.139   3.545 -0.0355 -0.2051 -0.1182
35035W        W48449  13.920  18.227  16.103 -0.0044  0.0950  0.2342
35036W        W48450  17.750  16.166  11.503  0.0379 -0.1137 -0.1320
35037W        W48451  17.787  17.375  12.234 -0.0594 -0.0299  0.0264
35038W        W48452  10.400   0.321   1.270 -0.3447  0.1207 -0.1065
35039W        W48453  15.572   9.175  16.203 -0.2982  0.0266 -0.2135
35040W        W48454  13.761  10.052  12.482 -0.0271 -0.1510  0.5123
35041W        W48455  11.739  10.423  13.305 -0.0848 -0.0735 -0.0417
35042W        W48456   1.575  11.503   3.591  0.1527  0.0705 -0.1895
35043W        W48457  14.113   5.444  12.537 -0.2538 -0.3081 -0.1478
35044W        W48458   3.835  10.274  13.855  0.2308  0.0013  0.0793
35045W        W48459  11.567   6.590   2.799  0.4199  0.1114 -0.2555
35046W        W48460  16.296   9.927  11.764 -0.0162 -0.4200 -0.4462
35047W        W48461   4.961  18.154   1.488  0.0079  0.4513  0.1991
35048W        W48462   6.262   7.668   3.324 -0.1410  0.2527 -0.0156
35049W        W48463   5.851  14.170   5.484 -0.2594 -0.1322  0.1208
35050W        W48464   0.455   9.707  12.437 -0.4186 -0.0442 -0.0590
35051W        W48465  14.572  11.663   0.078 -0.0079  0.0705  0.0614
35052W        W48466  14.080  11.247  14.357 -0.2578 -0.0246 -0.0124
35053W        W48467   5.523   4.352   1.084 -0.2576  0.0473  0.5461
35054W        W48468  15.375  16.742   2.037 -0.0843  0.2850  0.0748
35055W        W48469   4.328   6.946   1.949  0.3894 -0.2297 -0.3543
35056W        W48470  11.253   7.894   3.777 -0.1046 -0.0893 -0.1020
35057W        W48471   3.462  10.338  10.042 -0.1820  0.0754 -0.0653
35058W        W48472   4.460  10.733   3.313  0.0808  0.0538 -0.1915
35059W        W48473   2.876  16.490  10.649 -0.0242 -0.1255  0.0775
35060W        W48474  15.086   2.314  13.835  0.1176  0.1777 -0.2427
35061W        W48475  11.418  14.068   6.254  0.1766 -0.3583 -0.0065
35062W        W48476  12.512   2.289   4.160  0.1841 -0.1633  0.2907
35063W        W48477   0.105   2.358   5.428  0.2416 -0.1281 -0.0318
35064W        W48478   6.550  17.974   5.150  0.0237  0.2845 -0.2315
35065W        W48479  11.938  13.179   4.574  0.1456 -0.2318 -0.2383
35066W        W48480  11.047   4.049   0.228  0.1763  0.2040  0.3086
35067W        W48481  17.853   9.805  13.345  0.2552 -0.2620  0.2218
35068W        W48482   5.907  15.857  13.656  0.0207  0.1559  0.1340
35069W        W48483   3.829  15.425   2.145  0.1573 -0.3547 -0.1090
35070W        W48484   7.708  12.560  11.698 -0.0352  0.3306 -0.1611
35071W        W48485  16.897   0.081   2.147 -0.1208  0.3471 -0.0074
35072W        W48486  10.215   0.772   1.320 -0.0178  0.2364 -0.0169
35073W        W48487   6.937   9.750  13.675  0.0483  0.3080  0.1692
35074W        W48488  11.089   0.840   3.337  0.0881  0.1635  0.0159
35075W        W48489  14.285   7.267  10.523 -0.3398 -0.1904  0.0319
35076W        W48490   8.007  12.525  13.421 -0.2143  0.2343 -0.1976
35077W        W48491   3.917  14.421  11.313 -0.0375  0.0243  0.0988
35078W        W48492   4.037   4.303   0.283 -0.1195  0.1870  0.1038
35079W        W48493   5.646   9.657  13.826  0.4053 -0.0388  0.2320
35080W        W48494  11.527  16.712   5.188 -0.0824  0.0444  0.0847
35081W        W48495  15.813  14.382  12.587  0.0495 -0.1508  0.2184
35082W        W48496   5.914   2.334   4.053  0.4432 -0.1449 -0.0692
35083W        W48497   5.101  13.789   4.713  0.2448 -0.3115 -0.0230
35084W        W48498  14.258   3.198  13.923 -0.3274  0.0434 -0.3138
35085W        W48499  17.570   5.939   2.703 -0.0901  0.3032 -0.3490
35086W        W48500   2.271   3.932   5.162  0.2093  0.1554 -0.1432
35087W        W48501   9.245  13.931  16.320 -0.0685  0.0071 -0.0087
35088W        W48502  12.397  14.991  15.523  0.1201  0.0075 -0.0677
35089W        W48503   7.135   1.980  13.303 -0.0539  0.0731  0.0256
35090W        W48504   3.617  11.445   3.170 -0.3710  0.2815 -0.0381
35091W        W48505   6.455   1.741   1.393  0.3291 -0.0401 -0.0273
35092W        W48506  11.899   4.656   2.417  0.0104  0.1656 -0.2198
35093W        W48507   0.782   7.742   4.218 -0.0009 -0.2204  0.4302
35094W        W48508   3.136   8.215   6.200  0.0810 -0.2104  0.1750
35095W        W48509   9.912   8.137   3.696  0.1386  0.0383 -0.1133
35096W        W48510   2.918  17.508  16.121  0.2758  0.3600  0.1492
35097W        W48511  16.396  14.348  13.260 -0.2969  0.2229  0.0246
35098W        W48512  14.840   8.112   0.251 -0.1411 -0.0927  0.1610
35099W        W48513  12.151   1.561  10.378 -0.0400 -0.4111  0.0445
35100W        W48514   7.449  11.234  16.014  0.4006 -0.0966  0.0194
35101W        W48515   8.747   7.311   1.333  0.0160 -0.0099  0.0308
35102W        W48516  12.604  14.556   5.913  0.0896 -0.1854  0.5042
35103W        W48517   4.282  15.142   5.115 -0.1749  0.0361  0.0990
35104W        W48518   8.238  11.569  12.252 -0.1174  0.0763  0.2042
35105W        W48519   8.556  14.658   1.462 -0.0433  0.3294 -0.3943
35106W        W48520  17.846  13.256  11.500 -0.1034  0.1814  0.1184
35107W        W48521  12.151  11.808  13.884 -0.0703  0.0364  0.1529
35108W        W48522   7.022  18.283  10.510 -0.1005 -0.0770 -0.2616
35109W        W48523   3.476  16.055   6.239 -0.2711  0.2289 -0.2245
35110W        W48524  14.925  13.463  13.143  0.0406 -0.1645 -0.3512
35111W        W48525   3.223   0.105   5.832 -0.0326 -0.0674 -0.0810
35112W        W48526   9.106  10.060   3.632  0.1035  0.3553 -0.0679
35113W        W48527   8.989  10.241   2.068  0.0448 -0.1888  0.1989
35114W        W48528   1.496   6.737   5.675  0.0591  0.2700  0.0112
35115W        W48529   2.526   4.450  12.479  0.0654  0.2520  0.0387
35116W        W48530  16.258  17.617   1.934  0.2837  0.2564  0.1140
35117W        W48531  11.765  17.873  15.796  0.2311 -0.0536 -0.1374
35118W        W48532  10.474   4.226   1.173  0.3461  0.0166 -0.2477
35119W        W48533   1.795  14.413   4.431 -0.2425 -0.0876  0.0681
35120W        W48534  15.698   5.753   4.293 -0.0202  0.0801 -0.2496
35121W        W48535   2.267   2.631   2.339 -0.0945 -0.2005  0.2150
35122W        W48536  15.306   8.068   0.580  0.0122 -0.1084  0.3594
35123W        W48537  12.191  15.500   4.517 -0.1392  0.2401  0.0689
35124W        W48538   0.425   2.703  16.261  0.0078  0.3286 -0.4477
35125W        W48539  11.131   2.487   3.991 -0.1552  0.0234 -0.0943
35126W        W48540  10.578  15.698  11.481  0.1329 -0.1462  0.0655
35127W        W48541   3.276   4.384   2.266 -0.0833  0.1926 -0.0133
35128W        W48542  15.005   4.701   5.270  0.2251 -0.1332  0.0335
35129W        W48543  12.368   2.144   0.342  0.3527  0.0078  0.1470
35130W        W48544   6.711   8.325  14.962 -0.0954  0.2008 -0.2084
35131W        W48545  17.183   7.816   3.849 -0.0692  0.2154 -0.0619
35132W        W48546   5.955  13.984   6.909  0.0836 -0.2501  0.0475
35133W        W48547   0.954   3.882  11.587  0.0647 -0.1773  0.2604
35134W        W48548  13.637  13.819   2.825 -0.1169 -0.0187 -0.1741
35135W        W48549  18.194   1.188  11.498 -0.3633 -0.0254  0.1543
35136W        W48550   3.669  15.642   3.149 -0.0975 -0.0371 -0.1557
35137W        W48551  13.142   1.959   4.775 -0.1851 -0.2512 -0.4501
35138W        W48552  12.981  16.477   1.696 -0.0731 -0.2956 -0.0730
35139W        W48553  15.508  10.032  10.976  0.1331 -0.0877 -0.5170
35140W        W48554   1.188  16.112  15.265  0.2723  0.0791  0.0109
35141W        W48555   9.862  14.594   6.041 -0.3180 -0.1411  0.0541
35142W        W48556   5.458   4.912  12.459 -0.0780  0.2753 -0.1046
35143W        W48557  10.294   4.317  13.103 -0.3123 -0.2507  0.1105
35144W        W48558  17.231  17.358   4.657 -0.1624 -0.1975  0.1049
35145W        W48559   7.348  12.227  13.916  0.0613 -0.1405  0.2804
35146W        W48560  14.988   6.747   3.540 -0.0143  0.1123 -0.2928
35147W        W48561   4.688   5.468  13.338 -0.1027  0.2724  0.0956
35148W        W48562   7.244   1.208  11.332 -0.2077 -0.0954  0.1550
35149W        W48563  14.557   2.305  12.016  0.0215  0.0060 -0.2232
35150W        W48564  17.771   3.444  11.197 -0.3064 -0.1350 -0.0482
35151W        W48565  13.640   3.299  16.142  0.0903 -0.1394 -0.0285
35152W        W48566   0.884   2.864   3.677  0.0355  0.0098 -0.2820
35153W        W48567  12.872   0.951  12.106  0.0704  0.0236 -0.1949
35154W        W48568   8.634  14.706  12.725 -0.3330 -0.2673  0.0143
35155W        W48569   0.361   1.672  11.055 -0.1133 -0.0568 -0.2035
35156W        W48570   7.019  12.034  15.885 -0.0175 -0.1069 -0.2407
35157W        W48571   7.216  13.748  13.541  0.1822  0.0842 -0.0947
35158W        W48572  13.073   0.163   0.072  0.1381  0.1289 -0.1988
35159W        W48573   1.829   8.485   0.041  0.2039  0.2529  0.1536
35160W        W48574   2.266  12.352  10.990 -0.1374  0.0523 -0.2760
35161W        W48575  16.162  14.238  15.728 -0.3421 -0.0269 -0.3552
35162W        W48576   1.348  12.505   4.467  0.2535  0.0612  0.2375
35163W        W48577   9.111   8.434  13.200  0.0494 -0.3665  0.0948
35164W        W48578  15.702   7.622  13.070 -0.2500  0.2024 -0.1865
35165W        W48579   2.296   3.175  11.546  0.1571 -0.1375 -0.0329
35166W        W48580   4.417  13.212  10.642  0.2368  0.0538 -0.3351
35167W        W48581  12.953   6.905   4.488  0.0293 -0.0875 -0.1704
35168W        W48582  11.245   8.145   0.184  0.1522  0.3926  0.1787
35169W        W48583   4.372  17.112   2.883 -0.0939  0.0097  0.0575
35170W        W48584   3.916   2.892  12.695 -0.0230 -0.0183  0.1540
35171W        W48585   4.608  12.833  14.407 -0.0860 -0.2264  0.2158
35172W        W48586  11.714   6.658  12.130  0.0905  0.1174 -0.1278
35173W        W48587  10.597   6.157  16.208 -0.3243  0.2437  0.0877
35174W        W48588  17.194  11.131   3.577 -0.0815  0.0329  0.1293
35175W        W48589  10.622   8.384   3.018 -0.0104 -0.4045  0.0442
35176W        W48590   2.659  18.087   3.216 -0.1986  0.1014  0.1296
35177W        W48591   9.608   3.400  15.474  0.0509  0.0612 -0.1554
35178W        W48592   1.335   5.020   5.725 -0.0016  0.0437 -0.1729
35179W        W48593   0.813   3.139   4.091  0.0294  0.1434 -0.1423
35180W        W48594   6.393   0.530   2.487  0.1460 -0.0186  0.2442
35181W        W48595  10.422   6.388  12.708  0.4339 -0.0862 -0.0443
35182W        W48596  15.655  16.160   4.324 -0.0165 -0.0648 -0.0030
35183W        W48597  14.324   8.960   3.949  0.0514  0.2388  0.0058
35184W        W48598  15.640   2.810  11.471 -0.3051  0.3150  0.1946
35185W        W48599   9.724   4.156   3.613 -0.0527  0.1219  0.1777
35186W        W48600  17.077   2.707   1.227 -0.0974 -0.1999 -0.0164
35187W        W48601  11.827   8.524  14.581 -0.1167 -0.2135  0.0098
35188W        W48602   6.114  12.741  11.134 -0.1120 -0.2131  0.0083
35189W        W48603  12.501  15.952   5.599  0.3758 -0.2894 -0.1289
35190W        W48604   3.743  14.535   4.534 -0.0209 -0.3373 -0.0226
35191W        W48605   9.782  17.162   5.954  0.1712  0.2330 -0.1153
35192W        W48606  10.487   4.845   4.455 -0.1670  0.1027  0.3867
35193W        W48607   2.607  13.898   1.564  0.1634  0.0164  0.1191
35194W        W48608   7.904  10.272   5.009 -0.0179  0.0063 -0.0471
35195W        W48609   6.313   4.537   4.215 -0.1315  0.1648  0.1276
35196W        W48610  18.297   6.073   2.006 -0.0875 -0.0654  0.3426
35197W        W48611   1.398   7.508  11.993  0.0900  0.0003 -0.0735
35198W        W48612   8.646   8.165  13.319  0.1325  0.0473  0.1021
35199W        W48613   8.263   2.773   3.550  0.1665  0.1343  0.1124
35200W        W48614   5.513  13.753   0.821  0.2017 -0.0727  0.2067
35201W        W48615   8.574   6.450   4.881 -0.0410 -0.2508  0.0256
35202W        W48616   9.068   7.564   1.837  0.1407  0.1994  0.2564
35203W        W48617  15.782   6.268  10.359 -0.3884  0.0832  0.1808
35204W        W48618  13.527   4.649  12.249 -0.1225 -0.2116  0.0314
35205W        W48619   7.067  10.472   5.430  0.1556  0.2189 -0.1342
35206W        W48620   8.748   1.137  11.243 -0.3164  0.1607 -0.1379
35207W        W48621  10.877   6.921  11.542  0.3929  0.1556  0.2020
35208W        W48622  17.068  11.242  15.135 -0.0936 -0.1987 -0.1395
35209W        W48623   0.911   5.872   1.568 -0.2787  0.2126  0.1455
35210W        W48624  12.545   7.711  11.459  0.1993  0.1691 -0.0370
35211W        W48625  15.170  10.712  11.622 -0.0131 -0.0288  0.0545
35212W        W48626  12.195  16.369   5.316 -0.1311 -0.0097  0.0733
35213W        W48627  16.158   6.970   0.631  0.1023  0.3082  0.0736
35214W        W48628  14.951  10.676   2.758 -0.2518  0.0181 -0.1542
35215W        W48629  10.059   1.396  12.533  0.1114  0.0756 -0.4736
35216W        W48630   8.404   1.255  15.771  0.2226  0.2172  0.1053
35217W        W48631   9.012   2.332   5.038 -0.1615 -0.2080  0.1155
35218W        W48632   7.814   8.409   3.624  0.0532  0.1004 -0.0181
35219W        W48633  16.374  17.043   5.106  0.1472  0.1082 -0.2179
35220W        W48634   3.241   6.963   1.068  0.2524  0.0242 -0.2307
35221W        W48635  14.550  13.664   1.801  0.0769  0.1341 -0.0392
35222W        W48636  10.440  17.439   4.788  0.1553  0.2021  0.2305
35223W        W48637  13.407   2.597   5.313  0.2913 -0.2801 -0.1319
35224W        W48638  11.502   7.891   1.502  0.0867  0.4382  0.2284
35225W        W48639  16.199   3.285  16.495 -0.1472 -0.0450  0.2004
35226W        W48640  14.413   6.041   3.726 -0.2011  0.1491  0.3551
35227W        W48641  18.278   4.108   0.444  0.0735 -0.1683  0.0914
35228W        W48642  13.351   0.355   1.003 -0.1961  0.3427 -0.0785
35229W        W48643  17.913  14.551   0.548  0.1373  0.0742 -0.1844
35230W        W48644   2.254  16.448  13.614  0.0397 -0.1207  0.0708
35231W        W48645  17.646  18.191   5.354 -0.0176  0.0892 -0.0032
35232W        W48646   0.858  12.168   1.405 -0.2405 -0.0403  0.0222
35233W        W48647  12.388   3.175   2.095  0.0958  0.3080 -0.1983
35234W        W48648   8.705   1.602   0.414  0.2408 -0.0837  0.1756
35235W        W48649  17.024   5.691  12.060 -0.0308 -0.0741  0.3274
35236W        W48650  15.673  11.797   6.464 -0.2672 -0.0647 -0.1964
35237W        W48651  14.433  10.937  10.542  0.2252  0.0906  0.0779
35238W        W48652   6.573  15.824  11.381  0.1148 -0.1526  0.1414
35239W        W48653  16.198   7.847   0.879  0.1474 -0.1001 -0.3996
35240W        W48654  11.901   1.570  12.564 -0.2710 -0.0908  0.0117
35241W        W48655   2.014   1.068  10.584 -0.0851 -0.1088 -0.0855
35242W        W48656  15.026   9.619   0.597 -0.0938  0.3191 -0.0404
35243W        W48657   4.453   8.871  12.856  0.0409  0.2712 -0.0526
35244W        W48658  16.323  14.125   5.278 -0.0679 -0.1106  0.2783
35245W        W48659   7.926  17.265  12.719 -0.1827  0.0312 -0.2295
35246W        W48660   9.452  11.147  16.312  0.0374  0.0994  0.0387
35247W        W48661   9.287  12.536   2.271 -0.1199 -0.0309  0.4357
35248W        W48662  17.882   3.310   1.627 -0.2735  0.1416  0.2049
35249W        W48663  10.032   6.505   2.458  0.2478  0.3248 -0.3151
35250W        W48664   9.309   8.262  12.038  0.0524  0.0520 -0.3662
35251W        W48665  11.996   2.052  12.586  0.3508 -0.1264  0.0339
35252W        W48666   8.940   0.786  13.901  0.4045 -0.2250 -0.2788
35253W        W48667   3.030  15.052  13.317 -0.3585  0.3516 -0.3744
35254W        W48668  10.933   3.620  11.428  0.1960  0.0077 -0.1413
35255W        W48669   3.907  13.116   3.740  0.0341 -0.0168  0.6833
35256W        W48670   0.423   6.602   0.920 -0.0515 -0.0100  0.1020
35257W        W48671  13.684  14.036  11.703 -0.0395 -0.0249  0.1602
35258W        W48672  15.537  17.578   5.715  0.0079  0.0405  0.0743
35259W        W48673   7.075  16.226  12.511  0.2530  0.0455  0.1059
35260W        W48674  14.514   2.901   6.089 -0.1626 -0.0714 -0.0662
35261W        W48675  15.002   5.765  12.247  0.0691 -0.3075  0.0268
35262W        W48676   0.278  16.633  12.753 -0.0467  0.0721 -0.4666
35263W        W48677   5.074  10.183   2.248  0.2336  0.1279  0.0524
35264W        W48678   4.755   6.729  12.243 -0.0264  0.0208  0.1282
35265W        W48679  14.616   9.740   0.331 -0.1601 -0.1823  0.1581
35266W        W48680  12.793   9.550  11.523  0.3722  0.0692  0.1110
35267W        W48681  16.807  18.006   6.618  0.1384  0.1313  0.0239
35268W        W48682   7.109   8.886   1.093  0.0614 -0.1216 -0.3296
35269W        W48683  15.691   0.199  12.888  0.0839  0.0143 -0.1099
35270W        W48684   4.250   7.537   1.457  0.0641 -0.2736  0.2822
35271W        W48685   2.307   1.014   1.135 -0.0814 -0.0132  0.0996
35272W        W48686   3.282   9.576  14.811 -0.2847 -0.0915  0.0452
35273W        W48687   7.994  13.769  14.097 -0.0228 -0.0903 -0.0001
35274W        W48688   8.300  14.283  14.679 -0.1426  0.1357 -0.0463
35275W        W48689  10.494  12.662  14.423 -0.0828 -0.0245  0.1002
35276W        W48690   8.220   3.576   1.352 -0.1984  0.5047 -0.2138
35277W        W48691   9.419   9.680  11.619  0.2222 -0.1628 -0.1897
35278W        W48692  18.270  17.839  13.141 -0.1753 -0.2291  0.0101
35279W        W48693  18.325   3.830  12.267 -0.0271  0.2301 -0.0958
35280W        W48694  10.325   9.481  11.547  0.0065 -0.0940 -0.0195
35281W        W48695   6.042  15.153  11.089 -0.0373  0.1192  0.0300
35282W        W48696   2.826  12.661  12.720  0.3834 -0.1456 -0.3150
35283W        W48697   3.536  12.191  15.424 -0.2608 -0.1154  0.0746
35284W        W48698  11.046  13.057   0.832  0.0662 -0.2475  0.1450
35285W        W48699   0.205   7.790  14.317  0.0785  0.1505  0.1033
35286W        W48700   6.345  13.372   2.963  0.0322 -0.0471  0.0843
35287W        W48701  17.886  13.785   1.547 -0.1630  0.2503  0.2835
35288W        W48702  16.114   0.693  15.267 -0.0057 -0.1093 -0.2814
35289W        W48703  16.400  16.182  15.848 -0.2005  0.0728 -0.3337
35290W        W48704  10.594   2.073   3.239 -0.0377  0.0795 -0.4812
35291W        W48705  12.621  11.055  16.365 -0.0226  0.1526 -0.2727
35292W        W48706  18.044  17.686   0.368  0.0655  0.3676  0.0915
35293W        W48707   5.681  13.585   0.421 -0.2729  0.4378 -0.0341
35294W        W48708  16.695  12.702   3.241  0.0140  0.1118 -0.2768
35295W        W48709   0.755   7.811  14.511 -0.1524 -0.0004 -0.0554
35296W        W48710   9.616  15.534  13.553 -0.0161  0.2501 -0.1792
35297W        W48711  10.490  15.399  12.021  0.0803 -0.0516  0.2350
35298W        W48712   3.614   1.744  11.065  0.3243 -0.0846  0.0359
35299W        W48713   9.979  14.546   4.611  0.1443 -0.1896  0.1743
35300W        W48714   5.102   9.360   3.975  0.0502 -0.1743  0.2409
35301W        W48715   7.361  17.735   0.393 -0.0614 -0.0323 -0.1606
35302W        W48716   5.512  16.435  13.458 -0.1597  0.3149 -0.2493
35303W        W48717   6.474   7.343  15.749 -0.1893  0.1856  0.3844
35304W        W48718  10.576   1.204   2.332  0.0125  0.0314 -0.0427
35305W        W48719   9.401  13.502   0.149 -0.1522 -0.2469 -0.0423
35306W        W48720  16.574   2.715   1.913 -0.0941  0.1727  0.1435
35307W        W48721  16.682   2.207  14.797 -0.1540 -0.4863  0.0924
35308W        W48722   1.373  12.386   5.056  0.3571 -0.0855  0.1012
35309W        W48723  14.167   4.267   0.828  0.1301  0.1607  0.3064
35310W        W48724   1.774   9.025  12.825 -0.1053  0.0616  0.4338
35311W        W48725  15.270  13.198  13.021  0.0990  0.2556  0.0751
35312W        W48726   6.490  13.390   3.432  0.2700 -0.0289  0.1437
35313W        W48727  10.696   3.592   5.190 -0.2465  0.0459 -0.2698
35314W        W48728  10.311   8.302   0.049  0.0372  0.1405  0.0854
35315W        W48729   6.167  14.011  13.756  0.0900  0.1284  0.3614
35316W        W48730   7.516   4.757   0.909 -0.1064  0.1131  0.5131
35317W        W48731   2.491  13.069  13.509  0.1535  0.1275  0.3867
35318W        W48732  17.413   5.756  15.764  0.1573 -0.0772  0.1412
35319W        W48733  11.731  12.455   1.184 -0.2827 -0.0163 -0.0634
35320W        W48734  10.194   7.435  12.655  0.1152  0.1089 -0.1424
35321W        W48735  13.073  13.126   0.085 -0.0627 -0.0315 -0.1100
35322W        W48736   4.786  14.828   2.878  0.0588  0.1704  0.0178
35323W        W48737   6.028   7.518   1.719 -0.1280 -0.3495 -0.0443
35324W        W48738  15.319  14.864  14.176  0.0836  0.0872  0.0733
35325W        W48739   6.215   1.840   5.834  0.3100  0.2940  0.0871
35326W        W48740  15.147   5.248   1.090  0.1875 -0.0780 -0.1460
35327W        W48741   6.389  14.247   1.585  0.0067  0.0116  0.2574
35328W        W48742   9.051   3.698   4.466  0.2187  0.2139  0.0165
35329W        W48743   1.003  14.493   0.715 -0.1317  0.1938  0.1513
35330W        W48744   0.836   7.380   0.959 -0.0071 -0.0894  0.1303
35331W        W48745   8.392   1.663  14.557  0.0809 -0.3101 -0.2811
35332W        W48746  17.963  11.666   4.735  0.0544 -0.4389 -0.0751
35333W        W48747   5.558  10.888   1.026  0.0851  0.2021 -0.0746
35334W        W48748  16.445  15.844  14.857 -0.3232 -0.1817  0.4150
35335W        W48749   6.148  10.524   3.034  0.0093  0.0159  0.0262
35336W        W48750   3.970  17.904  14.294  0.2164  0.1510  0.1061
35337W        W48751  14.209  13.434  16.417  0.2057 -0.1392  0.0519
35338W        W48752  18.362   6.340   1.101 -0.0069  0.0418 -0.0056
35339W        W48753  11.847   4.087  12.111 -0.0200 -0.2198  0.1701
35340W        W48754   0.301  18.197  12.388 -0.1782  0.2209  0.1675
35341W        W48755  17.932   9.315   2.635  0.0475 -0.0126  0.0311
35342W        W48756   6.609  18.137  12.813 -0.2211  0.0454  0.0683
35343W        W48757  17.448  13.945   1.745  0.1387 -0.0958 -0.0982
35344W        W48758   7.461   0.153   2.633  0.0006 -0.0342 -0.0079
35345W        W48759   0.184   1.803  11.973 -0.1565  0.0277  0.3535
35346W        W48760   5.862   7.874  14.403  0.0443  0.1233  0.2601
35347W        W48761   3.878  15.884  14.829 -0.2576  0.3016 -0.3852
35348W        W48762   7.317  10.552  16.419 -0.0608  0.1360 -0.0283
35349W        W48763   1.314   2.518   3.956 -0.2202  0.1058  0.1544
35350W        W48764  16.640   9.533   1.517  0.0087 -0.2542 -0.0340
35351W        W48765  16.759   1.575   0.098 -0.1938  0.1047 -0.1042
35352W        W48766   8.771  15.652   0.009 -0.1100 -0.3293 -0.1906
35353W        W48767   7.587   7.201   2.588 -0.0383  0.1052 -0.3158
35354W        W48768  13.105  16.857  15.165  0.1072 -0.0129 -0.2943
35355W        W48769  15.044   9.267   3.643 -0.0135 -0.1331 -0.1413
35356W        W48770   5.866   0.743  14.591  0.0717 -0.0619  0.2197
35357W        W48771   4.494   4.908  14.742 -0.0944 -0.2505 -0.3134
35358W        W48772   2.336  16.031   5.937  0.2872 -0.0053 -0.1680
35359W        W48773  11.987   6.346   0.999  0.0143  0.2025 -0.0179
35360W        W48774   4.374  15.634   2.094  0.1278 -0.1175  0.0768
35361W        W48775   1.059   5.287   1.435  0.0748 -0.0494  0.0239
35362W        W48776   1.601   6.847   2.470  0.4044 -0.0434  0.1122
35363W        W48777  13.645   9.868  11.743  0.0697 -0.0694 -0.2216
35364W        W48778   3.951  17.362  14.391 -0.1144 -0.1246 -0.1047
35365W        W48779  10.767  11.268   9.852 -0.1578  0.1365  0.0454
35366W        W48780  11.326   0.143  13.838  0.0264  0.2664  0.0437
35367W        W48781   0.354   2.633   2.135 -0.0650 -0.2028  0.0569
35368W        W48782  13.250   5.889  11.970  0.0461  0.4413 -0.0140
35369W        W48783  10.073  10.970   2.436 -0.1146  0.0167  0.0889
35370W        W48784  14.366   1.128   3.265  0.0092 -0.2470  0.1086
35371W        W48785  17.591   0.492  13.226 -0.4057  0.3427  0.2554
35372W        W48786   6.712  12.499   3.642  0.2446 -0.0110 -0.0299
35373W        W48787   7.384  10.104  10.743  0.0523  0.0594  0.0105
35374W        W48788   7.475   9.984  14.735  0.1227 -0.1706 -0.2643
35375W        W48789   4.245   6.264   4.655  0.0946  0.0292  0.1244
35376W        W48790  10.934   1.172   0.961  0.0997 -0.1423 -0.1791
35377W        W48791  18.211   5.365  11.335  0.0047 -0.0723  0.3437
35378W        W48792  17.674   4.291  11.716 -0.0773 -0.4596 -0.3032
35379W        W48793  10.716  12.336   4.697 -0.1113  0.1214  0.2974
35380W        W48794  14.056   5.324  16.260  0.2184 -0.2197  0.1789
35381W        W48795  18.021   7.042  14.499  0.1356  0.0951  0.1102
35382W        W48796   7.977   8.077   0.548  0.2829 -0.2614  0.1749
35383W        W48797  10.960   7.358  14.142 -0.0330  0.0142 -0.3358
35384W        W48798  11.046   3.208   4.330 -0.1478 -0.3647  0.0289
35385W        W48799  14.997  18.081  14.414 -0.3214  0.0729 -0.2335
35386W        W48800   0.782   2.585  12.780  0.1809 -0.0089  0.2498
35387W        W48801   4.946   7.876   5.465  0.4215  0.3220  0.0610
35388W        W48802   9.059  14.346   3.318  0.2167 -0.0641  0.2897
35389W        W48803   7.556  10.336   4.417  0.3060  0.2077 -0.0943
35390W        W48804   4.516  10.471  12.067 -0.2113  0.2801  0.4430
35391W        W48805  17.549  10.927   1.738 -0.0213 -0.1007 -0.3500
35392W        W48806  16.119   5.055   3.769 -0.1029 -0.3397  0.1007
35393W        W48807   9.503   4.554  14.204  0.1593 -0.0031 -0.1778
35394W        W48808   7.332  13.274   4.625  0.1066  0.0886 -0.0337
35395W        W48809  10.683   0.874  15.175 -0.2117 -0.0045 -0.1209
35396W        W48810  10.125   2.357  12.691 -0.4057 -0.1887  0.4329
35397W        W48811  10.888  15.271  14.072  0.0167 -0.0217 -0.0472
35398W        W48812   5.913  11.580   0.685 -0.2561  0.0568 -0.0216
35399W        W48813   0.790  11.067   5.231  0.1083 -0.1572 -0.0460
35400W        W48814  13.580  18.301  13.034  0.0441  0.1268  0.1992
35401W        W48815  12.992  10.138  12.704 -0.1987 -0.1311 -0.3669
35402W        W48816   3.956   9.068  10.752  0.0464  0.1104 -0.4282
35403W        W48817  13.035  17.870   2.868  0.4716  0.3105  0.1788
35404W        W48818   6.968  14.582   5.575  0.1279  0.3422 -0.0233
35405W        W48819  15.999  11.503  16.480  0.1631 -0.1230  0.0244
35406W        W48820  13.792   2.355  11.274 -0.0710  0.0332  0.0217
35407W        W48821   0.128  10.556  13.669 -0.0273 -0.2734  0.0192
35408W        W48822  11.803   8.250   3.133 -0.1619  0.2862  0.0886
35409W        W48823  12.921   4.466   0.007 -0.0483 -0.3223  0.0666
35410W        W48824  16.543  16.929  12.560 -0.0708 -0.0171  0.2423
35411W        W48825   0.673   6.988   3.959  0.3433 -0.0705 -0.1592
35412W        W48826   8.884   3.693   2.464  0.1498  0.0003 -0.0182
35413W        W48827   3.692   7.467  13.730  0.1842 -0.2053  0.1912
35414W        W48828   9.377   2.105  12.045  0.1007 -0.2423  0.1823
35415W        W48829   9.380  12.758  11.416 -0.2540  0.0813  0.3743
35416W        W48830  17.155   4.264  16.128 -0.0566  0.1238 -0.2916
35417W        W48831   3.553   0.315   3.232 -0.4787 -0.0376 -0.1540
35418W        W48832  18.311  13.314   6.230 -0.0356 -0.1232  0.0023
35419W        W48833  13.645   7.868  15.676 -0.2925 -0.0948 -0.1526
35420W        W48834  10.725  13.822  12.929 -0.1278 -0.0599 -0.1548
35421W        W48835  14.065  13.151   1.279 -0.1187 -0.3119  0.0133
35422W        W48836   5.453   2.674  15.747  0.0769 -0.0160  0.0216
35423W        W48837  18.076   2.962   1.256 -0.0566 -0.1869 -0.0380
35424W        W48838  17.486   9.852  13.703  0.2905  0.6093  0.2798
35425W        W48839   2.971  16.916   0.156 -0.1217  0.0989 -0.1307
35426W        W48840  15.293  17.612  11.900  0.1065  0.0009 -0.2091
35427W        W48841   8.595  10.517   1.323 -0.2579 -0.0035 -0.3628
35428W        W48842   6.860   1.512   4.005 -0.1627 -0.0469 -0.1248
35429ION     NA48843   2.315   1.361   6.424 -0.0715 -0.0296  0.3022
35430ION     NA48844  18.301  12.174   5.571 -0.1664  0.1932  0.0608
35431ION     NA48845   7.019  11.913  14.156 -0.1412  0.1668  0.0011
35432ION     NA48846   7.550   2.281   9.950 -0.0140  0.1107 -0.2118
35433ION     NA48847   8.368  13.614  10.553  0.2797 -0.0863  0.4200
35434ION     NA48848  14.225   2.686  11.467  0.0994  0.1220 -0.0938
35435ION     NA48849   6.345   4.878  15.314 -0.3462  0.1464 -0.0535
35436ION     NA48850   5.886   6.573   9.985 -0.1657 -0.1167  0.0945
35437ION     NA48851   8.314   3.030  15.184 -0.2701  0.1801  0.0589
35438ION     NA48852   2.606  10.896   6.124  0.0009  0.2120 -0.1075
35439ION     NA48853  12.843  17.032  12.778 -0.2968  0.3578  0.1946
35440ION     NA48854  13.785  13.498   1.773  0.2815 -0.0528  0.1976
35441ION     NA48855   7.535   2.546  11.338  0.0784  0.0135 -0.1944
35442ION     NA48856   9.384   6.084   5.877  0.0079  0.1369 -0.3067
35443ION     NA48857  13.574  11.778   2.629  0.1273 -0.0306  0.0003
35444ION     NA48858  12.271  17.697   5.544 -0.1619 -0.1424  0.1878
35445ION     NA48859  11.794  12.889  11.738 -0.0138 -0.1487 -0.1277
35446ION     NA48860   7.506  12.380  10.322 -0.0650 -0.0045  0.1023
35447ION     NA48861  15.413  16.628   3.420 -0.2724  0.0124  0.1464
35448ION     NA48862   4.972  14.677  13.703  0.0700  0.0173  0.0949
35449ION     NA48863   4.969  12.941   5.172  0.1079 -0.1656  0.1380
35450ION     NA48864  11.101  17.598  11.863 -0.2226 -0.1481  0.1439
35451ION     NA48865   1.705  10.504   9.653 -0.0192 -0.0029 -0.0967
35452ION     NA48866   3.202   7.737   5.912  0.0778 -0.1220  0.0577
35453ION     NA48867   8.499   0.883   9.951 -0.2901  0.0374 -0.0233
35454ION     NA48868  12.072   2.692   1.057  0.1159 -0.2694  0.1637
35455ION     NA48869   8.830   0.555   5.925  0.2345  0.3070  0.0431
35456ION     NA48870   1.135   5.451  15.120  0.1554 -0.1647  0.1584
35457ION     NA48871   5.460  10.856   5.608  0.0823 -0.2331  0.0940
35458ION     NA48872   7.430  17.798   3.236 -0.2123 -0.0208  0.3868
35459ION     NA48873  11.832   9.657  15.634 -0.1084 -0.0112  0.1513
35460ION     NA48874   4.664   8.098  15.108 -0.3333  0.4615 -0.0693
35461ION     NA48875  17.530   1.773   6.178  0.0264 -0.0842  0.4276
35462ION     NA48876  16.523  16.569  12.961 -0.0392 -0.0034  0.0482
35463ION     NA48877   2.543  15.124   3.259 -0.0032  0.1790  0.2704
35464ION     NA48878   3.614   5.315   3.159  0.2336  0.1492  0.1269
35465ION     NA48879  10.851   0.950  16.012  0.1301  0.2577 -0.1237
35466ION     NA48880  12.287   3.109  15.775  0.1254 -0.1301  0.0359
35467ION     NA48881   6.774  11.624   6.220 -0.0021  0.0519  0.2832
35468ION     NA48882   8.579  11.430  10.027 -0.2850  0.1427 -0.0718
35469ION     NA48883  13.515  15.515   0.006 -0.1328 -0.1456  0.2957
35470ION     NA48884  14.744  16.964   6.828 -0.0788 -0.1266  0.0613
35471ION     NA48885   5.019   9.678  10.840  0.1700 -0.1081  0.2060
35472ION     NA48886   5.405  17.389   6.175 -0.1032  0.0569 -0.1815
35473ION     NA48887   2.528  15.876   6.470 -0.1619  0.0281  0.1479
35474ION     NA48888   3.990  12.982  14.359  0.2151 -0.0168 -0.1282
35475ION     NA48889  12.837  16.696  13.640 -0.1753 -0.0421 -0.1255
35476ION     NA48890  13.709   9.178   9.979 -0.2346  0.1903 -0.0066
35477ION     NA48891   4.859   8.995   9.740  0.1154 -0.1710  0.0644
35478ION     NA48892   3.827  18.018   6.366 -0.1679  0.0982  0.3749
35479ION     NA48893  15.295  16.668   5.344 -0.1521  0.0325  0.0978
35480ION     NA48894  13.930   0.256  15.883 -0.2025  0.1821 -0.2192
35481ION     NA48895   7.466   4.593  10.835  0.3151  0.2089 -0.1705
35482ION     NA48896   5.060  14.912  10.800 -0.2937 -0.0702 -0.2571
35483ION     NA48897   2.869   2.610   6.489 -0.1558 -0.0567  0.2991
35484ION     NA48898   5.855   3.419  10.281  0.1711  0.1486 -0.1094
35485ION     NA48899  15.708   4.702   5.854 -0.2542 -0.0611 -0.3526
35486ION     NA48900   2.983   4.384  13.172 -0.2353 -0.0451 -0.0736
35487ION     NA48901   2.646   1.082  12.337 -0.2253  0.0144 -0.1630
35488ION     NA48902   6.319  17.616  11.853 -0.1572 -0.3004  0.0846
35489ION     NA48903  11.430   6.172   3.176  0.0062 -0.0428  0.2923
35490ION     NA48904  11.159   0.862  10.006 -0.3318 -0.1412  0.3387
35491ION     NA48905   4.051  11.654  11.918  0.1532  0.0966 -0.1717
35492ION     NA48906   6.758  16.598  10.358  0.0292 -0.1587  0.0824
35493ION     NA48907  12.838   0.264   1.546 -0.0300  0.0551 -0.0269
35494ION     NA48908   9.272  15.568   1.452  0.1185  0.0375  0.0739
35495ION     NA48909   3.306   4.756   0.240 -0.0548 -0.0862  0.2604
35496ION     NA48910   3.633  10.717  16.134 -0.0019 -0.0292 -0.1985
35497ION     NA48911  15.994   5.736  11.217  0.2288 -0.1522  0.1662
35498ION     NA48912  14.609   9.142   0.251  0.0246  0.1430 -0.2556
35499ION     NA48913  10.964  16.126  10.072 -0.0071 -0.0726 -0.1608
35500ION     NA48914   1.107   8.067   5.997 -0.0592 -0.2297  0.2925
35501ION     NA48915   3.908  12.731   2.869 -0.0429 -0.0512  0.2968
35502ION     NA48916  11.244   4.315  10.525 -0.1307  0.0486  0.1122
35503ION     NA48917  15.343   4.330   1.853 -0.1811 -0.1599 -0.0602
35504ION     NA48918   7.336  16.860   5.665 -0.1137 -0.1558  0.2088
35505ION     NA48919   8.301   1.597   3.521  0.1004 -0.0608 -0.1254
35506ION     NA48920   4.353  10.223  14.943 -0.4631 -0.0992 -0.1052
35507ION     NA48921   3.967  18.073   5.316 -0.0157 -0.0772 -0.0407
35508ION     NA48922  15.501   3.632   0.191  0.0677  0.0434  0.0359
35509ION     NA48923   2.492   9.819  12.814 -0.0741 -0.3029  0.3743
35510ION     NA48924  13.630   5.839  13.246  0.3449  0.0048  0.2306
35511ION     NA48925   7.463   6.549   6.161  0.0439  0.1815  0.0138
35512ION     NA48926   7.955   8.564   5.812 -0.0431  0.0345 -0.0037
35513ION     NA48927  16.445   1.838   6.307  0.0630 -0.1721 -0.0255
35514ION     NA48928   3.390   2.924  13.619 -0.1445 -0.2244 -0.0700
35515ION     NA48929  18.364  15.572  16.451 -0.1693  0.2003  0.1449
35516ION     NA48930   8.071   5.384   4.326  0.0445 -0.1023 -0.2497
35517ION     NA48931   9.627  12.026   3.380  0.1653 -0.2358  0.0877
35518ION     NA48932   2.355  12.215   6.166  0.2365  0.2185  0.3751
35519ION     NA48933   6.955   6.724   4.413 -0.0417 -0.2519 -0.0411
35520ION     NA48934  12.856   5.885  15.013  0.0047 -0.0087 -0.2233
35521ION     NA48935  16.649  16.977   6.812 -0.0384 -0.0300  0.2368
35522ION     NA48936   2.187   9.747   9.898 -0.0650  0.1917  0.1678
35523ION     NA48937  11.992   2.588  13.545  0.0005  0.0065 -0.0481
35524ION     NA48938   2.504   1.323   1.604 -0.2381  0.0876 -0.3228
35525ION     NA48939   6.569  14.550  15.484  0.1443 -0.0271 -0.1606
35526ION     NA48940   8.675  13.750  16.175 -0.1624  0.1115  0.3394
35527ION     NA48941   8.912   2.092  15.976 -0.0608 -0.3064  0.0075
35528ION     NA48942   3.254   6.111  12.468  0.1034  0.1073 -0.0935
35529ION     NA48943  11.555   9.283   5.723  0.0020 -0.1593 -0.0922
35530ION     NA48944   2.142   2.567  10.792 -0.0630  0.1009 -0.0284
35531ION     NA48945  15.429  15.700   6.952  0.0478 -0.1576  0.0510
35532ION     NA48946  12.391  17.521   2.128 -0.2749 -0.0527  0.0860
35533ION     NA48947   8.759   9.675   2.431  0.0774 -0.0345 -0.1244
35534ION     NA48948   9.149   6.009  10.268  0.3384  0.1386  0.2052
35535ION     NA48949   9.292  13.521   3.826 -0.0763 -0.1006 -0.3925
35536ION     NA48950  15.081   2.617   4.667  0.2542 -0.1345 -0.0128
35537ION     NA48951  17.036   6.233  12.107  0.0249  0.4287  0.0362
35538ION     NA48952   7.487   0.510   4.441  0.3088  0.0077 -0.3614
35539ION     NA48953   1.308  16.629  12.828  0.2815 -0.1678 -0.0677
35540ION     NA48954   1.412   5.188  10.859 -0.0613 -0.0155  0.0886
35541ION     NA48955   1.041   1.021   6.058 -0.0129 -0.1074  0.1718
35542ION     NA48956   2.867  18.069  10.736  0.1370 -0.0425 -0.1015
35543ION     NA48957  11.473  17.457   3.183 -0.0854 -0.0980  0.0464
35544ION     NA48958  10.683   8.606  10.333 -0.0891  0.0329  0.0063
35545ION     NA48959   9.383   8.935   1.633  0.3589 -0.0807 -0.2679
35546ION     NA48960   5.866  14.070   1.708 -0.1600 -0.2272 -0.1048
35547ION     NA48961  15.167  11.905   0.871 -0.0215 -0.1570  0.0522
35548ION     NA48962   2.562   2.790  11.573 -0.2215  0.4582 -0.4227
35549ION     NA48963  15.221  18.016   6.656  0.2637  0.1145  0.1275
35550ION     NA48964   9.128   5.648   5.926 -0.1786 -0.3556 -0.1308
35551ION     NA48965   6.445   0.671   0.544  0.0808  0.0785 -0.3359
35552ION     NA48966   5.913   0.952  16.315 -0.0337 -0.0441 -0.0627
35553ION     NA48967  16.135   8.611  12.595  0.1903 -0.2022 -0.0926
35554ION     NA48968   1.562  17.193  15.823 -0.1929  0.1734  0.1997
35555ION     NA48969   4.918   5.194   0.970  0.0725 -0.0277 -0.3482
35556ION     NA48970   8.000  14.537  13.565 -0.0375 -0.1276  0.1194
35557ION     NA48971   1.609  13.156   4.449 -0.0477 -0.1122  0.1455
35558ION     NA48972   4.155   6.803   5.365  0.0567 -0.0904  0.2613
35559ION     NA48973   4.806  14.027  12.877  0.1728  0.1600  0.0661
35560ION     NA48974   6.670  12.387   0.662 -0.3304 -0.3226  0.0734
35561ION     NA48975  10.961   0.405  12.173  0.0877 -0.3088  0.1498
35562ION     NA48976   3.416  14.545  11.334 -0.0273  0.1943  0.1873
35563ION     NA48977   3.208   5.144  10.163 -0.0893  0.1771 -0.1496
35564ION     NA48978   6.332   6.123  12.720 -0.1531  0.2092  0.2535
35565ION     NA48979   4.709  16.419  11.500 -0.3294 -0.1390  0.2083
35566ION     NA48980  17.033   3.281  10.184 -0.4226  0.0886 -0.1439
35567ION     NA48981   4.989   2.472  10.898  0.0743 -0.0481 -0.3028
35568ION     NA48982  10.712  17.690   0.609  0.0519 -0.0778 -0.2670
35569ION     NA48983   7.945   9.656  12.755  0.1137  0.0653 -0.2323
35570ION     NA48984  16.112  12.837  10.717 -0.1279  0.2117  0.1361
35571ION     NA48985   8.299  13.251   3.843  0.3320  0.1561  0.1774
35572ION     NA48986  17.812  13.464   6.562 -0.3499 -0.0208 -0.1458
35573ION     NA48987   3.928   5.580   1.249  0.4251  0.0907 -0.0198
35574ION     NA48988  13.700  15.399  10.862  0.3746 -0.1065  0.1485
35575ION     NA48989   3.523   6.013   1.870 -0.1343 -0.1097  0.1366
35576ION     NA48990  18.365  13.345   1.168 -0.2235 -0.0016 -0.0622
35577ION     NA48991  14.751  14.558   5.910  0.0722 -0.0056 -0.0161
35578ION     NA48992   8.878  17.560   3.466  0.0976 -0.2725  0.0895
35579ION     NA48993  10.377  10.636   3.290  0.1149 -0.1211  0.3071
35580ION     NA48994  17.586  17.734   7.061  0.1752  0.1465  0.2476
35581ION     NA48995   6.594   4.912   9.952  0.1687  0.1564 -0.1756
35582ION     NA48996  13.946  13.072   6.732 -0.1423 -0.2661 -0.0309
35583ION     NA48997   7.431   4.216   2.300 -0.1359  0.0297  0.0187
35584ION     NA48998  17.617  12.425  10.354  0.0631 -0.0368 -0.1395
35585ION     NA48999   1.005   3.192   3.184  0.1187 -0.0892 -0.1223
35586ION     NA49000   1.409   5.940  12.482  0.2415 -0.1361  0.2622
35587ION     NA49001  10.989  11.313  15.179 -0.3331 -0.0135 -0.0460
35588ION     NA49002  16.033   2.338  13.802 -0.1208 -0.1318 -0.3274
35589ION     NA49003   0.674   9.383   4.998  0.0566 -0.0965 -0.2602
35590ION     NA49004   8.338  10.814  12.005 -0.0181 -0.1903 -0.3225
35591ION     NA49005   2.188   5.019   2.418  0.2454 -0.2982 -0.0631
35592ION     NA49006   5.578   7.348  15.487 -0.1048 -0.1937 -0.0094
35593ION     NA49007  16.262  11.495   3.850 -0.0345 -0.1050  0.0054
35594ION     NA49008   9.481   8.873   9.998  0.1445 -0.1093  0.0531
35595ION     NA49009  16.233   3.565  15.508  0.0099 -0.0237  0.1095
35596ION     NA49010  12.831   2.217  13.815 -0.1844  0.2083  0.1100
35597ION     NA49011   8.272   3.170  12.824 -0.2187 -0.3977 -0.1845
35598ION     NA49012  14.770  14.463   4.123  0.2381  0.0619  0.2590
35599ION     NA49013   1.830   4.900   5.679 -0.1784  0.3559 -0.0038
35600ION     NA49014   4.806   6.012  12.827  0.1861  0.1294 -0.1244
35601ION     NA49015  11.872  14.135   6.428 -0.1884  0.1575  0.2267
35602ION     NA49016  11.782   8.114   9.941  0.1843 -0.2642  0.2323
35603ION     NA49017   9.323   9.848   0.456  0.2451  0.0939  0.1486
35604ION     NA49018  17.108   7.861  14.456  0.0517  0.0124  0.0077
35605ION     NA49019  13.467  16.278   6.767 -0.1972  0.0968  0.1481
35606ION     NA49020   5.369  14.105   5.275 -0.0169  0.3441  0.0853
35607ION     NA49021   8.019  11.152  13.496  0.0781  0.1684  0.1273
35608ION     NA49022  17.032  10.958  12.994  0.2294  0.1785  0.2737
35609ION     NA49023  18.001   3.936  10.448  0.2611  0.2243 -0.0786
35610ION     NA49024   6.072   2.312  13.835  0.4586  0.2977 -0.1275
35611ION     NA49025   5.655  12.958  16.157  0.3248 -0.1508 -0.0688
35612ION     NA49026   2.832  13.534  10.811  0.3587 -0.0039 -0.0082
35613ION     NA49027  11.925   4.558  10.112  0.1818 -0.2185  0.0257
35614ION     NA49028   1.782   0.830  13.731 -0.1855 -0.1923 -0.2001
35615ION     NA49029  14.535   8.082   3.321 -0.2228 -0.1719 -0.5618
35616ION     NA49030  15.118  14.948   0.292 -0.1106  0.0154  0.3382
35617ION     NA49031   1.595   8.217  12.465  0.0461  0.3051 -0.3269
35618ION     NA49032  11.799  15.408  14.637  0.1888 -0.0182 -0.1319
35619ION     NA49033  16.699   5.167  10.371 -0.1060  0.0599 -0.1067
35620ION     NA49034   1.032   4.006  14.508 -0.1481  0.2510  0.5816
35621ION     NA49035   0.952   3.160  11.699 -0.0405 -0.3238 -0.0495
35622ION     NA49036   8.250  10.074   4.116 -0.1883  0.0515 -0.2091
35623ION     NA49037   6.570   1.679  10.248  0.5179 -0.0004  0.2860
35624ION     NA49038  14.497   0.739  10.478 -0.1070 -0.2234 -0.0768
35625ION     NA49039   6.371   5.863   4.201 -0.0015 -0.1079  0.3917
35626ION     NA49040  10.142  10.385   2.381 -0.0110 -0.1526  0.0970
35627ION     NA49041  16.367   3.954   3.437 -0.0356 -0.2552  0.0796
35628ION     NA49042  15.180   2.527  15.748  0.0781  0.1963 -0.0408
35629ION     NA49043   8.473   1.123  10.620  0.0039 -0.3451 -0.0574
35630ION     NA49044   7.899   9.362  16.298 -0.0166 -0.4015 -0.3997
35631ION     NA49045   5.963   6.207   6.061  0.3926  0.0827  0.0399
35632ION     NA49046   5.315   3.723  10.287  0.2886 -0.0662 -0.1199
35633ION     NA49047  14.196   6.577   9.433 -0.2049  0.0883 -0.0186
35634ION     NA49048  12.536   9.810   3.422 -0.3448 -0.1011 -0.0481
35635ION     NA49049   0.808  11.521  10.057  0.1327 -0.1895  0.1228
35636ION     NA49050   0.543  17.138  15.941  0.3316 -0.1246  0.0716
35637ION     NA49051   0.657  11.392  16.228  0.1363  0.0918  0.0730
35638ION     NA49052   4.813   0.987   6.547  0.1642 -0.1422  0.3572
35639ION     NA49053   8.719  12.873   6.353 -0.4776  0.2993 -0.2009
35640ION     NA49054  14.133   8.578   0.924  0.1724  0.1401 -0.1103
35641ION     NA49055   7.938  12.870  13.075  0.0002  0.0646 -0.1411
35642ION     NA49056   2.334  14.914  10.406 -0.0933  0.0134 -0.2337
35643ION     NA49057   0.774   6.000   9.807  0.2926 -0.1601 -0.1332
35644ION     NA49058   1.808   6.468   6.245  0.0195  0.1912  0.4508
35645ION     NA49059  17.772   1.665  16.203  0.2911 -0.2280  0.3779
35646ION     NA49060  16.765   9.871   9.951  0.0329  0.0378  0.1052
35647ION     NA49061   2.289   0.128  11.239  0.0646 -0.2000  0.0032
35648ION     NA49062   3.108   2.777   2.119 -0.1316  0.2668 -0.2824
35649ION     NA49063   7.725   0.383   6.303  0.0150 -0.0046  0.1380
35650ION     NA49064  16.304  12.273   3.204 -0.1296  0.0900  0.2406
35651ION     NA49065   9.805   3.604   9.938 -0.0385  0.0807  0.0289
35652ION     NA49066   0.013  12.872  13.538 -0.3790 -0.2241  0.0994
35653ION     NA49067   9.964  10.377  10.518 -0.1290 -0.0945 -0.1070
35654ION     NA49068  16.161  10.414   5.436  0.6268  0.4187  0.4664
35655ION     NA49069  17.238   1.524  10.972 -0.2211 -0.0858  0.0109
35656ION     NA49070   8.664   3.395   5.187  0.2747 -0.1182 -0.0971
35657ION     NA49071   4.614   4.165  10.280 -0.1868  0.0995  0.1079
35658ION     NA49072  14.505   0.090   6.602 -0.0779  0.4544  0.1646
35659ION     NA49073   5.435   6.070   4.195  0.2124  0.0115  0.1936
35660ION     NA49074  14.746   9.468   6.067 -0.3369 -0.1747  0.2794
35661ION     NA49075  12.303   9.231  12.226 -0.0913  0.0036  0.2059
35662ION     NA49076  11.747   7.720  13.150 -0.0518 -0.1842 -0.1103
35663ION     NA49077  15.228  12.010   6.572  0.1763  0.4116  0.6650
35664ION     NA49078  11.373  11.139   5.174 -0.1454  0.0658 -0.1379
35665ION     NA49079   7.847   9.956   2.933  0.0513  0.0911  0.3079
35666ION     NA49080   5.520  13.057  10.756 -0.0219 -0.0500  0.0123
35667ION     NA49081   5.858   5.695   2.944 -0.0533 -0.3945 -0.3438
35668ION     NA49082   3.003  12.224  13.536  0.1811 -0.0343 -0.3549
35669ION     NA49083  10.993   8.155   3.437  0.1512 -0.1057  0.2799
35670ION     NA49084   4.178  17.163   6.543 -0.0518  0.1148  0.4577
35671ION     NA49085  10.577  18.093  10.565  0.0813  0.2035 -0.0316
35672ION     NA49086   9.187   4.363   2.969 -0.0464 -0.1383  0.0931
35673ION     NA49087  18.292  14.043  10.986  0.2731  0.1455  0.0061
35674ION     NA49088  14.625   2.578   5.256  0.1555  0.1483  0.1965
35675ION     NA49089   7.219  10.175  10.225  0.2317  0.3469 -0.0455
35676ION     NA49090  10.929  14.979   4.929 -0.0006  0.1460  0.2861
35677ION     NA49091   6.871   5.508  14.649  0.1059 -0.0116 -0.1291
35678ION     NA49092   9.614  10.532  12.514 -0.0221 -0.2900  0.2551
35679ION     NA49093  16.816  14.805  11.215  0.1123  0.0952  0.1999
35680ION     NA49094  12.507  15.552   6.423 -0.3412 -0.0825 -0.0099
35681ION     NA49095   0.897   9.633   5.974 -0.1449 -0.1282 -0.0459
35682ION     NA49096  12.110   6.544   0.296 -0.2273  0.1461  0.0630
35683ION     NA49097   4.003  18.079  11.857 -0.0848 -0.1528 -0.1332
35684ION     NA49098  17.078   4.269  10.217 -0.1413 -0.1697  0.0527
35685ION     NA49099  14.720  12.540  10.847  0.0990 -0.4033  0.0357
35686ION     NA49100   2.708  17.537  12.328  0.3665 -0.1554 -0.0355
35687ION     NA49101  15.434   5.322   4.030  0.0100  0.1679 -0.2084
35688ION     NA49102   5.780  10.058   5.979  0.0234 -0.1667  0.0585
35689ION     NA49103   3.919  13.393  11.022  0.3175  0.0373 -0.0972
35690ION     NA49104   3.624  13.213  12.002  0.1898  0.1028 -0.1112
35691ION     NA49105  17.672  15.735  15.907  0.0192  0.2302  0.1158
35692ION     NA49106   6.710  16.395  16.429  0.5378 -0.1961 -0.2888
35693ION     NA49107  18.131   7.264  15.963  0.1587 -0.1381  0.0923
35694ION     NA49108  12.236   8.697  10.127  0.2290 -0.0950  0.0181
35695ION     NA49109  14.352  16.948  12.635  0.0573 -0.0939  0.1497
35696ION     NA49110   3.989   4.420   2.735  0.2306 -0.0714  0.0037
35697ION     NA49111  12.417   1.263  13.326 -0.1472  0.0548 -0.0860
35698ION     NA49112  16.001   0.174   6.677 -0.0654 -0.0866 -0.2000
35699ION     NA49113  12.560  18.084   6.233 -0.1645  0.4577 -0.0329
35700ION     NA49114  11.226   8.325   6.164 -0.0260 -0.2878  0.1217
35701ION     NA49115   9.973  10.727  16.060 -0.0741 -0.0947 -0.3203
35702ION     NA49116   8.999   0.562  10.033  0.0719  0.1895 -0.1036
35703ION     NA49117   6.358   8.503  10.306 -0.2166  0.1256 -0.0189
35704ION     NA49118  16.204  14.413   2.185 -0.1130 -0.1507 -0.1457
35705ION     NA49119   2.088   0.058   6.763  0.0002  0.1462  0.2020
35706ION     NA49120   2.336   0.116   5.691  0.0702 -0.1039 -0.1406
35707ION     NA49121  17.369   0.183   5.105 -0.1234  0.0349 -0.0700
35708ION     NA49122  14.728  10.068  16.406 -0.0566 -0.2540  0.1986
35709ION     NA49123   7.846  14.669  10.472 -0.1420  0.0873 -0.0180
35710ION     NA49124  16.008  10.114   2.600  0.0691  0.1365 -0.0509
35711ION     NA49125  16.142  16.521  10.859 -0.4091 -0.3401 -0.3108
35712ION     NA49126  10.613  15.399   6.119 -0.0011  0.1423  0.2636
35713ION     NA49127   3.237  12.181  11.256  0.1663 -0.0205 -0.3516
35714ION     NA49128   5.998  12.127   2.669  0.0615  0.2903 -0.0576
35715ION     NA49129  17.315   3.930  11.989 -0.2312 -0.1592  0.1721
35716ION     NA49130   5.299  14.779   2.257  0.1045  0.1118 -0.0879
35717ION     NA49131   6.943   6.383  10.051  0.0145 -0.0491  0.2215
35718ION     NA49132   6.728   9.380  15.801 -0.3243  0.0308  0.3326
35719ION     NA49133   7.562  16.014   2.870  0.2252  0.4515  0.0685
35720ION     NA49134   5.328  11.383  11.506  0.0756 -0.1053 -0.1163
35721ION     NA49135   6.688   1.595   5.631 -0.1354 -0.3081  0.0692
35722ION     NA49136  16.114   0.557  10.752 -0.2262 -0.1505 -0.3451
35723ION     NA49137  10.497   8.885   1.992  0.0365 -0.0145 -0.1968
35724ION     NA49138  14.208  10.382   2.504 -0.1647  0.0057 -0.2545
35725ION     NA49139   4.293   1.925   6.435 -0.0739 -0.0292  0.0757
35726ION     NA49140  16.313  11.432   5.074 -0.1444  0.0179  0.0988
35727ION     NA49141  17.961  14.766   3.003  0.4089  0.0188  0.4058
35728ION     NA49142   3.577   4.267   4.591 -0.1195  0.0169  0.1018
35729ION     NA49143  18.243   4.052   6.223 -0.1081  0.0694  0.2810
35730ION     NA49144  12.744  13.493  13.624 -0.0762 -0.1784 -0.2053
35731ION     NA49145   1.763  14.168  14.248 -0.2971 -0.2042 -0.1086
35732ION     NA49146  12.575   6.750   5.366 -0.0265  0.0269  0.0522
35733ION     NA49147  14.295   5.435   0.544  0.1272  0.0550 -0.1953
35734ION     NA49148   6.587   8.005   2.946 -0.0940  0.5986 -0.0078
35735ION     NA49149  10.621  17.311   6.112  0.0511 -0.2440 -0.1913
35736ION     NA49150  12.685   7.312   3.661  0.2877 -0.2102  0.0590
35737ION     NA49151   0.465  12.954  10.304 -0.0446  0.0605  0.1826
35738ION     NA49152  12.294   1.542   3.086  0.0311  0.1319 -0.0684
35739ION     NA49153  15.591   9.636   0.030  0.2901 -0.1865  0.0441
35740ION     NA49154   6.065  14.106   3.989  0.0728  0.1616 -0.1223
35741ION     NA49155  13.373   8.166  11.674 -0.0098 -0.1292 -0.2036
35742ION     NA49156  13.407  17.553   3.574  0.3044 -0.0710  0.0601
35743ION     NA49157   0.974  13.219  10.324 -0.4218  0.3486  0.2416
35744ION     NA49158   3.075   7.453  10.918  0.1437 -0.1982 -0.0949
35745ION     NA49159  11.220   7.697   4.855  0.2570 -0.1415 -0.2164
35746ION     NA49160   0.840   7.045   5.360  0.0686 -0.1637 -0.2267
35747ION     NA49161  17.798  18.089  11.088 -0.1062  0.0033  0.0589
35748ION     NA49162   8.558   9.135   3.512  0.0416 -0.0531  0.1925
35749ION     NA49163  12.615  15.119   5.167 -0.3141  0.0072 -0.0443
35750ION     NA49164  12.437   7.040  14.554 -0.0723  0.0003  0.2472
35751ION     NA49165   3.374   2.082   6.105 -0.1979 -0.3138 -0.0797
35752ION     NA49166  14.889  10.704  15.796  0.1288 -0.2133  0.0175
35753ION     NA49167  10.833   3.146   6.087  0.0493  0.0639 -0.0075
35754ION     NA49168   1.474   1.483   3.257 -0.2051  0.0312  0.1184
35755ION     NA49169  17.315   1.364   6.494 -0.2810 -0.2209 -0.0191
35756ION     NA49170  11.551  16.075  16.313 -0.3037 -0.1013  0.2067
35757ION     NA49171   3.341  12.665  15.321  0.1292  0.2118 -0.0765
35758ION     NA49172   2.247  10.399   0.486  0.1209 -0.1186  0.2662
35759ION     NA49173  11.973   0.836   2.745  0.0014 -0.0565 -0.5168
35760ION     NA49174   1.140  14.154  10.720 -0.0194 -0.2402  0.0357
35761ION     NA49175   2.643   6.429   5.500  0.0641 -0.1404  0.1499
35762ION     NA49176  11.701   6.073   4.361 -0.0265  0.0536  0.0504
35763ION     NA49177  15.659   4.757   0.152  0.2246  0.1201  0.3641
35764ION     NA49178   0.725  13.120   1.284  0.1491 -0.1201  0.0159
35765ION     NA49179   4.745  12.752   6.370 -0.2480  0.0705  0.1476
35766ION     NA49180  16.525  14.636   1.253  0.0326 -0.1717  0.2144
35767ION     NA49181  11.400  10.449   2.478 -0.0292 -0.0973 -0.0352
35768ION     NA49182   1.421   2.596   1.091 -0.2030  0.0857  0.2399
35769ION     NA49183  11.164  13.066  10.736 -0.1352  0.2029 -0.1349
35770ION     NA49184  16.818  10.110   2.579  0.1513 -0.0235 -0.0689
35771ION     NA49185   8.300   9.909   6.272  0.2292 -0.1697  0.0764
35772ION     NA49186   5.344  13.215  12.930  0.0991  0.2277 -0.3877
35773ION     NA49187   1.021  15.520   0.838 -0.0882  0.2974  0.0728
35774ION     NA49188   9.669   2.574   3.738  0.1385  0.5098  0.1375
35775ION     NA49189  13.332  16.412  16.386  0.1768 -0.1894 -0.0309
35776ION     NA49190  15.550   7.771   9.244 -0.1249 -0.1139 -0.2786
35777ION     NA49191   6.063   9.154   6.007 -0.1238  0.1933 -0.3911
35778ION     NA49192   6.951  15.211   5.878  0.1235 -0.0663 -0.0260
35779ION     NA49193  10.730   3.858   5.676 -0.1387 -0.1367 -0.1285
35780ION     NA49194  13.348   7.628   9.689  0.2675  0.0487 -0.0825
35781ION     NA49195  12.787  17.158  16.387 -0.1074  0.0108  0.2200
35782ION     NA49196   8.904  11.129   0.492  0.0113  0.0912 -0.0490
35783ION     NA49197  14.059  16.189  10.871 -0.1577  0.0765  0.0324
35784ION     NA49198  14.718   5.997   5.600 -0.0510 -0.1805 -0.0262
35785ION     NA49199   4.448   0.516   6.533  0.0657  0.2895  0.3599
35786ION     NA49200  12.321  17.551  14.673  0.2621  0.2177  0.0425
35787ION     NA49201  17.354  11.446   5.933 -0.1650 -0.1733  0.1128
35788ION     NA49202  11.836  10.022  10.041 -0.1269 -0.0472 -0.0780
35789ION     NA49203  15.045  15.671   6.568 -0.0416 -0.1099 -0.0259
35790ION     NA49204   4.191   9.340   9.922 -0.1572 -0.2251 -0.3206
35791ION     NA49205   2.082  12.273  13.260  0.1820 -0.3444 -0.0626
35792ION     NA49206   5.788   1.467   3.782 -0.2752  0.2186  0.1406
35793ION     NA49207   0.163  10.779   1.813 -0.2152 -0.0913 -0.2014
35794ION     NA49208  16.485  11.263   1.735 -0.0129 -0.0885 -0.0846
35795ION     NA49209   9.484  15.049   3.137 -0.0125  0.2699 -0.3808
35796ION     NA49210   9.124  12.577  11.780  0.0694 -0.1032 -0.0942
35797ION     NA49211   7.908   4.339   0.974 -0.0642 -0.1176 -0.2598
35798ION     NA49212  10.707  14.839  12.161  0.0344  0.0944  0.1095
35799ION     NA49213  13.607   3.132  14.606 -0.0295 -0.1766 -0.2384
35800ION     NA49214   7.521  17.759   9.955 -0.0377  0.0582 -0.1191
35801ION     NA49215  14.646   5.562  14.289 -0.1094 -0.1326 -0.0127
35802ION     NA49216  16.233   4.525   5.943 -0.1419 -0.1617 -0.2762
35803ION     NA49217  15.175   1.506   3.968 -0.1836  0.0450  0.0150
35804ION     NA49218  15.729  10.020  10.080  0.3091  0.2068  0.0239
35805ION     NA49219   5.765  12.251  14.332  0.1579 -0.2019  0.0022
35806ION     NA49220  11.201  14.545   0.761 -0.1938 -0.1699  0.3132
35807ION     NA49221  10.620  12.161  10.791 -0.1040 -0.3342 -0.2130
35808ION     NA49222  17.552  12.903   6.037 -0.0812 -0.3465  0.1231
35809ION     NA49223   6.677  10.747   6.324 -0.0464  0.1808 -0.0005
35810ION     NA49224  13.444  13.541   6.892 -0.1142 -0.2476 -0.4789
35811ION     NA49225   2.387   8.520   3.895  0.1442 -0.0931  0.0621
35812ION     NA49226   8.843   4.816   5.730  0.0766 -0.0422 -0.0174
35813ION     NA49227  13.496  10.863   4.302 -0.1330 -0.1580  0.1830
35814ION     NA49228   3.294   7.229  16.159 -0.2706 -0.2455 -0.1438
35815ION     NA49229   6.065   1.458  14.087 -0.1850  0.2439  0.1511
35816ION     NA49230   2.950   1.933  14.492 -0.4041 -0.0961 -0.2188
35817ION     NA49231  11.633   6.439  13.335 -0.3279  0.0027 -0.0361
35818ION     NA49232   9.500   3.265  16.376  0.0040 -0.2464 -0.1184
35819ION     NA49233   9.304   4.455  12.178  0.0526 -0.1890  0.0940
35820ION     NA49234  15.480  12.384   2.488  0.2586 -0.1150  0.4091
35821ION     NA49235   2.863  14.592   6.911  0.1539 -0.0648  0.1085
35822ION     NA49236   9.907   6.756   6.243 -0.2503 -0.1986 -0.0745
35823ION     NA49237   6.971  12.437  11.643  0.0730 -0.0321 -0.0688
35824ION     NA49238   6.302  15.865  10.610  0.0923 -0.2409 -0.0863
35825ION     NA49239   1.958  10.115   6.223 -0.1870  0.1451 -0.0608
35826ION     NA49240  13.212   2.726   4.144  0.1320  0.0011  0.1472
35827ION     NA49241   6.531  10.824   0.698 -0.0837  0.2005 -0.0355
35828ION     NA49242   4.580  13.403  12.464 -0.0127  0.0646 -0.0776
35829ION     NA49243  11.343   2.787   5.981 -0.1845  0.1429 -0.1527
35830ION     NA49244  13.073   7.884  14.387  0.0736 -0.1563  0.0774
35831ION     NA49245   9.655   0.140   1.894 -0.1002 -0.1917 -0.2107
35832ION     NA49246  17.380   6.448   5.725 -0.0783  0.1259 -0.0566
35833ION     NA49247  10.418   3.069  10.419  0.0502 -0.0883  0.1322
35834ION     NA49248  15.963  11.255   6.327  0.1916 -0.8026 -0.0869
35835ION     NA49249   3.101   5.761  13.191  0.3450 -0.0809  0.1886
35836ION     NA49250  16.844  12.451   2.385  0.0835  0.0903  0.2235
35837ION     NA49251   3.387  16.403  10.803  0.2454  0.0842 -0.4083
35838ION     NA49252   5.262   5.518   5.897 -0.2156 -0.1515  0.1660
35839ION     NA49253  14.294   0.937   2.083  0.1787  0.0399 -0.1472
35840ION     NA49254   7.713   1.087   0.694 -0.0342  0.0838  0.1981
35841ION     NA49255   2.172  13.847  10.473 -0.2260 -0.0543  0.3761
35842ION     NA49256  11.186   4.944   2.662 -0.1482  0.1051  0.1715
35843ION     NA49257   7.112   4.654   5.641 -0.0800  0.2096  0.0577
35844ION     NA49258  15.839   2.978   0.944 -0.0534  0.0533  0.1330
35845ION     NA49259   5.007   0.211  15.574 -0.1337  0.1465  0.0859
35846ION     NA49260   7.159  17.935   6.129 -0.2839  0.0667  0.0463
35847ION     NA49261  14.509  11.971  13.915  0.0078 -0.2735  0.1384
35848ION     NA49262   8.257   4.996   9.883  0.0935  0.1954 -0.2009
35849ION     NA49263   0.449  13.491   6.256  0.0925 -0.1339  0.1843
35850ION     NA49264   1.107   6.412  15.293  0.0629  0.0273 -0.2366
35851ION     NA49265  10.229  11.711   6.060 -0.2268 -0.2297 -0.3719
35852ION     NA49266   0.386  14.515   5.086 -0.2442  0.2320 -0.1717
35853ION     NA49267  17.442  16.788   7.180 -0.0999  0.1685  0.1020
35854ION     NA49268  11.359   2.086  10.060 -0.2761  0.0150  0.0595
35855ION     NA49269   8.149  11.942   0.349 -0.1264  0.1512 -0.1245
35856ION     NA49270   3.321   3.016  15.348  0.0810 -0.0781  0.0232
35857ION     NA49271   3.046   3.425   6.302 -0.0539  0.0895 -0.0660
35858ION     NA49272   4.655   4.867   5.660  0.3347 -0.0509  0.0557
35859ION     NA49273  11.442   3.580  16.307  0.0328  0.0260 -0.1570
35860ION     NA49274   2.369   7.919   2.334  0.1751 -0.2316 -0.1624
35861ION     NA49275   5.327   1.306   2.858  0.1349 -0.1168 -0.4052
35862ION     NA49276  10.852  13.691   1.946  0.0120  0.3863 -0.0187
35863ION     NA49277   7.557  14.176  11.414  0.0749 -0.3866 -0.2022
35864ION     NA49278  12.748   2.604  11.041  0.0848  0.0819  0.2406
35865ION     NA49279  15.482   6.715   3.327 -0.2512  0.1090  0.4637
35866ION     NA49280  12.937  14.264   2.659  0.1126 -0.1437  0.0104
35867ION     NA49281  17.008  16.856   0.235  0.1286  0.1289  0.2430
35868ION     NA49282   6.500  11.137   3.988 -0.3138  0.1171  0.0821
35869ION     NA49283  15.663   3.589  10.115 -0.1325  0.2328  0.1764
35870ION     NA49284  16.288   4.400   9.976  0.0933  0.1460 -0.0639
35871ION     NA49285   5.813   8.434   0.433  0.0270  0.0629  0.1488
35872ION     NA49286  13.363  17.977  12.056  0.0304  0.1972  0.0372
35873ION     NA49287   9.807   5.628  14.985  0.2216  0.4674  0.0007
35874ION     NA49288   6.244   0.098   6.284  0.0349 -0.0196 -0.0898
35875ION     NA49289   5.712  18.150   4.026  0.2058 -0.2339  0.0474
35876ION     NA49290   4.313   3.847   4.913  0.0497 -0.0253  0.4263
35877ION     NA49291  12.523  13.424   2.122  0.0738 -0.2369  0.4747
35878ION     NA49292  18.179   7.626   9.822 -0.1205  0.1290  0.0719
35879ION     NA49293   7.708  16.841  12.173 -0.0409  0.1270  0.2552
35880ION     NA49294  18.054   5.342  13.648 -0.1810 -0.0411 -0.1168
35881ION     NA49295   8.462  15.020   4.392  0.3295  0.5230 -0.0309
35882ION     NA49296  17.569  10.883  10.559 -0.0068  0.0142  0.0071
35883ION     NA49297   5.383  12.799   6.213 -0.1152  0.2451 -0.2739
35884ION     NA49298   5.184   3.535   0.984 -0.1407  0.3518  0.0858
35885ION     NA49299   5.659  14.159  15.362 -0.0763 -0.0809  0.3029
35886ION     NA49300  13.483   1.068  11.951  0.0909 -0.1392 -0.3026
35887ION     NA49301   6.490   3.293   9.785  0.0316  0.1021 -0.0275
35888ION     NA49302   7.439   0.447  13.387 -0.0226  0.0365  0.1204
35889ION     NA49303   5.272   9.480   4.431 -0.1491  0.0670 -0.2257
35890ION     NA49304   1.690  18.358   2.020  0.0116 -0.0067  0.0878
35891ION     NA49305   2.643   1.713   1.110  0.1433 -0.1515 -0.1938
35892ION     NA49306   2.512  12.484  14.911 -0.0255 -0.0363 -0.2663
35893ION     NA49307  10.689   3.400   1.812 -0.2329 -0.1007 -0.0887
35894ION     NA49308   5.491   4.484  15.512 -0.0747  0.0442  0.0777
35895ION     NA49309  15.492   0.545   6.648  0.1690  0.2791  0.2171
35896ION     NA49310  13.026   8.607   5.388  0.0170 -0.2040 -0.2020
35897ION     NA49311   7.026  13.753   0.978 -0.2076  0.2535  0.4799
35898ION     NA49312  11.909  12.488  10.800  0.1039 -0.0790  0.0049
35899ION     NA49313   0.887   9.269  11.609  0.1740 -0.0076 -0.1587
35900ION     NA49314   4.445   9.124  14.047  0.1804  0.3382 -0.0348
35901ION     NA49315   3.391   1.322   1.281  0.2273 -0.3205 -0.0124
35902ION     NA49316  12.659   3.802  12.006 -0.0502 -0.3037  0.2806
35903ION     NA49317  18.292   3.106   6.016 -0.2816 -0.1951 -0.2020
35904ION     NA49318  12.961   4.463   4.114 -0.4856  0.0823  0.3528
35905ION     NA49319   0.252   9.548  10.921  0.1774 -0.0717 -0.1340
35906ION     NA49320   9.480  11.842  15.176  0.1099  0.1312  0.0588
35907ION     NA49321  15.623  14.929  13.329 -0.3738 -0.3141 -0.1936
35908ION     NA49322  11.721  10.683   3.812 -0.1722 -0.1040 -0.2023
35909ION     NA49323  15.122   8.610  12.189 -0.1103  0.0909  0.2154
35910ION     NA49324   5.814  16.139   0.714  0.1655 -0.0234  0.1136
35911ION     NA49325   5.603   3.147  11.717 -0.6164 -0.3914 -0.0108
35912ION     NA49326   3.743  15.411  14.338 -0.0550  0.1676  0.0234
35913ION     NA49327  10.422   2.274   0.932  0.0066  0.1694  0.0607
35914ION     NA49328  15.900   7.679   5.485 -0.0629  0.1652 -0.0905
35915ION     NA49329  12.927   0.672  10.307  0.2084 -0.1065  0.1492
35916ION     NA49330   6.351  11.612  16.370  0.1189  0.1329  0.1414
35917ION     NA49331  16.690  13.632  15.520 -0.0889 -0.1024 -0.0555
35918ION     NA49332   9.050  10.529  14.606 -0.1770 -0.0083 -0.0264
35919ION     NA49333  12.371  12.379  10.678 -0.2338  0.0749 -0.1991
35920ION     NA49334   1.863   0.897   6.848 -0.0118 -0.0851  0.2465
35921ION     NA49335   2.105  16.583  14.300 -0.0536  0.0582 -0.2946
35922ION     NA49336  15.594   2.082   5.730 -0.4679 -0.2378  0.1043
35923ION     NA49337   6.128  12.322  12.253 -0.0780 -0.1479  0.0594
35924ION     NA49338  12.552  15.645   1.622  0.3715  0.2829  0.0386
35925ION     NA49339  16.317  15.371  14.695  0.1113 -0.2910 -0.2171
35926ION     NA49340   1.279   1.365  16.275  0.1790  0.1354  0.2541
35927ION     NA49341   3.886   8.199  14.607 -0.0160  0.0590 -0.0609
35928ION     NA49342  15.515   6.330   5.792  0.5440  0.1157  0.1119
35929ION     NA49343  11.416   1.364  10.692 -0.1979  0.0742  0.1951
35930ION     NA49344  13.819  14.586   2.827  0.4450  0.3445  0.0885
35931ION     NA49345  11.637   3.509  13.789 -0.4394  0.3835 -0.0605
35932ION     NA49346   3.967   0.645   5.359 -0.3657  0.5036 -0.1459
35933ION     NA49347   5.297  11.262   6.297  0.2348 -0.2534 -0.0351
35934ION     NA49348  17.874   6.312  10.073  0.1012 -0.0003 -0.1294
35935ION     NA49349   4.369   0.025   4.395  0.4190  0.2368  0.1457
35936ION     NA49350   4.888  10.061   6.050  0.1936  0.2280  0.1638
35937ION     NA49351  12.665  10.492  16.326 -0.0424 -0.0587  0.0139
35938ION     NA49352  18.284  17.873  12.323 -0.2391  0.2457 -0.2448
35939ION     NA49353  14.200  18.366   1.437 -0.4541  0.0516  0.0125
35940ION     NA49354  16.168   1.792   0.683  0.1081  0.3029 -0.0024
35941ION     NA49355   2.461   8.479   5.705  0.0952  0.0888  0.1906
35942ION     NA49356  12.583  13.950  10.481  0.2126 -0.2757 -0.1993
35943ION     NA49357   0.468   6.597  12.788  0.0103  0.2221  0.1069
35944ION     NA49358  16.498   2.460   4.632 -0.1237  0.2577  0.2845
35945ION     NA49359   8.466  17.338  13.582  0.0371  0.0220  0.0117
35946ION     NA49360   0.369   5.332   5.057 -0.1279 -0.2106 -0.1078
35947ION     NA49361   4.378  16.450  10.736 -0.1521  0.0622 -0.0848
35948ION     NA49362   8.818   9.214   6.240  0.1834  0.0732  0.0793
35949ION     NA49363  16.648  10.964   6.075 -0.2442  0.3963 -0.0005
35950ION     NA49364  15.190  16.472  10.858 -0.2260  0.0192 -0.0751
35951ION     NA49365   2.996   6.760  11.743 -0.2467 -0.1410  0.3765
35952ION     NA49366   2.096  11.594   4.355  0.0867  0.2505 -0.1413
35953ION     NA49367  13.503  13.810  10.701 -0.0280 -0.1317 -0.1936
35954ION     NA49368  15.674   6.696  12.980 -0.1766  0.1907 -0.1026
35955ION     NA49369   3.799   3.775   6.413 -0.0157 -0.1898  0.1256
35956ION     NA49370   0.824   6.975  11.319 -0.1706 -0.0392 -0.0368
35957ION     NA49371  14.884   6.652  14.305 -0.1280 -0.2567 -0.1121
35958ION     NA49372  14.573   3.348   5.848  0.0098 -0.2804  0.3078
35959ION     NA49373  15.174   0.304  14.386  0.3643  0.3814 -0.3006
35960ION     NA49374   9.614  17.310  15.109 -0.3583  0.5436 -0.0487
35961ION     NA49375  15.849  17.032   0.896 -0.0034 -0.0845 -0.2355
35962ION     NA49376   5.715   0.298  11.840 -0.2403 -0.0774  0.0947
35963ION     NA49377  11.045   8.610   0.283 -0.1407 -0.2535  0.1088
35964ION     NA49378   0.908  17.119   2.145  0.0987  0.2933  0.2056
35965ION     NA49379   2.248   5.406   6.140 -0.2317 -0.0079 -0.1490
35966ION     NA49380   7.919  13.110   6.178  0.0721 -0.3724 -0.2632
35967ION     NA49381  13.058   2.057  15.980  0.0473  0.1314  0.1563
35968ION     NA49382   3.709   9.251   1.161  0.3982  0.0360  0.1111
35969ION     NA49383   9.049   4.598   9.757 -0.3134  0.0801  0.2516
35970ION     NA49384  17.049   4.107   5.328 -0.0789  0.1493  0.2266
35971ION     CL49385   6.255   5.425  15.427  0.3262 -0.1926  0.0528
35972ION     CL49386  15.801  13.591  12.082  0.1436 -0.3435  0.0780
35973ION     CL49387   8.996   2.417  15.612  0.0929 -0.2602  0.1052
35974ION     CL49388   9.239   9.452   2.445 -0.1841  0.3463  0.0537
35975ION     CL49389   7.885  14.304  10.823  0.1717 -0.0631 -0.1165
35976ION     CL49390  14.368  14.710   5.662  0.0227 -0.1845  0.3545
35977ION     CL49391   4.841   9.768  16.282  0.2967 -0.2010  0.2628
35978ION     CL49392  17.477  16.517   3.146  0.1530  0.3927  0.0220
35979ION     CL49393  17.061  12.156   1.326 -0.0517 -0.4049 -0.3044
35980ION     CL49394  16.421   0.444   4.687  0.1048 -0.5569 -0.0090
35981ION     CL49395   5.727   5.922  13.999  0.1681 -0.1730  0.2439
35982ION     CL49396   8.358  14.400   1.917  0.0074 -0.2902  0.0630
35983ION     CL49397  16.205  15.621  12.011  0.1007 -0.1209  0.0912
35984ION     CL49398   9.126   2.930  16.159 -0.1585  0.3054  0.2196
35985ION     CL49399  11.594   6.499   3.679 -0.1514 -0.0095  0.2345
35986ION     CL49400  13.310   0.118  12.031 -0.2824 -0.0006  0.0535
35987ION     CL49401  10.679   1.774   0.918  0.0295 -0.1276  0.2573
35988ION     CL49402  13.376  16.759   5.653 -0.2034 -0.2866  0.1168
35989ION     CL49403   7.941   2.350  14.080 -0.1431 -0.1688  0.0747
35990ION     CL49404  12.975   1.821  11.160  0.1945 -0.1073  0.1642
35991ION     CL49405  12.755  14.483   3.230 -0.0491  0.2687 -0.0134
35992ION     CL49406   8.404   4.734   0.162 -0.4070  0.0613 -0.1254
35993ION     CL49407  15.821  12.563   3.469  0.1162  0.2125  0.3218
35994ION     CL49408  16.959  12.292   3.994  0.1839 -0.0169 -0.1604
35995ION     CL49409   0.256  13.257   1.574 -0.1249 -0.1211  0.0902
35996ION     CL49410   6.636  11.991  16.209 -0.0397 -0.0523  0.1151
35997ION     CL49411  11.503  14.467   2.961 -0.1770  0.0076 -0.1311
35998ION     CL49412   5.341   6.192  16.201 -0.1713 -0.1467  0.1653
35999ION     CL49413   9.364   3.747  16.278 -0.0412  0.1067 -0.0325
36000ION     CL49414   7.741  15.571   2.570 -0.0231 -0.2102  0.1071
36001ION     CL49415  14.392   8.450   3.058  0.1564  0.2421  0.1827
36002ION     CL49416  14.105   3.701  12.299 -0.2070 -0.2210 -0.0923
36003ION     CL49417   6.635  13.814   3.745 -0.1930  0.0502 -0.0268
36004ION     CL49418  11.282   6.268   4.256  0.4082 -0.1359 -0.1098
36005ION     CL49419  17.138   5.190   3.363 -0.3108 -0.1415  0.2799
36006ION     CL49420   8.563  12.544   3.347  0.1205 -0.1526  0.1342
36007ION     CL49421  15.702   2.262   3.491 -0.3047  0.1803  0.2961
36008ION     CL49422   9.230  16.938  15.365 -0.3032  0.2201  0.0201
36009ION     CL49423  16.673  10.728   1.751  0.0164  0.0900 -0.2434
36010ION     CL49424   7.269   7.698  11.293  0.1997 -0.1512 -0.2310
36011ION     CL49425  10.287  17.374   0.691  0.0946 -0.0990  0.4366
36012ION     CL49426   0.001  15.456  14.349  0.1025  0.3105  0.0586
36013ION     CL49427  18.053  14.730   5.955  0.1815 -0.3737 -0.1908
36014ION     CL49428   3.303  12.851  11.830  0.3328 -0.0975 -0.1068
36015ION     CL49429   1.939  18.266  11.466 -0.1301  0.1483 -0.0418
36016ION     CL49430   6.829  16.701  13.867 -0.0134 -0.1975 -0.5002
36017ION     CL49431   7.289   1.365   0.732 -0.1027 -0.0521 -0.3079
36018ION     CL49432  12.134  18.103  15.466  0.1360  0.1556 -0.3626
36019ION     CL49433  10.917   2.950   1.872  0.0719  0.1534  0.1541
36020ION     CL49434  11.478  12.775  11.381  0.2356 -0.0813  0.2115
36021ION     CL49435   9.613   0.811  13.385 -0.1714 -0.2138  0.2144
36022ION     CL49436   6.264   1.031   0.179 -0.2097 -0.5244  0.1190
36023ION     CL49437  15.159  17.002   6.490  0.0460  0.0014 -0.1605
36024ION     CL49438   5.903   4.578  15.224  0.0720  0.5153  0.3144
36025ION     CL49439  16.961  14.831   0.879 -0.1126 -0.1890 -0.0717
36026ION     CL49440   2.312   5.060  14.558 -0.0144  0.0273 -0.2038
36027ION     CL49441   3.388  11.027  14.747  0.1610 -0.0810  0.0338
36028ION     CL49442   0.783   9.881   4.916  0.1931  0.0842 -0.2774
36029ION     CL49443   5.503  17.118  15.882 -0.1202  0.0355 -0.1006
36030ION     CL49444   8.143  17.073   4.817  0.2950  0.2199  0.0474
36031ION     CL49445   8.279   0.969  13.794 -0.1254  0.1571 -0.0922
36032ION     CL49446   9.578  15.823   1.706 -0.0647  0.2299  0.1473
36033ION     CL49447  17.031  13.343   2.813 -0.1560  0.0687  0.2401
36034ION     CL49448   3.045  16.318   2.887 -0.2820  0.0486  0.3080
36035ION     CL49449  15.828   0.421   6.280  0.2726 -0.2557 -0.0647
36036ION     CL49450  13.131   9.647  14.364 -0.0123 -0.1118 -0.1693
36037ION     CL49451   4.331   8.963   2.733 -0.0802 -0.1928 -0.0312
36038ION     CL49452   1.788   7.530  15.195 -0.1339 -0.2931  0.0068
36039ION     CL49453   1.264  17.589  16.029 -0.0501 -0.1675  0.3204
36040ION     CL49454   1.674   4.632   4.089  0.1304 -0.1288  0.1454
36041ION     CL49455  12.535   3.830  11.501 -0.0766 -0.1554 -0.1831
36042ION     CL49456   9.582   9.224  15.274  0.0927 -0.1673  0.0838
36043ION     CL49457   2.753   3.191  13.839  0.3374 -0.2692  0.1066
36044ION     CL49458   9.264  17.521   2.957  0.0912  0.0774  0.0116
36045ION     CL49459   7.473   9.373   1.386 -0.0998 -0.1566 -0.0261
36046ION     CL49460  12.981   6.136  13.676 -0.0176  0.2993 -0.2434
36047ION     CL49461  15.892   4.329   1.777 -0.1086 -0.1623  0.2550
36048ION     CL49462   7.188  18.354   3.995 -0.0352 -0.2198 -0.3960
36049ION     CL49463  11.851  10.272   2.376 -0.2290 -0.0251 -0.0052
36050ION     CL49464  14.789  15.427   6.254 -0.0559 -0.0668 -0.1667
36051ION     CL49465   9.319   2.458   0.556  0.0846  0.1038  0.4776
36052ION     CL49466  17.353  17.768  15.174 -0.2168 -0.1232  0.3287
36053ION     CL49467  16.117   9.946  16.291  0.1018  0.0805 -0.2833
36054ION     CL49468   3.059  13.808   0.639 -0.0933  0.2199  0.0804
36055ION     CL49469  16.877   2.533   4.326 -0.1008  0.0276  0.0771
36056ION     CL49470   8.481   9.632  13.712  0.1384  0.2176  0.2415
36057ION     CL49471   9.702  11.699   2.086 -0.0896  0.2005 -0.1333
36058ION     CL49472  14.232   2.195   0.248  0.1293 -0.1052 -0.2218
36059ION     CL49473   4.697   0.162   0.734 -0.0029 -0.0572 -0.2429
36060ION     CL49474   7.892  12.326   0.608 -0.2450  0.0071  0.0093
36061ION     CL49475   6.790  11.192   4.471  0.0997  0.0355 -0.0582
36062ION     CL49476   3.226  10.039   2.099 -0.0650 -0.2540 -0.3393
36063ION     CL49477  10.867  13.549   2.416  0.0747  0.1908 -0.0675
36064ION     CL49478   5.687   8.186   4.822  0.0378 -0.0076  0.0883
36065ION     CL49479  17.897   4.478  14.092 -0.0664  0.1264 -0.0287
36066ION     CL49480  16.228   6.719  15.255 -0.2413  0.0148 -0.1731
36067ION     CL49481  18.324  16.425   0.467  0.1197  0.3010 -0.4662
36068ION     CL49482  11.291   3.217  13.619 -0.2050  0.3192 -0.0409
36069ION     CL49483   3.850  12.729   3.378  0.2209  0.1448  0.2590
36070ION     CL49484   3.796   2.531  13.037  0.0938  0.3360 -0.2518
36071ION     CL49485  16.767   7.645  14.100  0.1519  0.0312 -0.2646
36072ION     CL49486  16.264  18.009   0.611 -0.0767  0.1533 -0.1734
36073ION     CL49487  14.352  17.949   1.665 -0.1367  0.2494  0.2830
36074ION     CL49488   0.369   8.940   3.110 -0.1146  0.2377 -0.1105
36075ION     CL49489  17.422   5.959  14.260  0.1050  0.2395 -0.0709
36076ION     CL49490  13.875  13.333   2.214  0.0173  0.3231  0.1043
36077ION     CL49491  13.450   8.169  14.496  0.1278 -0.1695  0.2066
36078ION     CL49492   7.334  18.255   3.068 -0.0319  0.0696 -0.0190
36079ION     CL49493   5.588  11.215   5.892 -0.2828 -0.2104 -0.0231
36080ION     CL49494   1.997   1.166   1.510 -0.0896  0.0899 -0.0091
36081ION     CL49495  16.493  16.257   3.329  0.2059  0.0044 -0.2229
36082ION     CL49496   9.852  12.063  15.507  0.2102 -0.0802  0.0493
36083ION     CL49497   4.882  13.144  12.047  0.1314  0.0951  0.1005
36084ION     CL49498   3.071  15.733  15.304 -0.2130  0.0756 -0.0632
36085ION     CL49499   9.149  13.050   4.034 -0.0435 -0.0515  0.1470
36086ION     CL49500   6.342   4.343  12.302 -0.2053 -0.0862  0.0775
36087ION     CL49501   8.198   7.645  13.162 -0.0492  0.1492 -0.2277
36088ION     CL49502   9.663   2.796  11.480 -0.0004  0.3834 -0.0163
36089ION     CL49503   9.180  10.443   2.550 -0.1124 -0.1169  0.2363
36090ION     CL49504  12.705  18.210   3.006  0.0321  0.1340 -0.1850
36091ION     CL49505  10.944  11.468   5.270 -0.0297 -0.0500 -0.1673
36092ION     CL49506   0.035   5.408  13.332  0.2327  0.3585 -0.0556
36093ION     CL49507  17.343   1.549  15.994 -0.1164  0.0355  0.2804
36094ION     CL49508   7.001   8.077  15.331  0.1853  0.0327  0.3992
36095ION     CL49509  11.479  13.808  13.896  0.2070 -0.2442 -0.0807
36096ION     CL49510  16.586  16.321  15.055 -0.6052 -0.2967  0.3237
36097ION     CL49511  13.068  15.299   5.388 -0.0422  0.2196  0.0783
36098ION     CL49512  15.485   6.933   3.778  0.0229  0.1006  0.1540
36099ION     CL49513   4.701   2.561   4.565 -0.1352 -0.0799  0.3421
36100ION     CL49514   7.102  14.557   5.055  0.0763  0.1452 -0.0958
36101ION     CL49515   3.600  11.764  12.084 -0.1462  0.0498 -0.0977
36102ION     CL49516   9.436  14.292  13.678  0.2834  0.3430  0.0411
36103ION     CL49517  13.041  11.675  12.251 -0.2178  0.1121  0.5121
36104ION     CL49518  18.335  13.309  13.967  0.2259 -0.0666  0.0023
36105ION     CL49519   2.715   6.005  11.307 -0.2097 -0.1765 -0.0603
36106ION     CL49520  11.671  16.548  16.287 -0.0410  0.2904 -0.0797
36107ION     CL49521  12.141   2.720  14.058  0.0230 -0.1541 -0.0897
36108ION     CL49522   3.925  17.540   3.884  0.0602 -0.2547 -0.2823
36109ION     CL49523   4.103  14.060  11.615  0.0234  0.4468  0.0349
36110ION     CL49524   7.794   2.207   3.035  0.1959 -0.1475 -0.0299
36111ION     CL49525  16.939   2.433   1.662 -0.0277  0.0752 -0.1455
36112ION     CL49526   0.990  16.220  12.806  0.1900  0.1043  0.0514
36113ION     CL49527  16.288   6.033  10.878 -0.2802 -0.2116  0.0905
36114ION     CL49528   7.394  17.829   0.984 -0.2147  0.1630 -0.1805
36115ION     CL49529   0.208   9.827   4.263  0.0918 -0.4148 -0.2236
36116ION     CL49530   9.859   5.150  14.752  0.2355 -0.1965  0.1624
36117ION     CL49531  13.306  17.295  12.055  0.1517  0.0027  0.0694
36118ION     CL49532  10.061  10.920   2.988 -0.0465  0.1325  0.0794
36119ION     CL49533   2.453   1.201  11.873  0.0139  0.1149  0.0176
36120ION     CL49534  14.090  11.893   4.432  0.0285  0.0188  0.2182
36121ION     CL49535   2.592  15.138   1.689 -0.3411  0.2773 -0.2001
36122ION     CL49536   8.027  13.982  11.807 -0.0252 -0.0881  0.2666
36123ION     CL49537  13.175  17.107  16.053  0.4187 -0.1262  0.2141
36124ION     CL49538  17.409  15.603   3.226  0.3410  0.0584  0.1582
36125ION     CL49539   5.746   6.177   3.727 -0.3839  0.0464  0.1911
36126ION     CL49540  18.219   4.137  11.884  0.1125 -0.0392 -0.0443
36127ION     CL49541   9.384   4.583  11.603  0.3212 -0.0775  0.1237
36128ION     CL49542  16.099  10.161   3.670 -0.2802  0.3579  0.2982
36129ION     CL49543  12.774  17.118  13.309 -0.2171  0.1335  0.4332
36130ION     CL49544  15.666   1.485   0.636  0.1487 -0.2221  0.0666
36131ION     CL49545  11.772  15.001   5.452 -0.3524  0.0493 -0.2458
36132ION     CL49546   0.714  11.497   1.960  0.0221 -0.0352  0.2775
36133ION     CL49547   7.573  13.662   5.389  0.1517  0.2074  0.1728
36134ION     CL49548  17.999  12.536  13.369  0.0996 -0.0575  0.0349
36135ION     CL49549   5.517  14.336   1.998  0.0092  0.0309  0.0016
36136ION     CL49550  13.838   1.475  10.929 -0.1873  0.2979 -0.1517
36137ION     CL49551   8.059  12.979  13.611  0.2357  0.0051  0.2224
36138ION     CL49552  15.924   7.685  10.162 -0.1533 -0.0246  0.2821
36139ION     CL49553   4.312   9.409  13.468 -0.0837 -0.0643  0.2608
36140ION     CL49554   0.847  14.377   5.249 -0.0939  0.1344  0.0923
36141ION     CL49555  14.056   9.948  12.940 -0.2141  0.1385  0.1304
36142ION     CL49556  14.542  17.614  12.549  0.1933 -0.1372  0.0685
36143ION     CL49557   6.497  12.772  11.676  0.0846  0.4453  0.3813
36144ION     CL49558  16.383   9.986   2.267 -0.2673  0.0211 -0.2292
36145ION     CL49559   3.703   3.342  13.978 -0.1307 -0.0806  0.0092
36146ION     CL49560  12.669  17.249  14.935 -0.1202 -0.0879  0.3835
36147ION     CL49561   1.352   3.035   3.441  0.1518 -0.0316 -0.0554
36148ION     CL49562   4.957   8.060   4.396 -0.1818 -0.0917  0.1140
36149ION     CL49563  16.397  14.495  14.826 -0.2022 -0.4830  0.0149
36150ION     CL49564   1.440  14.228  13.910  0.1926 -0.1938  0.0560
36151ION     CL49565  15.859   5.105  13.645  0.1329 -0.0404 -0.0381
36152ION     CL49566  11.997  15.083  14.981  0.0031 -0.0803 -0.0601
36153ION     CL49567   9.047   3.118   1.176 -0.1005  0.0218 -0.3263
36154ION     CL49568  12.656   3.645  15.947  0.0924  0.2365 -0.3102
36155ION     CL49569  17.800   3.046   5.802 -0.3847 -0.1326  0.0067
36156ION     CL49570   0.633  16.996   1.639  0.0650 -0.0103  0.1727
36157ION     CL49571   7.270   0.840  15.584  0.2148 -0.1902  0.1681
36158ION     CL49572  15.847   8.156  12.318 -0.0136  0.0234 -0.0191
36159ION     CL49573  10.112  16.151  14.772 -0.0544 -0.1210 -0.2857
36160ION     CL49574  12.283  10.335   0.051  0.0254 -0.1821 -0.4236
36161ION     CL49575   0.601  10.893  16.297 -0.1316  0.0227  0.0217
36162ION     CL49576   6.812  16.544  15.953 -0.3172  0.1525  0.2070
36163ION     CL49577  13.477  17.913   3.185  0.1085 -0.0661  0.2060
36164ION     CL49578  15.257   3.049   4.611 -0.1334 -0.0756  0.0018
36165ION     CL49579  13.298   6.791   4.959 -0.4115  0.1255  0.0104
36166ION     CL49580   5.481   3.829   1.247 -0.0962  0.0067 -0.0707
36167ION     CL49581  15.091   2.423   4.257  0.1279 -0.0957  0.0915
36168ION     CL49582  18.348   5.525   4.882 -0.1414 -0.3124 -0.2114
36169ION     CL49583   9.324  12.094   2.953 -0.2745 -0.0342 -0.1760
36170ION     CL49584   5.503   1.844   2.214 -0.1368 -0.0899 -0.0156
36171ION     CL49585  13.907  16.425  13.074 -0.0359 -0.0157 -0.1450
36172ION     CL49586   5.846  14.287   3.368 -0.0949 -0.0200  0.0679
36173ION     CL49587  13.065   4.953   0.867 -0.0270 -0.1608 -0.0475
36174ION     CL49588  10.661   3.289   3.475  0.0466 -0.0494  0.0085
36175ION     CL49589   3.885  10.396  14.930 -0.1377 -0.4871  0.0927
36176ION     CL49590   6.600  16.343  11.314 -0.1776  0.2265  0.2045
36177ION     CL49591  17.981  15.970  16.372 -0.0692 -0.0361 -0.1379
36178ION     CL49592   3.419   5.932  13.476 -0.2738  0.1584 -0.1511
  18.39807  18.39807  16.51237
